
                                 *****************
                                 * O   R   C   A *
                                 *****************

                                            #,                                       
                                            ###                                      
                                            ####                                     
                                            #####                                    
                                            ######                                   
                                           ########,                                 
                                     ,,################,,,,,                         
                               ,,#################################,,                 
                          ,,##########################################,,             
                       ,#########################################, ''#####,          
                    ,#############################################,,   '####,        
                  ,##################################################,,,,####,       
                ,###########''''           ''''###############################       
              ,#####''   ,,,,##########,,,,          '''####'''          '####       
            ,##' ,,,,###########################,,,                        '##       
           ' ,,###''''                  '''############,,,                           
         ,,##''                                '''############,,,,        ,,,,,,###''
      ,#''                                            '''#######################'''  
     '                                                          ''''####''''         
             ,#######,   #######,   ,#######,      ##                                
            ,#'     '#,  ##    ##  ,#'     '#,    #''#        ,####,   ,####,        
            ##       ##  ##   ,#'  ##            #'  '#       #'       #'  '#        
            ##       ##  #######   ##           ,######,      #####,   #    #        
            '#,     ,#'  ##    ##  '#,     ,#' ,#      #,     #,   #   #,  ,#        
             '#######'   ##     ##  '#######'  #'      '#     '####' # '####'        



                #########################################################
                #                        -***-                          #
                #          Department of theory and spectroscopy        #
                #                                                       #
                #                      Frank Neese                      #
                #                                                       #
                #     Directorship, Architecture, Infrastructure        #
                #                    SHARK, DRIVERS                     #
                #        Core code/Algorithms in most modules           #
                #                                                       #
                #        Max Planck Institute fuer Kohlenforschung      #
                #                Kaiser Wilhelm Platz 1                 #
                #                 D-45470 Muelheim/Ruhr                 #
                #                      Germany                          #
                #                                                       #
                #                  All rights reserved                  #
                #                        -***-                          #
                #########################################################


                         Program Version 6.0.0  -   RELEASE  -


 With contributions from (in alphabetic order):
   Daniel Aravena         : Magnetic Suceptibility
   Michael Atanasov       : Ab Initio Ligand Field Theory (pilot matlab implementation)
   Alexander A. Auer      : GIAO ZORA, VPT2 properties, NMR spectrum
   Ute Becker             : All parallelization in ORCA, NUMFREQ, NUMCALC
   Giovanni Bistoni       : ED, misc. LED, open-shell LED, HFLD
   Martin Brehm           : Molecular dynamics
   Dmytro Bykov           : pre 5.0 version of the SCF Hessian
   Marcos Casanova-Páez   : Triplet and SCS-CIS(D). UHF-(DLPNO)-IP/EA/STEOM-CCSD. UHF-CVS-IP/STEOM-CCSD
   Vijay G. Chilkuri      : MRCI spin determinant printing, contributions to CSF-ICE
   Pauline Colinet        : FMM embedding
   Dipayan Datta          : RHF DLPNO-CCSD density
   Achintya Kumar Dutta   : EOM-CC, STEOM-CC
   Nicolas Foglia         : Exact transition moments, OPA infrastructure, MCD improvements
   Dmitry Ganyushin       : Spin-Orbit,Spin-Spin,Magnetic field MRCI
   Miquel Garcia          : C-PCM and meta-GGA Hessian, CCSD/C-PCM, Gaussian charge scheme
   Tiago L. C. Gouveia    : GS-ROHF, GS-ROCIS
   Yang Guo               : DLPNO-NEVPT2, F12-NEVPT2, CIM, IAO-localization
   Andreas Hansen         : Spin unrestricted coupled pair/coupled cluster methods
   Ingolf Harden          : AUTO-CI MPn and infrastructure 
   Benjamin Helmich-Paris : MC-RPA, TRAH-(SCF,CASSCF), AVAS, COSX integrals, SCF dyn. polar.
   Lee Huntington         : MR-EOM, pCC
   Robert Izsak           : Overlap fitted RIJCOSX, COSX-SCS-MP3, EOM
   Riya Kayal             : Wick's Theorem for AUTO-CI, AUTO-CI UHF-CCSDT
   Emily Kempfer          : AUTO-CI, RHF CISDT and CCSDT
   Christian Kollmar      : KDIIS, OOCD, Brueckner-CCSD(T), CCSD density, CASPT2, CASPT2-K, improved NEVPT2
   Axel Koslowski         : Symmetry handling
   Simone Kossmann        : Meta GGA functionals, TD-DFT gradient, OOMP2, (MP2 Hessian; deprecated post 5.0)
   Lucas Lang             : DCDCAS
   Marvin Lechner         : AUTO-CI (C++ implementation), FIC-MRCC
   Spencer Leger          : CASSCF response
   Dagmar Lenk            : GEPOL surface, SMD, ORCA-2-JSON
   Dimitrios Liakos       : Extrapolation schemes; Compound Job, initial MDCI parallelization
   Dimitrios Manganas     : Further ROCIS development; embedding schemes. LFT, Crystal Embedding
   Dimitrios Pantazis     : SARC Basis sets
   Anastasios Papadopoulos: AUTO-CI, single reference methods and gradients
   Taras Petrenko         : pre 6.0 DFT Hessian and TD-DFT gradient, (ASA, deprecated), ECA, 1-Electron XAS/XES, NRVS
   Peter Pinski           : DLPNO-MP2, DLPNO-MP2 Gradient
   Christoph Reimann      : Effective Core Potentials
   Marius Retegan         : Local ZFS, SOC
   Christoph Riplinger    : Optimizer, TS searches, QM/MM, DLPNO-CCSD(T), (RO)-DLPNO pert. Triples
   Michael Roemelt        : Original ROCIS implementation
   Masaaki Saitow         : Open-shell DLPNO-CCSD energy and density
   Barbara Sandhoefer     : DKH picture change effects
   Kantharuban Sivalingam : CASSCF convergence/infrastructure, NEVPT2 and variants, FIC-MRCI
   Bernardo de Souza      : ESD, SOC TD-DFT
   Georgi Stoychev        : AutoAux, RI-MP2 NMR, DLPNO-MP2 response, X2C
   Van Anh Tran           : RI-MP2 g-tensors
   Willem Van den Heuvel  : Paramagnetic NMR
   Zikuan Wang            : NOTCH, Electric field optimization 
   Frank Wennmohs         : Technical directorship and infrastructure
   Hang Xu                : AUTO-CI-Response properties 


 We gratefully acknowledge several colleagues who have allowed us to
 interface, adapt or use parts of their codes:
   Stefan Grimme, W. Hujo, H. Kruse, P. Pracht,  : VdW corrections, initial TS optimization,
                  C. Bannwarth, S. Ehlert,         DFT functionals, gCP, sTDA/sTD-DF
                  L. Wittmann, M. Mueller
   Ed Valeev, F. Pavosevic, A. Kumar             : LibInt (2-el integral package), F12 methods
   Garnet Chan, S. Sharma, J. Yang, R. Olivares  : DMRG
   Ulf Ekstrom                                   : XCFun DFT Library
   Mihaly Kallay                                 : mrcc  (arbitrary order and MRCC methods)
   Frank Weinhold                                : gennbo (NPA and NBO analysis)
   Simon Mueller                                 : openCOSMO-RS
   Christopher J. Cramer and Donald G. Truhlar   : smd solvation model
   Lars Goerigk                                  : TD-DFT with DH, B97 family of functionals
   V. Asgeirsson, H. Jonsson                     : NEB implementation
   FAccTs GmbH                                   : IRC, NEB, NEB-TS, DLPNO-Multilevel, CI-OPT
                                                   MM, QMMM, 2- and 3-layer-ONIOM, Crystal-QMMM,
                                                   LR-CPCM, SF, NACMEs, symmetry and pop. for TD-DFT,
                                                   nearIR, NL-DFT gradient (VV10), updates on ESD,
                                                   ML-optimized integration grids, MBIS, APM,
                                                   GOAT, DOCKER, SOLVATOR, interface openCOSMO-RS
   S Lehtola, MJT Oliveira, MAL Marques          : LibXC Library
   Liviu Ungur et al                             : ANISO software


 Your calculation uses the libint2 library for the computation of 2-el integrals
 For citations please refer to: http://libint.valeyev.net

 Your ORCA version has been built with support for libXC version: 6.2.2
 For citations please refer to: https://libxc.gitlab.io

 This ORCA versions uses:
   CBLAS   interface :  Fast vector & matrix operations
   LAPACKE interface :  Fast linear algebra routines
   SCALAPACK package :  Parallel linear algebra routines
   Shared memory     :  Shared parallel matrices
   BLAS/LAPACK       :  OpenBLAS 0.3.27  USE64BITINT DYNAMIC_ARCH NO_AFFINITY SkylakeX SINGLE_THREADED
        Core in use  :  SkylakeX
   Copyright (c) 2011-2014, The OpenBLAS Project


Your calculation utilizes the geometrical counterpoise correction gCP
Please cite in your paper:
H.Kruse, S. Grimme J.Chem.Phys., 136, (2012), 154101 
   

Your calculation utilizes the atom-pairwise dispersion correction
based on EEQ partial charges (D4)


================================================================================

----- Orbital basis set information -----
Your calculation utilizes the basis: def2-mTZVPP
   Stefan Grimme, Andreas Hansen, Sebastian Ehlert, and Jan-Michael Mewes 
   J. Chem. Phys. 154, 064103 (2021). DOI: 10.1063/5.0040021

----- AuxJ basis set information -----
Your calculation utilizes the auxiliary basis: def2/J
   F. Weigend, Phys. Chem. Chem. Phys. 8, 1057 (2006).

================================================================================
                                        WARNINGS
                       Please study these warnings very carefully!
================================================================================

Using LibXC functional ID 497 : Re-regularized SCAN exchange by Furness et al
[ 1]  J. W. Furness, A. D. Kaplan, J. Ning, J. P. Perdew, and J. Sun.,  J. Phys. Chem. Lett. 11, 8208-8215 (2020)
[ 2]  J. W. Furness, A. D. Kaplan, J. Ning, J. P. Perdew, and J. Sun.,  J. Phys. Chem. Lett. 11, 9248-9248 (2020)
Using LibXC functional ID 498 : Re-regularized SCAN correlation by Furness et al
[ 1]  J. W. Furness, A. D. Kaplan, J. Ning, J. P. Perdew, and J. Sun.,  J. Phys. Chem. Lett. 11, 8208-8215 (2020)
[ 2]  J. W. Furness, A. D. Kaplan, J. Ning, J. P. Perdew, and J. Sun.,  J. Phys. Chem. Lett. 11, 9248-9248 (2020)
Using LibXC functional ID 497 : Re-regularized SCAN exchange by Furness et al
[ 1]  J. W. Furness, A. D. Kaplan, J. Ning, J. P. Perdew, and J. Sun.,  J. Phys. Chem. Lett. 11, 8208-8215 (2020)
[ 2]  J. W. Furness, A. D. Kaplan, J. Ning, J. P. Perdew, and J. Sun.,  J. Phys. Chem. Lett. 11, 9248-9248 (2020)
Using LibXC functional ID 498 : Re-regularized SCAN correlation by Furness et al
[ 1]  J. W. Furness, A. D. Kaplan, J. Ning, J. P. Perdew, and J. Sun.,  J. Phys. Chem. Lett. 11, 8208-8215 (2020)
[ 2]  J. W. Furness, A. D. Kaplan, J. Ning, J. P. Perdew, and J. Sun.,  J. Phys. Chem. Lett. 11, 9248-9248 (2020)

================================================================================
                                       INPUT FILE
================================================================================
NAME = sp_gas.inp
|  1> ! r2scan-3c def2/J RI DEFGRID2 scfconv6 printgap
|  2> %output
|  3>     printlevel normal
|  4> end
|  5> * xyz 0 1
|  6> C -2.3486881682 -0.3228262891 0.6781785438
|  7> C -1.7459087145 0.0054336965 -0.6820630415
|  8> C -0.4410613978 0.7999708793 -0.5949422688
|  9> C 0.7896244225 0.0631734099 -0.0305140632
| 10> C 2.0306681802 0.9365222044 -0.272954223
| 11> C 0.9973200867 -1.3050565927 -0.6911477593
| 12> O 0.5890879957 -0.0919787382 1.3715716674
| 13> H -3.2682362737 -0.8916371129 0.5584180866
| 14> H -2.5749258655 0.5920268107 1.2211828462
| 15> H -1.6519999541 -0.9012852103 1.2772620002
| 16> H -1.5834880006 -0.9146190408 -1.244450038
| 17> H -2.4615750615 0.6088868616 -1.2464030219
| 18> H -0.1832484885 1.1473240113 -1.5969321965
| 19> H -0.6080251612 1.6763518269 0.0350991426
| 20> H 2.9130902476 0.4706391129 0.1613761603
| 21> H 1.8932753456 1.912793407 0.1860001739
| 22> H 2.1988780697 1.0680040082 -1.3376682574
| 23> H 1.9632500931 -1.7165397103 -0.4050966393
| 24> H 0.9690054746 -1.2071008848 -1.7723200734
| 25> H 0.2223679327 -1.9982998913 -0.3756671756
| 26> H 1.3772979937 -0.4983474084 1.755706464
| 27> *
| 28> 
| 29>                          ****END OF INPUT****
================================================================================

                       ****************************
                       * Single Point Calculation *
                       ****************************

---------------------------------
CARTESIAN COORDINATES (ANGSTROEM)
---------------------------------
  C     -2.348688   -0.322826    0.678179
  C     -1.745909    0.005434   -0.682063
  C     -0.441061    0.799971   -0.594942
  C      0.789624    0.063173   -0.030514
  C      2.030668    0.936522   -0.272954
  C      0.997320   -1.305057   -0.691148
  O      0.589088   -0.091979    1.371572
  H     -3.268236   -0.891637    0.558418
  H     -2.574926    0.592027    1.221183
  H     -1.652000   -0.901285    1.277262
  H     -1.583488   -0.914619   -1.244450
  H     -2.461575    0.608887   -1.246403
  H     -0.183248    1.147324   -1.596932
  H     -0.608025    1.676352    0.035099
  H      2.913090    0.470639    0.161376
  H      1.893275    1.912793    0.186000
  H      2.198878    1.068004   -1.337668
  H      1.963250   -1.716540   -0.405097
  H      0.969005   -1.207101   -1.772320
  H      0.222368   -1.998300   -0.375667
  H      1.377298   -0.498347    1.755706

----------------------------
CARTESIAN COORDINATES (A.U.)
----------------------------
  NO LB      ZA    FRAG     MASS         X           Y           Z
   0 C     6.0000    0    12.011   -4.438377   -0.610053    1.281572
   1 C     6.0000    0    12.011   -3.299289    0.010268   -1.288912
   2 C     6.0000    0    12.011   -0.833485    1.511726   -1.124278
   3 C     6.0000    0    12.011    1.492174    0.119380   -0.057663
   4 C     6.0000    0    12.011    3.837407    1.769770   -0.515809
   5 C     6.0000    0    12.011    1.884662   -2.466200   -1.306080
   6 O     8.0000    0    15.999    1.113215   -0.173815    2.591895
   7 H     1.0000    0     1.008   -6.176071   -1.684950    1.055257
   8 H     1.0000    0     1.008   -4.865905    1.118769    2.307701
   9 H     1.0000    0     1.008   -3.121827   -1.703182    2.413675
  10 H     1.0000    0     1.008   -2.992359   -1.728380   -2.351670
  11 H     1.0000    0     1.008   -4.651703    1.150629   -2.355360
  12 H     1.0000    0     1.008   -0.346289    2.168128   -3.017765
  13 H     1.0000    0     1.008   -1.149001    3.167846    0.066328
  14 H     1.0000    0     1.008    5.504943    0.889379    0.304957
  15 H     1.0000    0     1.008    3.577772    3.614656    0.351489
  16 H     1.0000    0     1.008    4.155277    2.018235   -2.527827
  17 H     1.0000    0     1.008    3.710005   -3.243790   -0.765522
  18 H     1.0000    0     1.008    1.831155   -2.281090   -3.349200
  19 H     1.0000    0     1.008    0.420214   -3.776240   -0.709908
  20 H     1.0000    0     1.008    2.602716   -0.941740    3.317804

--------------------------------
INTERNAL COORDINATES (ANGSTROEM)
--------------------------------
 C      0   0   0     0.000000000000     0.00000000     0.00000000
 C      1   0   0     1.523599310294     0.00000000     0.00000000
 C      2   1   0     1.530197988427   113.47849912     0.00000000
 C      3   2   1     1.541440008070   116.96691680    68.86994453
 C      4   3   2     1.536783965450   108.38178158   169.53638062
 C      4   3   2     1.533501780033   112.13968993    48.85268578
 O      4   3   2     1.424826811751   107.45786540   287.56449831
 H      1   2   3     1.087868116414   110.41290492   180.34918089
 H      1   2   3     1.087654983126   110.29094101    60.32156554
 H      1   2   3     1.085767092389   110.70331621   301.06991210
 H      2   1   3     1.090484599410   109.72925935   123.37332780
 H      2   1   3     1.093075320449   108.71407743   240.41701556
 H      3   2   1     1.091377803386   108.32610476   190.38760147
 H      3   2   1     1.092187091887   108.61012837   307.54889124
 H      5   4   3     1.088282427423   110.39911462   176.96832868
 H      5   4   3     1.087483972507   109.97271840    57.19931675
 H      5   4   3     1.085908839040   110.40055586   296.95256221
 H      6   4   3     1.088193170621   110.14268089   169.81758615
 H      6   4   3     1.085969894032   110.17486500    50.03463539
 H      6   4   3     1.086584148023   110.33862811   289.44493740
 H      7   4   3     0.966421253402   108.79207589   183.83327800

---------------------------
INTERNAL COORDINATES (A.U.)
---------------------------
 C      0   0   0     0.000000000000     0.00000000     0.00000000
 C      1   0   0     2.879185434287     0.00000000     0.00000000
 C      2   1   0     2.891655128805   113.47849912     0.00000000
 C      3   2   1     2.912899467121   116.96691680    68.86994453
 C      4   3   2     2.904100821702   108.38178158   169.53638062
 C      4   3   2     2.897898390144   112.13968993    48.85268578
 O      4   3   2     2.692532462478   107.45786540   287.56449831
 H      1   2   3     2.055772809847   110.41290492   180.34918089
 H      1   2   3     2.055370046302   110.29094101    60.32156554
 H      1   2   3     2.051802449838   110.70331621   301.06991210
 H      2   1   3     2.060717246143   109.72925935   123.37332780
 H      2   1   3     2.065612999397   108.71407743   240.41701556
 H      3   2   1     2.062405157041   108.32610476   190.38760147
 H      3   2   1     2.063934490670   108.61012837   307.54889124
 H      5   4   3     2.056555744188   110.39911462   176.96832868
 H      5   4   3     2.055046883067   109.97271840    57.19931675
 H      5   4   3     2.052070312189   110.40055586   296.95256221
 H      6   4   3     2.056387073278   110.14268089   169.81758615
 H      6   4   3     2.052185689405   110.17486500    50.03463539
 H      6   4   3     2.053346461224   110.33862811   289.44493740
 H      7   4   3     1.826271498930   108.79207589   183.83327800

---------------------
BASIS SET INFORMATION
---------------------
There are 3 groups of distinct atoms

 Group   1 Type C   : 11s6p1d contracted to 5s3p1d pattern {62111/411/1}
 Group   2 Type O   : 11s6p2d contracted to 5s3p2d pattern {62111/411/11}
 Group   3 Type H   : 4s1p contracted to 2s1p pattern {31/1}

Atom   0C    basis set group =>   1
Atom   1C    basis set group =>   1
Atom   2C    basis set group =>   1
Atom   3C    basis set group =>   1
Atom   4C    basis set group =>   1
Atom   5C    basis set group =>   1
Atom   6O    basis set group =>   2
Atom   7H    basis set group =>   3
Atom   8H    basis set group =>   3
Atom   9H    basis set group =>   3
Atom  10H    basis set group =>   3
Atom  11H    basis set group =>   3
Atom  12H    basis set group =>   3
Atom  13H    basis set group =>   3
Atom  14H    basis set group =>   3
Atom  15H    basis set group =>   3
Atom  16H    basis set group =>   3
Atom  17H    basis set group =>   3
Atom  18H    basis set group =>   3
Atom  19H    basis set group =>   3
Atom  20H    basis set group =>   3
---------------------------------
AUXILIARY/J BASIS SET INFORMATION
---------------------------------
There are 3 groups of distinct atoms

 Group   1 Type C   : 12s5p4d2f1g contracted to 6s4p3d1f1g pattern {711111/2111/211/2/1}
 Group   2 Type O   : 12s5p4d2f1g contracted to 6s4p3d1f1g pattern {711111/2111/211/2/1}
 Group   3 Type H   : 5s2p1d contracted to 3s1p1d pattern {311/2/1}

Atom   0C    basis set group =>   1
Atom   1C    basis set group =>   1
Atom   2C    basis set group =>   1
Atom   3C    basis set group =>   1
Atom   4C    basis set group =>   1
Atom   5C    basis set group =>   1
Atom   6O    basis set group =>   2
Atom   7H    basis set group =>   3
Atom   8H    basis set group =>   3
Atom   9H    basis set group =>   3
Atom  10H    basis set group =>   3
Atom  11H    basis set group =>   3
Atom  12H    basis set group =>   3
Atom  13H    basis set group =>   3
Atom  14H    basis set group =>   3
Atom  15H    basis set group =>   3
Atom  16H    basis set group =>   3
Atom  17H    basis set group =>   3
Atom  18H    basis set group =>   3
Atom  19H    basis set group =>   3
Atom  20H    basis set group =>   3

Checking for AutoStart:
The File: sp_gas.gbw exists
Trying to determine its content:
     ... Fine, the file contains calculation information
     ... Fine, the calculation information was read
     ... Fine, the file contains a basis set
     ... Fine, the basis set was read
     ... Fine, the file contains a geometry
     ... Fine, the geometry was read
     ... Fine, the file contains a set of orbitals
     ... Fine, the orbitals can be read
     => possible old guess file was deleted
     => GBW file was renamed to GES file
     => GES file is set as startup file
     => Guess is set to MORead
     ... now leaving AutoStart

------------------------------------------------------------------------------
                             ORCA STARTUP CALCULATIONS
                           -- RI-GTO INTEGRALS CHOSEN --
------------------------------------------------------------------------------
------------------------------------------------------------------------------
                   ___                                                        
                  /   \      - P O W E R E D   B Y -                         
                 /     \                                                     
                 |  |  |   _    _      __       _____    __    __             
                 |  |  |  | |  | |    /  \     |  _  \  |  |  /  |          
                  \  \/   | |  | |   /    \    | | | |  |  | /  /          
                 / \  \   | |__| |  /  /\  \   | |_| |  |  |/  /          
                |  |  |   |  __  | /  /__\  \  |    /   |      \           
                |  |  |   | |  | | |   __   |  |    \   |  |\   \          
                \     /   | |  | | |  |  |  |  | |\  \  |  | \   \       
                 \___/    |_|  |_| |__|  |__|  |_| \__\ |__|  \__/        
                                                                              
                      - O R C A' S   B I G   F R I E N D -                    
                                      &                                       
                       - I N T E G R A L  F E E D E R -                       
                                                                              
 v1 FN, 2020, v2 2021, v3 2022-2024                                           
------------------------------------------------------------------------------


----------------------
SHARK INTEGRAL PACKAGE
----------------------

Number of atoms                             ...     21
Number of basis functions                   ...    208
Number of shells                            ...    106
Maximum angular momentum                    ...      2
Integral batch strategy                     ... SHARK/LIBINT Hybrid
RI-J (if used) integral strategy            ... SPLIT-RIJ (Revised 2003 algorithm where possible)
Printlevel                                  ...      1
Contraction scheme used                     ... SEGMENTED contraction
Prescreening option                         ... SCHWARTZ
   Thresh                                   ... 1.000e-10
   Tcut                                     ... 1.000e-11
   Tpresel                                  ... 1.000e-11 
Coulomb Range Separation                    ... NOT USED
Exchange Range Separation                   ... NOT USED
Multipole approximations                    ... NOT USED
Finite Nucleus Model                        ... NOT USED
CABS basis                                  ... NOT available
Auxiliary Coulomb fitting basis             ... AVAILABLE
   # of basis functions in Aux-J            ...    497
   # of shells in Aux-J                     ...    175
   Maximum angular momentum in Aux-J        ...      4
Auxiliary J/K fitting basis                 ... NOT available
Auxiliary Correlation fitting basis         ... NOT available
Auxiliary 'external' fitting basis          ... NOT available

Checking pre-screening integrals            ... done (  0.0 sec) Dimension = 106
Check shell pair data                       ... done (  0.0 sec)
Shell pair information
Shell pair cut-off parameter TPreSel        ...   1.0e-11
Total number of shell pairs                 ...      5671
Shell pairs after pre-screening             ...      5252
Total number of primitive shell pairs       ...     19699
Primitive shell pairs kept                  ...     13210
          la=0 lb=0:   1850 shell pairs
          la=1 lb=0:   2035 shell pairs
          la=1 lb=1:    585 shell pairs
          la=2 lb=0:    481 shell pairs
          la=2 lb=1:    265 shell pairs
          la=2 lb=2:     36 shell pairs

Calculating one electron integrals          ... done (  0.0 sec)
Calculating RI/J V-Matrix + Cholesky decomp.... done (  0.1 sec)
Calculating Nuclear repulsion               ... done (  0.0 sec) ENN=    343.668546283686 Eh

Diagonalization of the overlap matrix:
Smallest eigenvalue                        ... 1.717e-04
Time for diagonalization                   ...    0.004 sec
Threshold for overlap eigenvalues          ... 1.000e-07
Number of eigenvalues below threshold      ... 0
Time for construction of square roots      ...    0.017 sec
Total time needed                          ...    0.033 sec

-------------------
DFT GRID GENERATION
-------------------

General Integration Accuracy     IntAcc      ... 4.388
Radial Grid Type                 RadialGrid  ... OptM3 with GC (2021)
Angular Grid (max. ang.)         AngularGrid ... 4 (Lebedev-302)
Angular grid pruning method      GridPruning ... 4 (adaptive)
Weight generation scheme         WeightScheme... mBecke (2022)
Basis function cutoff            BFCut       ... 1.0000e-10
Integration weight cutoff        WCut        ... 1.0000e-14
Partially contracted basis set               ... off
Rotationally invariant grid construction     ... off
Angular grids for H and He will be reduced by one unit
Diffuse basis detected: some atoms will have their outermost
                        angular grid increased by 1.

Total number of grid points                  ...    86988
Total number of batches                      ...     1369
Average number of points per batch           ...       63
Average number of grid points per atom       ...     4142
Initializing property integral containers    ... done (  0.1 sec)

SHARK setup successfully completed in   1.3 seconds

Maximum memory used throughout the entire STARTUP-calculation: 38.1 MB
-------------------------------------------------------------------------------
                                 ORCA GUESS
                   Start orbitals & Density for SCF / CASSCF
-------------------------------------------------------------------------------

------------
SCF SETTINGS
------------
Hamiltonian:
 Density Functional     Method          .... DFT(GTOs)
  Functional kind                       .... Exchange
  Functional name                       .... Re-regularized SCAN exchange by Furness et al
  Functional family                     .... MGGA
  Functional refs                              
    [ 0] J. W. Furness, A. D. Kaplan, J. Ning, J. P. Perdew, and J. Sun.,  J. Phys. Chem. Lett. 11, 8208-8215 (2020), doi: 10.1021/acs.jpclett.0c02405
    [ 1] J. W. Furness, A. D. Kaplan, J. Ning, J. P. Perdew, and J. Sun.,  J. Phys. Chem. Lett. 11, 9248-9248 (2020), doi: 10.1021/acs.jpclett.0c03077
  Functional external parameters        .... 6
    Parameter  0 _c1        =  6.670000e-01 : c1 parameter        
    Parameter  1 _c2        =  8.000000e-01 : c2 parameter        
    Parameter  2 _d         =  1.240000e+00 : d parameter         
    Parameter  3 _k1        =  6.500000e-02 : k1 parameter        
    Parameter  4 _eta       =  1.000000e-03 : eta parameter       
    Parameter  5 _dp2       =  3.610000e-01 : dp2 parameter       
  Functional kind                       .... Correlation
  Functional name                       .... Re-regularized SCAN correlation by Furness et al
  Functional family                     .... MGGA
  Functional refs                              
    [ 0] J. W. Furness, A. D. Kaplan, J. Ning, J. P. Perdew, and J. Sun.,  J. Phys. Chem. Lett. 11, 8208-8215 (2020), doi: 10.1021/acs.jpclett.0c02405
    [ 1] J. W. Furness, A. D. Kaplan, J. Ning, J. P. Perdew, and J. Sun.,  J. Phys. Chem. Lett. 11, 9248-9248 (2020), doi: 10.1021/acs.jpclett.0c03077
  Functional external parameters        .... 1
    Parameter  0 _eta       =  1.000000e-03 : Regularization parameter
 Gradients option       PostSCFGGA      .... off
 RI-approximation to the Coulomb term is turned on
   Number of AuxJ basis functions       .... 497


General Settings:
 Integral files         IntName         .... sp_gas
 Hartree-Fock type      HFTyp           .... RHF
 Total Charge           Charge          ....    0
 Multiplicity           Mult            ....    1
 Number of Electrons    NEL             ....   58
 Basis Dimension        Dim             ....  208
 Nuclear Repulsion      ENuc            ....    343.6685462837 Eh

Convergence Acceleration:
 AO-DIIS                CNVDIIS         .... on
   Start iteration      DIISMaxIt       ....    12
   Startup error        DIISStart       ....  0.200000
   # of expansion vecs  DIISMaxEq       ....     5
   Bias factor          DIISBfac        ....   1.050
   Max. coefficient     DIISMaxC        ....  10.000
 MO-DIIS                CNVKDIIS        .... off
 Trust-Rad. Augm. Hess. CNVTRAH         .... auto
   Auto Start mean grad. ratio tolernc. ....  1.125000
   Auto Start start iteration           ....     1
   Auto Start num. interpolation iter.  ....    10
   Max. Number of Micro iterations      ....    24
   Max. Number of Macro iterations      .... Maxiter - #DIIS iter
   Number of Davidson start vectors     ....     2
   Converg. threshold    (grad. norm)   ....   3.330e-04
   Grad. Scal. Fac. for Micro threshold ....   0.100
   Minimum threshold for Micro iter.    ....   1.000e-02
   NR start threshold (gradient norm)   ....   1.000e-04
   Initial trust radius                 ....   0.400
   Minimum AH scaling param. (alpha)    ....   1.000
   Maximum AH scaling param. (alpha)    .... 1000.000
   Quad. conv. algorithm                .... NR
   White noise on init. David. guess    .... on
   Maximum white noise                  ....   0.010
   Pseudo random numbers                .... off
   Inactive MOs                         .... canonical
   Orbital update algorithm             .... Taylor
   Preconditioner                       .... Diag
   Full preconditioner red. dimension   ....   250
   COSX micro iterations for RIJONX calc.... off
 SOSCF                  CNVSOSCF        .... on
   Start iteration      SOSCFMaxIt      ....   150
   Startup grad/error   SOSCFStart      ....  0.003300
   Hessian update       SOSCFHessUp     .... L-BFGS
 Level Shifting         CNVShift        .... on
   Level shift para.    LevelShift      ....    0.2500
   Turn off err/grad.   ShiftErr        ....    0.0010
 Zerner damping         CNVZerner       .... off
 Static damping         CNVDamp         .... on
   Fraction old density DampFac         ....    0.7000
   Max. Damping (<1)    DampMax         ....    0.9800
   Min. Damping (>=0)   DampMin         ....    0.0000
   Turn off err/grad.   DampErr         ....    0.1000

SCF Procedure:
 Maximum # iterations   MaxIter         ....   125
 SCF integral mode      SCFMode         .... Direct
   Integral package                     .... SHARK and LIBINT hybrid scheme
 Reset frequency        DirectResetFreq ....    20
 Integral Threshold     Thresh          ....  1.000e-10 Eh
 Primitive CutOff       TCut            ....  1.000e-11 Eh

Convergence Tolerance:
 Convergence Check Mode ConvCheckMode   .... Total+1el-Energy
 Convergence forced     ConvForced      .... 0
 Energy Change          TolE            ....  1.000e-06 Eh
 1-El. energy change                    ....  1.000e-03 Eh
 Orbital Gradient       TolG            ....  3.330e-04
 Orbital Rotation angle TolX            ....  3.330e-04
 DIIS Error             TolErr          ....  1.000e-06

---------------------
INITIAL GUESS: MOREAD
---------------------
Guess MOs are being read from file: sp_gas.ges
Input Geometry matches current geometry (good)
Atom 0: N(Shells)= 9 and 6 - projection required
Input basis set needs projection
NBasis(read)= 126
NBasis(calc)= 208
Basis set overlap was calculated
Using GuessMode=FMatrix for the initial guess
C*T matrix was formed
Effective Fockian was calculated
Effective Fockian was diagonalized
Initial density was built
                      ------------------
                      INITIAL GUESS DONE (   0.0 sec)
                      ------------------
             **** ENERGY FILE WAS UPDATED (sp_gas.en.tmp) ****
Finished Guess after   0.3 sec
Maximum memory used throughout the entire GUESS-calculation: 14.5 MB

-------------------------------------------------------------------------------------------
                                      ORCA LEAN-SCF
                              memory conserving SCF solver
-------------------------------------------------------------------------------------------

----------------------------------------D-I-I-S--------------------------------------------
Iteration    Energy (Eh)           Delta-E    RMSDP     MaxDP     DIISErr   Damp  Time(sec)
-------------------------------------------------------------------------------------------
               ***  Starting incremental Fock matrix formation  ***
    1    -312.0333785042280965     0.00e+00  3.67e-03  1.14e-01  6.29e-01  0.700   2.7
    2    -312.0859107637700731    -5.25e-02  2.97e-03  8.29e-02  4.42e-01  0.700   2.5
    3    -312.1231191235495430    -3.72e-02  2.18e-03  6.04e-02  3.10e-01  0.700   2.5
    4    -312.1492486902769201    -2.61e-02  1.57e-03  4.30e-02  2.17e-01  0.700   2.4
                               ***Turning on AO-DIIS***
    5    -312.1675822082826812    -1.83e-02  1.14e-03  3.07e-02  1.52e-01  0.700   2.4
    6    -312.1804385222894211    -1.29e-02  8.09e-04  2.17e-02  1.06e-01  0.700   2.4
    7    -312.1894527529588572    -9.01e-03  5.71e-04  1.53e-02  7.44e-02  0.700   2.3
    8    -312.1957702625163051    -6.32e-03  1.34e-03  3.57e-02  5.21e-02  0.000   2.3
                              *** Initializing SOSCF ***
---------------------------------------S-O-S-C-F--------------------------------------
Iteration    Energy (Eh)           Delta-E    RMSDP     MaxDP     MaxGrad    Time(sec)
--------------------------------------------------------------------------------------
    9    -312.2105356474992846    -1.48e-02  1.09e-05  3.49e-04  1.42e-04     2.4
               *** Restarting incremental Fock matrix formation ***
   10    -312.2105357684820888    -1.21e-07  6.33e-06  2.13e-04  2.32e-05     2.7
                  *** Gradient check signals convergence ***

               *****************************************************
               *                     SUCCESS                       *
               *           SCF CONVERGED AFTER  10 CYCLES          *
               *****************************************************

             **** ENERGY FILE WAS UPDATED (sp_gas.en.tmp) ****

----------------
TOTAL SCF ENERGY
----------------

Total Energy       :       -312.21053576848209 Eh           -8495.68059 eV

Components:
Nuclear Repulsion  :        343.66854628368566 Eh            9351.69658 eV
Electronic Energy  :       -655.87908205216763 Eh          -17847.37717 eV
One Electron Energy:      -1103.12242007040049 Eh          -30017.48711 eV
Two Electron Energy:        447.24333801823281 Eh           12170.10994 eV

Virial components:
Potential Energy   :       -623.01918238665485 Eh          -16953.21384 eV
Kinetic Energy     :        310.80864661817270 Eh            8457.53325 eV
Virial Ratio       :          2.00451045736843

DFT components:
N(Alpha)           :       28.999916209282 electrons
N(Beta)            :       28.999916209282 electrons
N(Total)           :       57.999832418564 electrons
E(X)               :      -44.503322686148 Eh       
E(C)               :       -1.814087324682 Eh       
E(XC)              :      -46.317410010830 Eh       

---------------
SCF CONVERGENCE
---------------

  Last Energy change         ...    1.2098e-07  Tolerance :   1.0000e-06
  Last MAX-Density change    ...    2.1288e-04  Tolerance :   1.0000e-05
  Last RMS-Density change    ...    6.3272e-06  Tolerance :   1.0000e-06
  Last DIIS Error            ...    1.4215e-04  Tolerance :   1.0000e-06
  Last Orbital Gradient      ...    2.3205e-05  Tolerance :   3.3300e-04
  Last Orbital Rotation      ...    3.9929e-05  Tolerance :   3.3300e-04


----------------
ORBITAL ENERGIES
----------------

  NO   OCC          E(Eh)            E(eV) 
   0   2.0000     -18.943038      -515.4663 
   1   2.0000     -10.088301      -274.5166 
   2   2.0000     -10.020681      -272.6766 
   3   2.0000     -10.018836      -272.6264 
   4   2.0000     -10.018225      -272.6098 
   5   2.0000     -10.017726      -272.5962 
   6   2.0000     -10.000836      -272.1366 
   7   2.0000      -0.983463       -26.7614 
   8   2.0000      -0.767103       -20.8739 
   9   2.0000      -0.720855       -19.6155 
  10   2.0000      -0.658599       -17.9214 
  11   2.0000      -0.642011       -17.4700 
  12   2.0000      -0.569106       -15.4861 
  13   2.0000      -0.518965       -14.1218 
  14   2.0000      -0.458570       -12.4783 
  15   2.0000      -0.437614       -11.9081 
  16   2.0000      -0.411169       -11.1885 
  17   2.0000      -0.391439       -10.6516 
  18   2.0000      -0.385160       -10.4807 
  19   2.0000      -0.375521       -10.2184 
  20   2.0000      -0.365197        -9.9375 
  21   2.0000      -0.347586        -9.4583 
  22   2.0000      -0.325337        -8.8529 
  23   2.0000      -0.322080        -8.7642 
  24   2.0000      -0.312466        -8.5026 
  25   2.0000      -0.297807        -8.1037 
  26   2.0000      -0.289106        -7.8670 
  27   2.0000      -0.268688        -7.3114 
  28   2.0000      -0.231964        -6.3121 
  29   0.0000       0.058804         1.6001 
  30   0.0000       0.102601         2.7919 
  31   0.0000       0.112749         3.0681 
  32   0.0000       0.122329         3.3287 
  33   0.0000       0.130187         3.5426 
  34   0.0000       0.133092         3.6216 
  35   0.0000       0.143725         3.9109 
  36   0.0000       0.149314         4.0630 
  37   0.0000       0.150120         4.0850 
  38   0.0000       0.162221         4.4142 
  39   0.0000       0.171759         4.6738 
*Only the first 10 virtual orbitals were printed.

                    ********************************
                    * MULLIKEN POPULATION ANALYSIS *
                    ********************************

-----------------------
MULLIKEN ATOMIC CHARGES
-----------------------
   0 C :   -0.480415
   1 C :   -0.275376
   2 C :   -0.278005
   3 C :    0.169898
   4 C :   -0.468510
   5 C :   -0.518260
   6 O :   -0.400818
   7 H :    0.138565
   8 H :    0.139479
   9 H :    0.174532
  10 H :    0.143856
  11 H :    0.142287
  12 H :    0.144404
  13 H :    0.158426
  14 H :    0.139689
  15 H :    0.159622
  16 H :    0.151748
  17 H :    0.142394
  18 H :    0.160611
  19 H :    0.171465
  20 H :    0.284406
Sum of atomic charges:    0.0000000

--------------------------------
MULLIKEN REDUCED ORBITAL CHARGES
--------------------------------
  0 C s       :     3.325663  s :     3.325663
      pz      :     0.956677  p :     3.127856
      px      :     1.079463
      py      :     1.091716
      dz2     :     0.005515  d :     0.026897
      dxz     :     0.005721
      dyz     :     0.007110
      dx2y2   :     0.002805
      dxy     :     0.005746

  1 C s       :     3.232956  s :     3.232956
      pz      :     0.979994  p :     3.004999
      px      :     0.976107
      py      :     1.048898
      dz2     :     0.006330  d :     0.037422
      dxz     :     0.008338
      dyz     :     0.009025
      dx2y2   :     0.005881
      dxy     :     0.007848

  2 C s       :     3.228674  s :     3.228674
      pz      :     1.097047  p :     3.013716
      px      :     0.914569
      py      :     1.002101
      dz2     :     0.006094  d :     0.035614
      dxz     :     0.005843
      dyz     :     0.006775
      dx2y2   :     0.008256
      dxy     :     0.008647

  3 C s       :     3.116673  s :     3.116673
      pz      :     0.737109  p :     2.638066
      px      :     0.977120
      py      :     0.923837
      dz2     :     0.021306  d :     0.075363
      dxz     :     0.013019
      dyz     :     0.017172
      dx2y2   :     0.010445
      dxy     :     0.013421

  4 C s       :     3.336522  s :     3.336522
      pz      :     1.082189  p :     3.106025
      px      :     0.978857
      py      :     1.044979
      dz2     :     0.006623  d :     0.025963
      dxz     :     0.003324
      dyz     :     0.003405
      dx2y2   :     0.006463
      dxy     :     0.006148

  5 C s       :     3.354231  s :     3.354231
      pz      :     1.056691  p :     3.138165
      px      :     1.101012
      py      :     0.980462
      dz2     :     0.007675  d :     0.025864
      dxz     :     0.001662
      dyz     :     0.004019
      dx2y2   :     0.004724
      dxy     :     0.007784

  6 O s       :     3.765779  s :     3.765779
      pz      :     1.265451  p :     4.629868
      px      :     1.555052
      py      :     1.809365
      dz2     :     0.000953  d :     0.005172
      dxz     :    -0.004735
      dyz     :    -0.001729
      dx2y2   :     0.005943
      dxy     :     0.004739

  7 H s       :     0.843178  s :     0.843178
      pz      :     0.003694  p :     0.018257
      px      :     0.008822
      py      :     0.005741

  8 H s       :     0.842224  s :     0.842224
      pz      :     0.005602  p :     0.018297
      px      :     0.004018
      py      :     0.008678

  9 H s       :     0.806628  s :     0.806628
      pz      :     0.006009  p :     0.018840
      px      :     0.007326
      py      :     0.005505

 10 H s       :     0.838052  s :     0.838052
      pz      :     0.005496  p :     0.018092
      px      :     0.003727
      py      :     0.008869

 11 H s       :     0.839927  s :     0.839927
      pz      :     0.005492  p :     0.017786
      px      :     0.006654
      py      :     0.005640

 12 H s       :     0.837654  s :     0.837654
      pz      :     0.009690  p :     0.017942
      px      :     0.003797
      py      :     0.004455

 13 H s       :     0.823766  s :     0.823766
      pz      :     0.005992  p :     0.017808
      px      :     0.003491
      py      :     0.008324

 14 H s       :     0.841990  s :     0.841990
      pz      :     0.004786  p :     0.018321
      px      :     0.008742
      py      :     0.004793

 15 H s       :     0.822219  s :     0.822219
      pz      :     0.004952  p :     0.018158
      px      :     0.003573
      py      :     0.009634

 16 H s       :     0.829860  s :     0.829860
      pz      :     0.010694  p :     0.018392
      px      :     0.003838
      py      :     0.003861

 17 H s       :     0.839268  s :     0.839268
      pz      :     0.004103  p :     0.018338
      px      :     0.009443
      py      :     0.004792

 18 H s       :     0.821042  s :     0.821042
      pz      :     0.010958  p :     0.018346
      px      :     0.003719
      py      :     0.003669

 19 H s       :     0.810218  s :     0.810218
      pz      :     0.004204  p :     0.018316
      px      :     0.007493
      py      :     0.006619

 20 H s       :     0.672437  s :     0.672437
      pz      :     0.010141  p :     0.043157
      px      :     0.018458
      py      :     0.014558


------------------------
MULLIKEN OVERLAP CHARGES
------------------------
B(  0-C ,  1-C ) :   0.3369 B(  0-C ,  2-C ) :  -0.2300 B(  0-C ,  7-H ) :   0.8008 
B(  0-C ,  8-H ) :   0.8189 B(  0-C ,  9-H ) :   0.8585 B(  0-C , 10-H ) :  -0.0795 
B(  1-C ,  2-C ) :   0.3730 B(  1-C ,  3-C ) :  -0.1203 B(  1-C ,  7-H ) :  -0.0881 
B(  1-C ,  8-H ) :  -0.0711 B(  1-C ,  9-H ) :  -0.0901 B(  1-C , 10-H ) :   0.8836 
B(  1-C , 11-H ) :   0.8240 B(  1-C , 12-H ) :  -0.0926 B(  1-C , 13-H ) :  -0.0597 
B(  2-C ,  3-C ) :   0.3340 B(  2-C ,  4-C ) :  -0.2559 B(  2-C ,  5-C ) :  -0.1286 
B(  2-C ,  6-O ) :  -0.1723 B(  2-C , 10-H ) :  -0.0866 B(  2-C , 11-H ) :  -0.1087 
B(  2-C , 12-H ) :   0.8174 B(  2-C , 13-H ) :   0.8646 B(  3-C ,  4-C ) :   0.6643 
B(  3-C ,  5-C ) :   0.4382 B(  3-C ,  6-O ) :   0.2833 B(  3-C , 10-H ) :  -0.0543 
B(  3-C , 12-H ) :  -0.0520 B(  3-C , 13-H ) :  -0.1036 B(  3-C , 14-H ) :  -0.0619 
B(  3-C , 15-H ) :  -0.0897 B(  3-C , 16-H ) :  -0.0945 B(  3-C , 17-H ) :  -0.0523 
B(  3-C , 18-H ) :  -0.0909 B(  3-C , 19-H ) :  -0.0655 B(  3-C , 20-H ) :  -0.1289 
B(  4-C ,  5-C ) :  -0.2563 B(  4-C ,  6-O ) :  -0.1079 B(  4-C , 14-H ) :   0.8142 
B(  4-C , 15-H ) :   0.8197 B(  4-C , 16-H ) :   0.8459 B(  5-C ,  6-O ) :  -0.1495 
B(  5-C , 17-H ) :   0.7852 B(  5-C , 18-H ) :   0.8206 B(  5-C , 19-H ) :   0.8256 
B(  6-O , 20-H ) :   0.5841 


                     *******************************
                     * LOEWDIN POPULATION ANALYSIS *
                     *******************************

----------------------
LOEWDIN ATOMIC CHARGES
----------------------
   0 C :   -0.423828
   1 C :   -0.309435
   2 C :   -0.267236
   3 C :    0.057710
   4 C :   -0.389453
   5 C :   -0.392097
   6 O :   -0.608497
   7 H :    0.145085
   8 H :    0.151199
   9 H :    0.166455
  10 H :    0.152901
  11 H :    0.151614
  12 H :    0.163681
  13 H :    0.172330
  14 H :    0.153206
  15 H :    0.164605
  16 H :    0.158956
  17 H :    0.155804
  18 H :    0.162099
  19 H :    0.165174
  20 H :    0.269728

-------------------------------
LOEWDIN REDUCED ORBITAL CHARGES
-------------------------------
  0 C s       :     2.971904  s :     2.971904
      pz      :     1.093008  p :     3.388762
      px      :     1.136787
      py      :     1.158967
      dz2     :     0.012519  d :     0.063162
      dxz     :     0.013063
      dyz     :     0.016326
      dx2y2   :     0.006780
      dxy     :     0.014474

  1 C s       :     2.933004  s :     2.933004
      pz      :     1.096170  p :     3.296007
      px      :     1.074429
      py      :     1.125408
      dz2     :     0.013357  d :     0.080425
      dxz     :     0.017394
      dyz     :     0.019501
      dx2y2   :     0.012408
      dxy     :     0.017764

  2 C s       :     2.928719  s :     2.928719
      pz      :     1.114000  p :     3.261505
      px      :     1.048865
      py      :     1.098639
      dz2     :     0.014665  d :     0.077012
      dxz     :     0.011351
      dyz     :     0.015421
      dx2y2   :     0.016832
      dxy     :     0.018742

  3 C s       :     2.813346  s :     2.813346
      pz      :     0.880115  p :     2.972694
      px      :     1.044525
      py      :     1.048053
      dz2     :     0.045845  d :     0.156250
      dxz     :     0.026858
      dyz     :     0.036120
      dx2y2   :     0.019607
      dxy     :     0.027821

  4 C s       :     2.973322  s :     2.973322
      pz      :     1.145853  p :     3.354242
      px      :     1.081997
      py      :     1.126392
      dz2     :     0.016854  d :     0.061890
      dxz     :     0.007726
      dyz     :     0.008329
      dx2y2   :     0.014566
      dxy     :     0.014415

  5 C s       :     2.968856  s :     2.968856
      pz      :     1.128054  p :     3.361623
      px      :     1.149715
      py      :     1.083855
      dz2     :     0.019555  d :     0.061617
      dxz     :     0.003921
      dyz     :     0.008885
      dx2y2   :     0.011152
      dxy     :     0.018104

  6 O s       :     3.512623  s :     3.512623
      pz      :     1.404672  p :     4.792038
      px      :     1.593114
      py      :     1.794252
      dz2     :     0.083412  d :     0.303836
      dxz     :     0.085123
      dyz     :     0.077448
      dx2y2   :     0.022841
      dxy     :     0.035013

  7 H s       :     0.811567  s :     0.811567
      pz      :     0.008383  p :     0.043348
      px      :     0.021555
      py      :     0.013409

  8 H s       :     0.805553  s :     0.805553
      pz      :     0.013049  p :     0.043247
      px      :     0.008821
      py      :     0.021377

  9 H s       :     0.787586  s :     0.787586
      pz      :     0.014577  p :     0.045959
      px      :     0.018109
      py      :     0.013273

 10 H s       :     0.803491  s :     0.803491
      pz      :     0.013163  p :     0.043608
      px      :     0.008573
      py      :     0.021872

 11 H s       :     0.805424  s :     0.805424
      pz      :     0.013063  p :     0.042962
      px      :     0.016166
      py      :     0.013733

 12 H s       :     0.792763  s :     0.792763
      pz      :     0.023918  p :     0.043556
      px      :     0.009180
      py      :     0.010459

 13 H s       :     0.784345  s :     0.784345
      pz      :     0.014590  p :     0.043325
      px      :     0.008344
      py      :     0.020391

 14 H s       :     0.803453  s :     0.803453
      pz      :     0.010993  p :     0.043340
      px      :     0.020998
      py      :     0.011350

 15 H s       :     0.791721  s :     0.791721
      pz      :     0.011482  p :     0.043674
      px      :     0.008172
      py      :     0.024020

 16 H s       :     0.796740  s :     0.796740
      pz      :     0.026804  p :     0.044305
      px      :     0.008811
      py      :     0.008689

 17 H s       :     0.800546  s :     0.800546
      pz      :     0.009320  p :     0.043651
      px      :     0.023070
      py      :     0.011261

 18 H s       :     0.793611  s :     0.793611
      pz      :     0.027629  p :     0.044290
      px      :     0.008121
      py      :     0.008540

 19 H s       :     0.790767  s :     0.790767
      pz      :     0.009543  p :     0.044059
      px      :     0.018350
      py      :     0.016166

 20 H s       :     0.606961  s :     0.606961
      pz      :     0.027744  p :     0.123311
      px      :     0.056065
      py      :     0.039502


---------------------------------
LOEWDIN BOND ORDERS (THRESH 0.050000)
---------------------------------
B(  0-C ,  1-C ) :   1.1411 B(  0-C ,  2-C ) :   0.0641 B(  0-C ,  7-H ) :   0.9305 
B(  0-C ,  8-H ) :   0.9288 B(  0-C ,  9-H ) :   0.9110 B(  1-C ,  2-C ) :   1.1022 
B(  1-C ,  3-C ) :   0.0554 B(  1-C , 10-H ) :   0.8899 B(  1-C , 11-H ) :   0.8929 
B(  2-C ,  3-C ) :   0.9808 B(  2-C ,  4-C ) :   0.0806 B(  2-C ,  5-C ) :   0.0628 
B(  2-C ,  6-O ) :   0.1600 B(  2-C , 12-H ) :   0.8732 B(  2-C , 13-H ) :   0.8711 
B(  3-C ,  4-C ) :   1.0200 B(  3-C ,  5-C ) :   1.0209 B(  3-C ,  6-O ) :   1.3630 
B(  4-C ,  5-C ) :   0.0758 B(  4-C ,  6-O ) :   0.1675 B(  4-C , 14-H ) :   0.9153 
B(  4-C , 15-H ) :   0.9136 B(  4-C , 16-H ) :   0.9133 B(  5-C ,  6-O ) :   0.1624 
B(  5-C , 17-H ) :   0.9147 B(  5-C , 18-H ) :   0.9112 B(  5-C , 19-H ) :   0.9106 
B(  6-O , 20-H ) :   0.9647 

------------------------------------------
LOEWDIN REDUCED ORBITAL POPULATIONS PER MO
-------------------------------------------
THRESHOLD FOR PRINTING IS 0.1%%
                      0         1         2         3         4         5   
                 -18.94304 -10.08830 -10.02068 -10.01884 -10.01823 -10.01773
                   2.00000   2.00000   2.00000   2.00000   2.00000   2.00000
                  --------  --------  --------  --------  --------  --------
 1 C  s               0.0       0.0       0.1      99.6       0.0       0.0
 2 C  s               0.0       0.0      99.5       0.1       0.0       0.0
 3 C  s               0.0      99.3       0.0       0.0       0.0       0.0
 4 C  s               0.0       0.0       0.0       0.0       0.0      99.7
 5 C  s               0.0       0.0       0.0       0.0      99.7       0.0
 6 O  s              99.9       0.0       0.0       0.0       0.0       0.0
 6 O  pz              0.0       0.1       0.0       0.0       0.0       0.0
 6 O  dz2             0.0       0.3       0.0       0.0       0.0       0.0

                      6         7         8         9        10        11   
                 -10.00084  -0.98346  -0.76710  -0.72086  -0.65860  -0.64201
                   2.00000   2.00000   2.00000   2.00000   2.00000   2.00000
                  --------  --------  --------  --------  --------  --------
 0 C  s              99.7       0.0       4.2      14.0       0.3      18.2
 0 C  pz              0.0       0.0       1.1       1.4       0.0       0.1
 0 C  px              0.0       0.1       0.4       0.2       0.0       0.3
 0 C  py              0.0       0.0       0.1       0.1       0.0       0.1
 1 C  s               0.0       0.1      12.1      17.3       0.0       0.3
 1 C  pz              0.1       0.0       0.2       1.0       0.0       2.8
 1 C  px              0.0       0.2       1.2       0.3       0.1       6.0
 1 C  py              0.0       0.0       0.2       0.0       0.4       2.3
 1 C  dz2             0.0       0.0       0.0       0.0       0.0       0.2
 2 C  s               0.0       0.8      17.8       1.8       1.5      14.7
 2 C  pz              0.0       0.6       0.0       0.0       0.0       0.1
 2 C  px              0.0       0.6       0.0       6.9       0.2       0.1
 2 C  py              0.0       0.3       1.0       0.1       1.0       0.3
 2 C  dxy             0.0       0.0       0.0       0.1       0.0       0.0
 3 C  s               0.0       9.8      11.6       5.3       0.0       0.2
 3 C  pz              0.0       7.8       5.0       1.3       0.4       0.1
 3 C  px              0.0       0.0       0.3       4.3       0.6       8.9
 3 C  py              0.0       0.1       0.3       0.1      15.5       0.4
 3 C  dz2             0.0       0.7       0.2       0.1       0.0       0.0
 3 C  dyz             0.0       0.0       0.0       0.0       0.1       0.0
 3 C  dx2y2           0.0       0.0       0.0       0.0       0.2       0.0
 3 C  dxy             0.0       0.0       0.0       0.0       0.1       0.2
 4 C  s               0.0       0.9       6.3       9.7      15.3      10.1
 4 C  pz              0.0       0.4       0.1       0.0       0.0       0.0
 4 C  px              0.0       0.8       1.2       0.2       0.0       1.1
 4 C  py              0.0       0.4       0.4       0.4       0.9       0.0
 5 C  s               0.0       0.9       6.9       7.1      27.1       0.7
 5 C  pz              0.0       0.8       0.0       0.0       0.0       0.0
 5 C  px              0.0       0.0       0.1       0.2       0.0       0.5
 5 C  py              0.0       0.8       1.5       0.5       0.8       0.0
 6 O  s               0.0      58.0       4.5       1.5       0.0       0.0
 6 O  pz              0.0       1.1       2.9       1.3       0.0       0.3
 6 O  px              0.0       1.4       0.3       0.1       0.0       0.5
 6 O  py              0.0       0.1       0.2       0.1       0.6       0.1
 6 O  dz2             0.0       0.3       1.0       0.4       0.0       0.2
 6 O  dxz             0.0       0.0       0.0       0.4       0.0       0.3
 6 O  dyz             0.0       0.0       0.0       0.0       0.8       0.0
 7 H  s               0.0       0.0       0.5       2.2       0.1       4.6
 7 H  px              0.0       0.0       0.0       0.1       0.0       0.3
 7 H  py              0.0       0.0       0.0       0.1       0.0       0.1
 8 H  s               0.0       0.0       0.5       2.1       0.0       4.0
 8 H  py              0.0       0.0       0.0       0.1       0.0       0.2
 9 H  s               0.0       0.0       0.5       2.1       0.1       3.8
 9 H  pz              0.0       0.0       0.0       0.1       0.0       0.1
 9 H  px              0.0       0.0       0.0       0.1       0.0       0.1
10 H  s               0.0       0.0       1.7       2.5       0.0       0.1
10 H  py              0.0       0.0       0.1       0.2       0.0       0.0
11 H  s               0.0       0.0       1.6       2.9       0.0       0.1
11 H  px              0.0       0.0       0.1       0.1       0.0       0.0
12 H  s               0.0       0.0       2.6       0.2       0.5       3.7
12 H  pz              0.0       0.0       0.2       0.0       0.0       0.3
13 H  s               0.0       0.0       2.3       0.3       0.5       3.3
13 H  pz              0.0       0.0       0.1       0.0       0.0       0.1
13 H  py              0.0       0.0       0.1       0.0       0.0       0.2
14 H  s               0.0       0.1       0.8       1.7       3.2       3.2
14 H  px              0.0       0.0       0.0       0.1       0.2       0.2
15 H  s               0.0       0.1       0.8       1.5       4.0       2.2
15 H  py              0.0       0.0       0.1       0.1       0.3       0.1
16 H  s               0.0       0.1       1.0       1.8       3.4       2.5
16 H  pz              0.0       0.0       0.1       0.2       0.3       0.2
17 H  s               0.0       0.0       0.9       1.4       6.2       0.4
17 H  px              0.0       0.0       0.1       0.1       0.4       0.0
18 H  s               0.0       0.0       1.1       1.2       6.2       0.2
18 H  pz              0.0       0.0       0.1       0.1       0.5       0.0
19 H  s               0.0       0.1       0.9       1.0       6.7       0.1
19 H  px              0.0       0.0       0.0       0.0       0.3       0.0
19 H  py              0.0       0.0       0.0       0.0       0.2       0.0
20 H  s               0.0      10.1       1.6       0.4       0.0       0.1
20 H  pz              0.0       0.5       0.0       0.0       0.0       0.0
20 H  px              0.0       1.4       0.3       0.1       0.0       0.0
20 H  py              0.0       0.4       0.1       0.0       0.0       0.0

                     12        13        14        15        16        17   
                  -0.56911  -0.51896  -0.45857  -0.43761  -0.41117  -0.39144
                   2.00000   2.00000   2.00000   2.00000   2.00000   2.00000
                  --------  --------  --------  --------  --------  --------
 0 C  s               8.1       2.5       0.1       0.0       0.0       0.1
 0 C  pz              4.3       4.4       0.0       0.1       2.0       0.1
 0 C  px              0.3       0.3       1.1       1.5       5.9       0.4
 0 C  py              0.2       0.0       0.5       4.7       0.2      11.1
 1 C  s               9.7       5.8       0.0       0.0       0.1       0.2
 1 C  pz              6.3       2.0       0.9       0.1       2.8       1.3
 1 C  px              0.0       1.1       0.3       3.3       9.7       1.5
 1 C  py              0.1       2.0       1.1      12.2       0.7       6.5
 2 C  s               0.0       6.4       0.1       0.2       0.5       0.6
 2 C  pz              3.0       0.9       5.0       0.3       0.1       2.3
 2 C  px              6.0       0.4       3.2       3.3       5.0       0.4
 2 C  py              0.0       6.1       1.5       8.2       2.5       0.6
 2 C  dxy             0.2       0.0       0.0       0.0       0.0       0.0
 3 C  s               5.1       4.0       3.6       0.2       0.0       0.0
 3 C  pz              0.4       3.7       9.6       2.3       0.1       1.8
 3 C  px              2.6       0.0       3.2       8.0       0.1       0.3
 3 C  py              0.4       0.7       0.2       0.1      11.6       0.1
 3 C  dxz             0.0       0.1       0.1       0.0       0.0       0.3
 4 C  s               2.8       0.1       1.1       0.4       0.2       0.0
 4 C  pz              0.1       0.7       0.8       3.6       0.1      16.1
 4 C  px              2.4       0.3       4.8       0.2      12.2       0.0
 4 C  py              0.2       0.7       6.7       5.2       2.8       0.6
 4 C  dz2             0.0       0.0       0.0       0.1       0.0       0.1
 4 C  dxy             0.0       0.0       0.2       0.0       0.0       0.0
 5 C  s               1.2       1.2       1.4       0.1       0.4       0.0
 5 C  pz              0.4       1.5       0.1       2.5       9.5       7.7
 5 C  px              0.2       0.3       0.1      10.3       0.3       0.9
 5 C  py              1.1       1.4      13.7       0.0       2.2       5.0
 5 C  dx2y2           0.0       0.0       0.2       0.0       0.0       0.0
 6 O  s               0.3       0.3       0.9       1.3       0.6       2.1
 6 O  pz              9.3      17.8       3.9       2.7       0.2       0.9
 6 O  px              3.0       1.6       9.6       4.7       0.0       7.3
 6 O  py              1.4       1.4       3.2       0.1       7.4       0.3
 6 O  dz2             0.5       0.6       0.3       0.0       0.0       0.1
 6 O  dxz             0.0       0.3       0.1       0.6       0.0       0.1
 6 O  dyz             0.0       0.0       0.0       0.0       0.6       0.0
 6 O  dx2y2           0.0       0.0       0.1       0.0       0.2       0.0
 6 O  dxy             0.0       0.1       0.1       0.1       0.1       0.0
 7 H  s               2.9       1.0       0.6       0.0       2.1       2.3
 7 H  px              0.1       0.0       0.0       0.0       0.0       0.1
 8 H  s               3.2       2.0       0.0       1.2       0.1       1.8
 8 H  py              0.2       0.1       0.0       0.0       0.0       0.0
 9 H  s               3.4       1.4       0.0       1.4       1.5       1.0
 9 H  px              0.1       0.1       0.0       0.0       0.0       0.1
10 H  s               4.1       4.3       0.4       3.5       0.7       2.7
10 H  py              0.3       0.2       0.0       0.0       0.0       0.0
11 H  s               4.6       2.7       0.0       2.8       2.6       1.5
11 H  px              0.2       0.1       0.0       0.0       0.0       0.0
11 H  py              0.1       0.1       0.0       0.0       0.1       0.0
12 H  s               0.1       5.3       0.8       0.0       0.1       2.2
12 H  pz              0.0       0.3       0.0       0.0       0.0       0.1
13 H  s               0.1       4.2       2.5       3.2       0.0       0.1
13 H  pz              0.0       0.2       0.0       0.1       0.0       0.0
13 H  py              0.0       0.1       0.1       0.1       0.0       0.0
14 H  s               1.8       0.0       1.4       0.2       5.7       0.7
14 H  py              0.0       0.0       0.1       0.0       0.0       0.0
15 H  s               0.9       0.1       4.1       1.0       1.2       2.2
15 H  py              0.0       0.0       0.1       0.0       0.0       0.1
16 H  s               1.3       0.5       0.2       2.9       0.4       6.8
16 H  pz              0.1       0.0       0.0       0.1       0.0       0.1
17 H  s               0.8       0.8       1.7       4.0       0.2       0.4
17 H  px              0.0       0.0       0.1       0.1       0.0       0.0
18 H  s               0.7       1.4       0.4       0.8       4.9       3.7
18 H  pz              0.0       0.1       0.0       0.0       0.1       0.1
19 H  s               0.5       0.3       4.3       1.1       0.0       3.6
19 H  px              0.0       0.0       0.2       0.0       0.0       0.1
20 H  s               3.5       4.5       4.0       0.0       0.1       0.5
20 H  px              0.2       0.3       0.1       0.1       0.0       0.0

                     18        19        20        21        22        23   
                  -0.38516  -0.37552  -0.36520  -0.34759  -0.32534  -0.32208
                   2.00000   2.00000   2.00000   2.00000   2.00000   2.00000
                  --------  --------  --------  --------  --------  --------
 0 C  s               0.2       0.0       0.0       0.0       0.0       0.0
 0 C  pz              1.2       0.6       3.6      11.6       1.7       0.4
 0 C  px             12.5       0.9       1.0       7.5       4.9       1.4
 0 C  py              0.2       8.7       3.1       3.2       0.0       7.6
 0 C  dyz             0.0       0.0       0.0       0.0       0.0       0.1
 0 C  dxy             0.0       0.0       0.0       0.2       0.1       0.0
 1 C  s               0.6       0.0       0.1       0.1       0.0       0.0
 1 C  pz              8.7       0.9       1.1       1.6       0.2       0.8
 1 C  px              2.2       2.3       0.9       2.8       0.1       0.0
 1 C  py              2.0       3.0       2.1       0.9       0.1       0.6
 2 C  s               0.0       0.2       0.0       0.4       0.3       0.1
 2 C  pz             14.9       2.1       2.7       8.4       0.1       0.1
 2 C  px              0.1       0.1       0.5       0.5       0.2       5.0
 2 C  py              0.8       0.1       2.4       2.4       4.4       4.0
 2 C  dz2             0.2       0.1       0.0       0.0       0.0       0.0
 2 C  dxy             0.0       0.0       0.0       0.1       0.0       0.0
 3 C  s               0.1       0.5       0.0       0.0       0.0       0.1
 3 C  pz              1.2       1.1       0.1       0.2       1.5       3.1
 3 C  px              0.7       0.8       0.0       1.5       5.3       1.0
 3 C  py              4.1       0.5       0.0       0.2       2.6       5.2
 3 C  dz2             0.2       0.1       0.1       0.0       0.0       0.2
 3 C  dxz             0.1       0.1       0.1       0.0       0.0       0.0
 3 C  dyz             0.1       0.0       0.2       0.0       0.0       0.0
 3 C  dx2y2           0.0       0.2       0.0       0.0       0.0       0.1
 3 C  dxy             0.0       0.0       0.0       0.1       0.2       0.0
 4 C  s               0.0       0.1       0.0       0.0       0.1       0.0
 4 C  pz              5.7       0.2      17.4       0.0       5.1       0.9
 4 C  px              3.3       2.7       2.8       9.5       1.1       0.5
 4 C  py              0.3       9.1       0.5       5.7      11.7       6.8
 4 C  dz2             0.1       0.0       0.1       0.0       0.1       0.0
 4 C  dyz             0.0       0.1       0.0       0.0       0.2       0.0
 4 C  dx2y2           0.0       0.0       0.0       0.1       0.1       0.2
 5 C  pz              2.4       5.1      14.6       0.7       0.3       6.0
 5 C  px              1.0      17.2       6.2       3.8      13.4       0.1
 5 C  py              0.0       0.1       2.0       0.4       5.1       5.6
 5 C  dz2             0.0       0.0       0.2       0.0       0.0       0.4
 5 C  dxy             0.0       0.1       0.0       0.0       0.5       0.0
 6 O  s               0.7       1.2       0.0       0.0       0.1       0.9
 6 O  pz              4.6       0.5       0.2       0.3       1.1      10.8
 6 O  px              4.0       3.7       0.6       0.0       2.9       5.4
 6 O  py              0.9       4.1       1.6       0.1       2.0       4.6
 6 O  dz2             0.0       0.2       0.0       0.1       0.1       0.1
 6 O  dxz             0.1       0.2       0.0       0.3       0.1       0.0
 6 O  dyz             0.7       0.0       0.0       0.0       0.0       0.1
 6 O  dx2y2           0.1       0.1       0.1       0.0       0.0       0.0
 6 O  dxy             0.0       0.0       0.2       0.2       0.1       0.0
 7 H  s               4.6       0.3       0.0       6.4       2.7       0.2
 8 H  s               0.6       1.9       3.4       3.7       0.2       4.3
 9 H  s               0.3       3.0       0.1       3.7       2.0       1.8
 9 H  py              0.0       0.0       0.0       0.2       0.0       0.0
10 H  s               0.1       1.5       0.2       0.0       0.5       0.7
11 H  s               3.1       1.1       0.1       0.1       0.1       0.0
12 H  s               7.8       1.7       0.3       1.4       0.2       0.0
13 H  s               1.0       0.0       1.7       5.9       0.7       1.7
13 H  py              0.1       0.0       0.0       0.1       0.0       0.0
14 H  s               0.1       2.6       5.3       7.0       0.0       3.4
14 H  px              0.0       0.0       0.1       0.0       0.0       0.0
15 H  s               0.2       4.6       0.4       3.4       8.9       2.5
16 H  s               3.8       0.0       7.1       0.0       2.4       0.8
16 H  pz              0.1       0.0       0.1       0.0       0.0       0.0
16 H  py              0.0       0.1       0.0       0.0       0.1       0.0
17 H  s               0.2       4.3       6.6       2.4       4.9       2.5
17 H  pz              0.0       0.1       0.0       0.0       0.0       0.0
17 H  px              0.0       0.0       0.1       0.0       0.0       0.0
17 H  py              0.0       0.1       0.0       0.0       0.1       0.0
18 H  s               1.0       1.9       8.2       0.4       0.1       5.6
18 H  pz              0.0       0.0       0.1       0.0       0.0       0.1
18 H  px              0.0       0.1       0.0       0.0       0.1       0.0
19 H  s               0.5       6.5       0.1       0.3       9.6       2.2
19 H  pz              0.0       0.0       0.1       0.0       0.1       0.0
19 H  py              0.0       0.2       0.0       0.0       0.0       0.0
20 H  s               1.3       1.5       0.0       0.1       0.0       0.1
20 H  pz              0.0       0.0       0.0       0.0       0.0       0.3

                     24        25        26        27        28        29   
                  -0.31247  -0.29781  -0.28911  -0.26869  -0.23196   0.05880
                   2.00000   2.00000   2.00000   2.00000   2.00000   0.00000
                  --------  --------  --------  --------  --------  --------
 0 C  s               0.1       0.8       0.0       0.0       0.1       1.5
 0 C  pz              1.0      18.5       0.6       1.7       0.1       0.2
 0 C  px              6.7       6.3       1.1       2.8       1.1       0.3
 0 C  py              5.6       1.3      10.2       0.7       0.1       0.2
 0 C  dz2             0.0       0.2       0.1       0.0       0.0       0.1
 0 C  dxz             0.2       0.1       0.0       0.1       0.0       0.0
 0 C  dyz             0.2       0.1       0.3       0.1       0.0       0.0
 0 C  dx2y2           0.0       0.0       0.1       0.0       0.0       0.0
 0 C  dxy             0.1       0.0       0.2       0.1       0.0       0.0
 1 C  s               0.1       0.1       0.3       0.0       0.0       1.2
 1 C  pz              1.7      19.3       1.4       1.6       0.1       0.4
 1 C  px              7.5       4.4       2.7       5.9       1.0       0.1
 1 C  py              2.6       0.2      17.6       1.6       0.1       0.0
 1 C  dz2             0.0       0.2       0.1       0.0       0.0       0.0
 1 C  dxz             0.2       0.3       0.0       0.2       0.0       0.0
 1 C  dyz             0.2       0.2       0.3       0.1       0.0       0.0
 1 C  dx2y2           0.0       0.0       0.3       0.0       0.0       0.0
 1 C  dxy             0.1       0.0       0.1       0.2       0.0       0.1
 2 C  s               0.5       0.0       0.4       0.2       0.0       3.3
 2 C  pz              0.2      13.3       0.2       1.4       0.0       1.4
 2 C  px              0.3       3.6       4.9      10.5       0.4       0.8
 2 C  py              4.4       0.1      11.7       2.6       0.2       0.7
 2 C  dz2             0.0       0.2       0.1       0.0       0.0       0.3
 2 C  dxz             0.0       0.2       0.0       0.1       0.0       0.0
 2 C  dyz             0.0       0.4       0.0       0.0       0.0       0.1
 2 C  dx2y2           0.0       0.0       0.4       0.1       0.1       0.1
 2 C  dxy             0.1       0.0       0.0       0.1       0.1       0.0
 3 C  s               0.2       0.1       0.1       0.2       0.0       1.3
 3 C  pz              3.7       0.2       0.1       0.1       0.1       6.3
 3 C  px              0.8       0.0       0.1      11.9       1.6       1.0
 3 C  py              0.7       0.0       1.8       3.2       4.4       0.4
 3 C  dz2             0.2       0.1       0.0       0.0       0.1       0.5
 3 C  dxz             0.1       0.0       0.0       0.3       0.1       0.0
 3 C  dyz             0.1       0.0       0.0       0.3       0.9       0.1
 3 C  dx2y2           0.1       0.0       0.1       0.1       0.2       0.0
 3 C  dxy             0.0       0.0       0.1       0.2       0.4       0.1
 4 C  s               0.0       0.0       0.2       0.2       1.3       4.7
 4 C  pz              4.3       0.8       0.2       0.1       0.8       0.5
 4 C  px              0.3       0.3       1.4       3.9       5.0       2.9
 4 C  py              0.2       0.0       0.5       0.1       2.9       1.0
 4 C  dz2             0.2       0.0       0.0       0.0       0.1       0.3
 4 C  dx2y2           0.0       0.0       0.0       0.2       0.0       0.0
 4 C  dxy             0.0       0.0       0.0       0.1       0.0       0.2
 5 C  s               0.2       0.0       0.0       0.3       0.9       5.5
 5 C  pz              1.0       0.0       0.1       1.2       2.4       1.1
 5 C  px              1.1       0.1       0.3       1.3       0.1       0.9
 5 C  py              3.0       0.4       2.2       3.4       4.7       1.1
 5 C  dz2             0.0       0.0       0.0       0.0       0.1       0.3
 5 C  dx2y2           0.1       0.0       0.0       0.0       0.0       0.2
 5 C  dxy             0.0       0.0       0.0       0.1       0.0       0.0
 6 O  s               1.1       0.2       0.0       2.0       0.0       6.1
 6 O  pz              6.8       0.5       0.8       3.2       1.1       1.6
 6 O  px             14.8       0.3       0.2       7.5      11.9       3.8
 6 O  py              0.3       0.0       4.9       5.5      50.7       0.9
 6 O  dz2             0.0       0.0       0.0       0.0       0.0       1.8
 6 O  dxz             0.3       0.0       0.0       1.1       0.2       1.3
 6 O  dyz             0.0       0.1       0.0       0.5       0.8       0.1
 6 O  dx2y2           0.0       0.0       0.0       0.1       0.0       0.4
 6 O  dxy             0.3       0.1       0.1       0.1       0.0       1.1
 7 H  s               0.9       2.3       5.2       1.2       0.5       0.5
 7 H  pz              0.0       0.2       0.0       0.0       0.0       0.0
 7 H  py              0.1       0.0       0.0       0.0       0.0       0.0
 8 H  s               2.9       1.2       6.7       0.2       0.0       0.1
 8 H  pz              0.1       0.1       0.0       0.0       0.0       0.0
 9 H  s               8.4       0.4       0.2       3.9       0.5       0.4
 9 H  pz              0.0       0.1       0.0       0.0       0.0       0.0
 9 H  px              0.0       0.1       0.0       0.0       0.0       0.2
10 H  s               0.9       4.0      11.3       1.0       0.0       0.2
10 H  py              0.0       0.1       0.0       0.0       0.0       0.0
11 H  s               7.8       0.7       0.6       7.7       0.3       0.3
11 H  pz              0.0       0.1       0.0       0.0       0.0       0.0
11 H  px              0.0       0.1       0.1       0.0       0.0       0.1
11 H  py              0.0       0.0       0.1       0.0       0.0       0.0
12 H  s               0.0      11.5       0.7       0.3       0.1       2.7
12 H  pz              0.0       0.1       0.0       0.0       0.0       0.8
12 H  px              0.0       0.0       0.0       0.1       0.0       0.0
13 H  s               0.9       4.2       5.2       1.1       0.2       0.4
13 H  pz              0.0       0.0       0.0       0.0       0.0       0.2
13 H  px              0.0       0.0       0.1       0.1       0.0       0.0
13 H  py              0.0       0.1       0.0       0.0       0.0       0.0
14 H  s               0.3       0.5       0.4       1.7       0.0       1.0
14 H  pz              0.0       0.0       0.0       0.0       0.0       0.4
14 H  py              0.0       0.0       0.0       0.0       0.0       0.6
15 H  s               0.5       0.0       0.2       0.5       0.2       0.3
15 H  px              0.0       0.0       0.0       0.0       0.1       0.3
16 H  s               3.3       0.4       0.1       0.1       0.9       3.0
16 H  pz              0.0       0.0       0.0       0.0       0.0       0.8
17 H  s               0.9       0.0       0.0       1.2       0.0       1.0
17 H  pz              0.0       0.0       0.0       0.0       0.0       0.4
17 H  px              0.0       0.0       0.0       0.0       0.0       0.4
18 H  s               0.2       0.0       0.2       0.4       0.9       3.3
18 H  pz              0.0       0.0       0.0       0.0       0.0       0.7
19 H  s               0.1       0.1       1.2       0.2       0.2       0.2
19 H  pz              0.0       0.0       0.0       0.0       0.0       0.2
19 H  px              0.0       0.0       0.0       0.0       0.0       0.2
20 H  s               0.4       0.2       0.0       1.8       0.0      19.5
20 H  pz              0.2       0.0       0.0       0.2       0.0       0.8
20 H  px              0.1       0.0       0.0       0.0       0.2       3.0
20 H  py              0.0       0.0       0.1       0.0       1.0       0.8

                     30        31        32        33        34        35   
                   0.10260   0.11275   0.12233   0.13019   0.13309   0.14372
                   0.00000   0.00000   0.00000   0.00000   0.00000   0.00000
                  --------  --------  --------  --------  --------  --------
 0 C  s               8.4       0.4       1.3       0.0      21.4       0.2
 0 C  pz              3.1       0.2       0.4       0.5       7.0       0.0
 0 C  px              0.5       0.6       0.0       0.8       6.6       0.2
 0 C  py              0.5       0.8       1.3       3.1       1.9       1.0
 0 C  dz2             0.4       0.0       0.0       0.1       0.2       0.0
 0 C  dxz             0.1       0.1       0.1       0.0       0.2       0.1
 0 C  dyz             0.0       0.1       0.0       0.1       0.0       0.1
 0 C  dx2y2           0.1       0.0       0.2       0.0       0.0       0.0
 1 C  s              12.0       4.0       1.1       0.3       2.3       0.1
 1 C  pz              2.1       5.0       0.2       0.0      11.5       0.2
 1 C  px              1.7       3.0       2.3       1.4       3.1       1.0
 1 C  py              0.3       0.8       1.5       5.0       1.7       1.8
 1 C  dz2             0.1       0.0       0.1       0.0       0.8       0.0
 1 C  dxz             0.1       0.2       0.1       0.0       0.7       0.0
 1 C  dyz             0.0       0.0       0.1       0.3       0.0       0.0
 1 C  dx2y2           0.0       0.1       0.2       0.0       0.0       0.1
[...]
 1 C  dxz             2.5       0.0       0.0       0.0       0.0       0.0
 1 C  dyz             8.6       0.0       0.0       0.0       0.0       0.0
 1 C  dx2y2           2.8       0.0       0.0       0.0       0.0       0.0
 1 C  dxy             0.6       0.0       0.0       0.0       0.0       0.0
 2 C  s               0.4       0.1       0.0       5.2       0.2       0.1
 2 C  pz              4.0       0.1       0.0       0.0       0.0       0.0
 2 C  px              0.4       0.1       0.1       0.0       0.0       0.0
 2 C  py              1.1       0.2       0.0       0.0       0.0       0.0
 2 C  dz2             1.0       0.5       0.0       0.0       0.0       0.0
 2 C  dyz             8.9       0.0       0.0       0.0       0.0       0.0
 2 C  dx2y2           1.6       0.1       0.0       0.0       0.0       0.0
 2 C  dxy             0.2       0.0       0.0       0.0       0.0       0.0
 3 C  s               0.2       0.9       0.2       2.1       0.5       2.5
 3 C  pz              0.0       9.4       0.9       0.0       0.0       0.0
 3 C  px              0.4       0.3       0.0       0.0       0.0       0.0
 3 C  py              0.1       0.1       0.0       0.0       0.0       0.0
 3 C  dz2             0.0      11.3       1.2       0.0       0.0       0.0
 3 C  dxz             0.0       0.5       0.2       0.0       0.0       0.0
 3 C  dyz             0.2       0.5       0.0       0.0       0.0       0.0
 3 C  dx2y2           0.2       0.0       0.0       0.0       0.0       0.0
 3 C  dxy             0.1       0.0       0.0       0.0       0.0       0.0
 4 C  s               0.0       0.1       0.0      15.7      51.0      29.2
 4 C  px              0.0       0.2       0.0       0.0       0.0       0.0
 4 C  dz2             0.2       0.6       0.0       0.0       0.0       0.0
 4 C  dxy             0.1       0.2       0.0       0.0       0.0       0.0
 5 C  s               0.0       0.1       0.0      36.1       4.5      50.8
 5 C  py              0.2       0.2       0.0       0.0       0.0       0.0
 5 C  dz2             0.2       0.6       0.0       0.0       0.0       0.0
 5 C  dx2y2           0.1       0.2       0.0       0.0       0.0       0.0
 5 C  dxy             0.1       0.0       0.0       0.0       0.0       0.0
 6 O  s               0.7      29.0       7.7       0.0       0.0       0.0
 6 O  pz              0.0      18.3       6.6       0.0       0.0       0.0
 6 O  px              0.1       1.8      10.3       0.0       0.0       0.0
 6 O  py              0.0       0.1       3.2       0.0       0.0       0.0
 6 O  dz2             0.2      17.6       7.1       0.0       0.0       0.0
 6 O  dxz             0.3       0.2      11.3       0.0       0.0       0.0
 6 O  dyz             0.0       1.8       1.8       0.0       0.0       0.0
 6 O  dx2y2           0.0       0.7       6.1       0.0       0.0       0.0
 6 O  dxy             0.1       1.1      12.5       0.0       0.0       0.0
 7 H  s               0.2       0.0       0.0       0.0       0.0       0.0
 7 H  px              0.5       0.0       0.0       0.0       0.0       0.0
 8 H  pz              0.3       0.0       0.0       0.0       0.0       0.0
 9 H  s               0.8       0.0       0.0       0.0       0.0       0.0
 9 H  pz              0.5       0.0       0.0       0.0       0.0       0.0
 9 H  px              0.3       0.0       0.0       0.0       0.0       0.0
 9 H  py              1.4       0.0       0.0       0.0       0.0       0.0
10 H  s               3.9       0.0       0.0       0.0       0.0       0.0
10 H  pz              4.3       0.0       0.0       0.0       0.0       0.0
10 H  px              0.1       0.0       0.0       0.0       0.0       0.0
10 H  py              5.2       0.0       0.0       0.0       0.0       0.0
11 H  s               3.9       0.0       0.0       0.0       0.0       0.0
11 H  pz              2.1       0.0       0.0       0.0       0.0       0.0
11 H  px              4.3       0.0       0.0       0.0       0.0       0.0
11 H  py              2.1       0.0       0.0       0.0       0.0       0.0
12 H  s               2.3       0.1       0.0       0.0       0.0       0.0
12 H  pz              3.3       0.2       0.0       0.0       0.0       0.0
12 H  px              0.4       0.0       0.0       0.0       0.0       0.0
12 H  py              0.6       0.0       0.0       0.0       0.0       0.0
13 H  s               4.4       0.0       0.0       0.0       0.0       0.0
13 H  pz              2.0       0.0       0.0       0.0       0.0       0.0
13 H  py              8.8       0.0       0.0       0.0       0.0       0.0
15 H  py              0.2       0.0       0.0       0.0       0.0       0.0
16 H  s               0.1       0.1       0.0       0.0       0.0       0.0
16 H  pz              0.2       0.3       0.0       0.0       0.0       0.0
18 H  s               0.1       0.1       0.0       0.0       0.0       0.0
18 H  pz              0.1       0.3       0.0       0.0       0.0       0.0
19 H  s               0.1       0.0       0.0       0.0       0.0       0.0
19 H  px              0.3       0.0       0.0       0.0       0.0       0.0
20 H  s               0.0       0.4      14.1       0.0       0.0       0.0
20 H  pz              0.0       0.3       2.5       0.0       0.0       0.0
20 H  px              0.1       0.3      10.7       0.0       0.0       0.0
20 H  py              0.0       0.1       3.0       0.0       0.0       0.0

                    204       205       206       207   
                  22.06520  22.08460  22.19991  43.77900
                   0.00000   0.00000   0.00000   0.00000
                  --------  --------  --------  --------
 0 C  s               0.9       1.8       4.0       0.0
 1 C  s               5.6      79.9       6.0       0.0
 2 C  s              82.8       2.2       9.2       0.0
 3 C  s               8.3       7.6      78.7       0.1
 4 C  s               1.6       0.7       1.4       0.0
 5 C  s               0.5       7.3       0.4       0.0
 6 O  s               0.0       0.0       0.1      99.8


                      *****************************
                      * MAYER POPULATION ANALYSIS *
                      *****************************

  NA   - Mulliken gross atomic population
  ZA   - Total nuclear charge
  QA   - Mulliken gross atomic charge
  VA   - Mayer's total valence
  BVA  - Mayer's bonded valence
  FA   - Mayer's free valence

  ATOM       NA         ZA         QA         VA         BVA        FA
  0 C      6.4804     6.0000    -0.4804     3.7995     3.7995     0.0000
  1 C      6.2754     6.0000    -0.2754     3.6603     3.6603     0.0000
  2 C      6.2780     6.0000    -0.2780     3.5755     3.5755    -0.0000
  3 C      5.8301     6.0000     0.1699     3.5227     3.5227    -0.0000
  4 C      6.4685     6.0000    -0.4685     3.7672     3.7672     0.0000
  5 C      6.5183     6.0000    -0.5183     3.7581     3.7581     0.0000
  6 O      8.4008     8.0000    -0.4008     1.7187     1.7187    -0.0000
  7 H      0.8614     1.0000     0.1386     0.9621     0.9621     0.0000
  8 H      0.8605     1.0000     0.1395     0.9663     0.9663    -0.0000
  9 H      0.8255     1.0000     0.1745     0.9592     0.9592     0.0000
 10 H      0.8561     1.0000     0.1439     0.9649     0.9649     0.0000
 11 H      0.8577     1.0000     0.1423     0.9593     0.9593     0.0000
 12 H      0.8556     1.0000     0.1444     0.9638     0.9638     0.0000
 13 H      0.8416     1.0000     0.1584     0.9654     0.9654     0.0000
 14 H      0.8603     1.0000     0.1397     0.9668     0.9668     0.0000
 15 H      0.8404     1.0000     0.1596     0.9616     0.9616     0.0000
 16 H      0.8483     1.0000     0.1517     0.9647     0.9647     0.0000
 17 H      0.8576     1.0000     0.1424     0.9655     0.9655     0.0000
 18 H      0.8394     1.0000     0.1606     0.9603     0.9603     0.0000
 19 H      0.8285     1.0000     0.1715     0.9557     0.9557     0.0000
 20 H      0.7156     1.0000     0.2844     0.9159     0.9159     0.0000

  Mayer bond orders larger than 0.100000
B(  0-C ,  1-C ) :   0.8980 B(  0-C ,  7-H ) :   0.9740 B(  0-C ,  8-H ) :   0.9774 
B(  0-C ,  9-H ) :   0.9764 B(  1-C ,  2-C ) :   0.9029 B(  1-C , 10-H ) :   0.9851 
B(  1-C , 11-H ) :   0.9692 B(  2-C ,  3-C ) :   0.9157 B(  2-C , 12-H ) :   0.9722 
B(  2-C , 13-H ) :   0.9811 B(  3-C ,  4-C ) :   0.9481 B(  3-C ,  5-C ) :   0.9172 
B(  3-C ,  6-O ) :   0.8374 B(  4-C , 14-H ) :   0.9690 B(  4-C , 15-H ) :   0.9754 
B(  4-C , 16-H ) :   0.9774 B(  5-C , 17-H ) :   0.9591 B(  5-C , 18-H ) :   0.9745 
B(  5-C , 19-H ) :   0.9746 B(  6-O , 20-H ) :   0.9025 

-------
TIMINGS
-------

Total SCF time: 0 days 0 hours 0 min 25 sec 

Total time                  ....      25.027 sec
Sum of individual times     ....      24.514 sec  ( 97.9%)

SCF preparation             ....       0.204 sec  (  0.8%)
Fock matrix formation       ....      23.220 sec  ( 92.8%)
  Startup                   ....       0.067 sec  (  0.3% of F)
  Split-RI-J                ....       4.269 sec  ( 18.4% of F)
  XC integration            ....      18.247 sec  ( 78.6% of F)
    XC Preparation          ....       0.000 sec  (  0.0% of XC)
    Basis function eval.    ....       3.425 sec  ( 18.8% of XC)
    Density eval.           ....       5.522 sec  ( 30.3% of XC)
    XC-Functional eval.     ....       2.272 sec  ( 12.5% of XC)
    XC-Potential eval.      ....       5.998 sec  ( 32.9% of XC)
Diagonalization             ....       0.000 sec  (  0.0%)
Density matrix formation    ....       0.295 sec  (  1.2%)
Total Energy calculation    ....       0.051 sec  (  0.2%)
Population analysis         ....       0.122 sec  (  0.5%)
Orbital Transformation      ....       0.063 sec  (  0.2%)
Orbital Orthonormalization  ....       0.000 sec  (  0.0%)
DIIS solution               ....       0.503 sec  (  2.0%)
  MO trafo                  ....       0.000 sec  (  0.0 % of DIIS)
  Orb grad                  ....       0.000 sec  (  0.0 % of DIIS)
  Energy W gradient         ....       0.000 sec  (  0.0 % of DIIS)
  DIIS error                ....       0.011 sec  (  2.2 % of DIIS)
  DIIS work                 ....       0.433 sec  ( 86.2 % of DIIS)
  Form Q                    ....       0.000 sec  (  0.0 % of DIIS)
  Form QpQm                 ....       0.000 sec  (  0.0 % of DIIS)
  Exp/Cayley                ....       0.000 sec  (  0.0 % of DIIS)
  Orb update                ....       0.000 sec  (  0.0 % of DIIS)
  Wake-sleep                ....       0.026 sec  (  5.1 % of DIIS)
SOSCF solution              ....       0.057 sec  (  0.2%)
  MO trafo                  ....       0.042 sec  ( 74.1 % of SOSCF)
  Orb grad                  ....       0.001 sec  (  1.7 % of SOSCF)
  Rot update                ....       0.000 sec  (  0.1 % of SOSCF)
  Step                      ....       0.014 sec  ( 24.0 % of SOSCF)
Finished LeanSCF after  25.1 sec

Maximum memory used throughout the entire LEANSCF-calculation: 23.6 MB


-------------------------------------------------------------------------------
                          DFT DISPERSION CORRECTION                            
                                                                               
                                DFTD4 V3.4.0                                   
-------------------------------------------------------------------------------
The R2SCAN3C composite method is recognized
Using three-body term ABC
Active option DFTDOPT                   ...         5   

-------------------------   ----------------
Dispersion correction           -0.005776253
-------------------------   ----------------

------------------   -----------------
gCP correction             0.011074907
------------------   -----------------

-------------------------   --------------------
FINAL SINGLE POINT ENERGY      -312.205237114723
-------------------------   --------------------


------------------------------------------------------------------------------
                              ORCA PROPERTY CALCULATIONS
------------------------------------------------------------------------------

GBWName                                 ... sp_gas.gbw
Number of atoms                         ...     21
Number of basis functions               ...    208
Max core memory                         ...   1024 MB

Electric properties:
Dipole moment                           ... YES
Quadrupole moment                       ...  NO
Static polarizability (Dipole/Dipole)   ...  NO
Static polarizability (Dipole/Quad.)    ...  NO
Static polarizability (Quad./Quad.)     ...  NO
Static polarizability (Velocity)        ...  NO

Atomic electric properties:
Dipole moment                           ...  NO
Quadrupole moment                       ...  NO
Static polarizability                   ...  NO

Choice of electric origin               ... Center of mass
Position of electric origin             ...    -0.000006    -0.000001    -0.000015

General magnetic properties:
Magnetizability                         ...  NO

EPR properties:
g-Tensor (aka g-matrix)                 ...  NO
Zero-Field splitting spin-orbit         ...  NO
Zero-field splitting spin-spin          ...  NO
Hyperfine couplings                     ...  NO (   0 nuclei)
Quadrupole couplings                    ...  NO (   0 nuclei)
Contact density                         ...  NO (   0 nuclei)

NMR properties:
Chemical shifts                         ...  NO (   0 nuclei)
Spin-rotation constants                 ...  NO (   0 nuclei)
Spin-spin couplings                     ...  NO (   0 nuclei,    0 pairs)

Choice of magnetic origin               ... GIAO
Position of magnetic origin             ...     0.000000     0.000000     0.000000

Properties with geometric perturbations:
SCF Hessian                             ...  NO
IR spectrum                             ...  NO
VCD spectrum                            ...  NO
X-ray spectroscopy properties:
SCF XES/XAS/RIXS spectra                ...  NO


-------------
DIPOLE MOMENT
-------------

Method             : SCF
Type of density    : Electron Density
Multiplicity       :   1
Irrep              :   0
Energy             :  -312.2105357684820888 Eh
Relativity type    : 
Basis              : AO
                                X                 Y                 Z
Electronic contribution:      1.237490751       0.477643070       2.288045485
Nuclear contribution   :     -0.736472351      -0.612863057      -2.591016039
                        -----------------------------------------
Total Dipole Moment    :      0.501018400      -0.135219987      -0.302970554
                        -----------------------------------------
Magnitude (a.u.)       :      0.600911840
Magnitude (Debye)      :      1.527396512



--------------------
Rotational spectrum 
--------------------
 
Rotational constants in cm-1:             0.130449             0.057378             0.055367 
Rotational constants in MHz :          3910.749894          1720.147082          1659.875199 

Dipole components along the rotational axes: 
x,y,z [a.u.] :     0.502002    -0.224956     0.241835 
x,y,z [Debye]:     1.275987    -0.571793     0.614695 

 

Dipole moment calculation done in   0.0 sec 

Maximum memory used throughout the entire PROP-calculation: 13.1 MB

--------------------------------
SUGGESTED CITATIONS FOR THIS RUN
--------------------------------

Below you find a list of papers that are relevant to this ORCA run
We neither can nor want to force you to cite these papers, but we appreciate if you do
You receive ORCA, which is the product of decades of hard work by many enthusiastic individuals, for free
The only thing we kindly ask in return is that you cite our papers,
We deeply appreciate it, if you show your appreciation for ORCA by not just citing the generic ORCA reference.

Please note that relegating all ORCA citations to the supporting information does *not* help us.
SI sections are not indexed - citations you put there will not count into any citation statistics
But we need these citations in order to attract the funding resources that allow us to do what we are doing

Therefore, if you are a happy ORCA user, please consider citing a few of the papers listed below in the main body of your paper

In addition to the list printed below, the program has created the file sp_gas.bibtex that contains the list in bibtex format
You can import this file easily into all common literature databanks and citation aid programs


List of essential papers. We consider these as the minimum necessary citations

  1. Neese,F.
     Software update: the ORCA program system, version 5.0
     WIRES Comput. Molec. Sci., 2022 12(1)e1606
     doi.org/10.1002/wcms.1606
  2. Grimme,S.; Hansen,A.; Ehlert,S.; Mewes,J.
     r2SCAN-3c: A 'Swiss army knife' composite electronic-structure method
     J. Chem. Phys., 2021 154 064103
     doi.org/10.1063/5.0040021

List of papers to cite with high priority. The work reported in these papers was absolutely
necessary for this run to complete.
Our perspective: the developers of density functionals and basis sets usually get cited in chemistry papers
Good! But without the algorithms to do something with them, the functionals or basis sets would not do anything.
Hence, in our opinion, the algorithm design and method developments papers are equally worthy of getting cited

  1. Neese,F.
     An improvement of the resolution of the identity approximation for the formation of the Coulomb matrix
     J. Comp. Chem., 2003 24(14)1740-1747
     doi.org/10.1002/jcc.10318
  2. Neese,F.
     The SHARK Integral Generation and Digestion System
     J. Comp. Chem., 2022  1-16
     doi.org/10.1002/jcc.26942
  3. Lehtola,S.; Steigemann,C.; Oliveira,M.; Marques,M.
     Recent developments in Libxc - A comprehensive library of functionals for density functional theory
     Software X, 2018 7 
     doi.org/10.1016/j.softx.2017.11.002
  4. Caldeweyher,E.; Bannwarth,C.; Grimme,S.
     Extension of the D3 dispersion coefficient model
     J. Chem. Phys., 2017 147 034112-XXXX
     doi.org/10.1063/1.4993215
  5. Caldeweyher,E.; Ehlert,S.; Hansen,A.; Neugebauer,H.; Spicher,S.; Bannwarth,C.; Grimme,S.
     A generally applicable atomic-charge dependent London dispersion correction
     J. Chem. Phys., 2019 150 154122-XXXX
     doi.org/10.1063/1.5090222
  6. Caldeweyher,E.; Mewes,J.; Ehlert,S.; Grimme,S.
     Extension and evaluation of the D4 London-dispersion model for periodic systems
     Phys. Chem. Chem. Phys., 2020 22(16)8499-8512
     doi.org/10.1039/D0CP00502A

List of suggested additional citations. These are papers that are important in the 'surrounding' of 
of this run, or papers that preceded the highly important papers. If you like your results we are grateful for a citation.

  1. Neese,F.
     The ORCA program system
     WIRES Comput. Molec. Sci., 2012 2(1)73-78
     doi.org/10.1002/wcms.81
  2. Neese,F.
     Software update: the ORCA program system, version 4.0
     WIRES Comput. Molec. Sci., 2018 8(1)1-6
     doi.org/10.1002/wcms.1327
  3. Neese,F.; Wennmohs,F.; Becker,U.; Riplinger,C.
     The ORCA quantum chemistry program package
     J. Chem. Phys., 2020 152 Art. No. L224108
     doi.org/10.1063/5.0004608

List of optional additional citations

  1. Neese,F.
     Approximate second-order SCF convergence for spin unrestricted wavefunctions
     Chem. Phys. Lett., 2000 325(1-3)93-98
     doi.org/10.1016/s0009-2614(00)00662-x

Timings for individual modules:

Sum of individual times          ...       26.828 sec (=   0.447 min)
Startup calculation              ...        1.302 sec (=   0.022 min)   4.9 %
SCF iterations                   ...       25.422 sec (=   0.424 min)  94.8 %
Property calculations            ...        0.104 sec (=   0.002 min)   0.4 %
                             ****ORCA TERMINATED NORMALLY****
TOTAL RUN TIME: 0 days 0 hours 0 minutes 27 seconds 584 msec
