22
 energy: -350.308014224098 gnorm: 0.002471946630 xtb: 6.7.1 (edcfbbe)
C            2.37450206722890        0.89169523316211        0.56281514278907
C            1.16535413148051       -0.03454250190143        0.50112124112623
C            1.42810586279595       -1.21881438467951       -0.45347211333237
C           -0.08102201724536        0.67660984738723        0.01672551828410
O            0.00442994650144        1.69234235234668       -0.67049677782188
C           -1.46552607635333        0.10996078439391        0.31557539318209
C           -1.53520548803371       -0.91574520617253        1.44393216774948
C           -2.06679501047121       -0.44637918822080       -0.99042304997488
H            3.23663781964675        0.34401379669230        0.95526686114147
H            2.18638630221382        1.74863765420397        1.21686974260427
H            2.63455638009467        1.26934789484271       -0.43032501965225
H            0.96142578967982       -0.44198344579740        1.49674642341909
H            2.32201479541853       -1.75535444410772       -0.12157522382328
H            0.59497089370171       -1.92559243647600       -0.47820272244589
H            1.60231623421347       -0.85146996247595       -1.47044507226374
H           -2.06226943541523        0.98802330238882        0.59998891345576
H           -0.94762220314912       -1.81081548535437        1.22163232819284
H           -1.18374332124734       -0.49750373975080        2.39127069431465
H           -2.57299096751180       -1.22960151197795        1.58292562419210
H           -2.05186377512773        0.30599673486609       -1.78342990713330
H           -1.51052137129872       -1.32542475147844       -1.33148393700181
H           -3.10455268253029       -0.74518484601154       -0.81494298245363
22
 energy: -350.308041594191 gnorm: 0.001165852199 xtb: 6.7.1 (edcfbbe)
C            2.37323931923900        0.89222220040740        0.56136157570358
C            1.16501072939921       -0.03517200183868        0.50106034433147
C            1.42838605023475       -1.21925843696406       -0.45295451408312
C           -0.08087687113511        0.67746001366111        0.01812999311299
O            0.00441786248610        1.69763945220911       -0.66212790501903
C           -1.46501277006421        0.10998055469776        0.31528356127562
C           -1.53671989182887       -0.91580502309768        1.44338617265619
C           -2.06472689068045       -0.44714746478893       -0.98987638317782
H            3.23610247149317        0.34612976475095        0.95456396932259
H            2.18531924134898        1.75069379321729        1.21356308578353
H            2.63329006630679        1.26818659294733       -0.43248681574719
H            0.96305322273280       -0.44303128995729        1.49704662522557
H            2.32307441336876       -1.75509751551943       -0.12180003711978
H            0.59661026322192       -1.92741823955339       -0.47735880826359
H            1.60172238136488       -0.85279242775400       -1.47039258041832
H           -2.06140384895114        0.98776379162888        0.59902029297974
H           -0.95365171050104       -1.81395146797736        1.21801041721887
H           -1.18007496366920       -0.50008172789587        2.39047364997262
H           -2.57685321828072       -1.22476330905124        1.58545257996175
H           -2.04897861440736        0.30448745197043       -1.78358645853744
H           -1.51015363594283       -1.32719438167851       -1.33043903264638
H           -3.10318560804298       -0.74463451498959       -0.81625661848637
22
 energy: -350.308083487844 gnorm: 0.003452851264 xtb: 6.7.1 (edcfbbe)
C            2.37148711146766        0.89320399933563        0.55413853172832
C            1.16470644097807       -0.03619861542555        0.50056693833442
C            1.42771677950958       -1.22048895546467       -0.45117082766976
C           -0.08216635526030        0.68335824487568        0.03106237443132
O            0.00145580425939        1.71906711595106       -0.62490242048002
C           -1.46551186953051        0.10911986610368        0.31452483449163
C           -1.54220817898494       -0.91668873592634        1.44210469275487
C           -2.05545645090520       -0.44999504877948       -0.99051072557458
H            3.23661102498167        0.35325072906336        0.95125105491144
H            2.18273971133446        1.75778819485345        1.19827761766208
H            2.63038959470814        1.26168120955330       -0.44300458188851
H            0.96954477997287       -0.44416511945414        1.49835763083128
H            2.32621747250785       -1.75262435421159       -0.12335756089824
H            0.60014411783781       -1.93341992337818       -0.47084552126566
H            1.59597832154472       -0.85775890736556       -1.47092630622510
H           -2.06424930698306        0.98499953628056        0.59398887776977
H           -0.98034900508261       -1.82753229692214        1.20458908132570
H           -1.16394837575336       -0.51216881828071        2.38712372649610
H           -2.58960235558216       -1.20425813466634        1.59721380314566
H           -2.03400232603998        0.29798923358099       -1.78793017137602
H           -1.50411290590672       -1.33376619405572       -1.32538452765900
H           -3.09679600613881       -0.74317639078504       -0.82509388128003
22
 energy: -350.308099941177 gnorm: 0.002237751400 xtb: 6.7.1 (edcfbbe)
C            2.37269740842937        0.89334770739185        0.55234616893792
C            1.16519067408879       -0.03537573017005        0.50029549467301
C            1.42598944895387       -1.22042420303345       -0.45107682726958
C           -0.08287915560486        0.68358225621163        0.03245214713434
O           -0.00038128237970        1.72485271730712       -0.61529809693410
C           -1.46620976142503        0.10861912297105        0.31514449579651
C           -1.54360883805935       -0.91756735356031        1.44240481631931
C           -2.05275056991221       -0.45083571066794       -0.99176873494135
H            3.23727986604783        0.35360697638337        0.95068797746204
H            2.18382596121626        1.75918455908954        1.19461575127303
H            2.63165911898222        1.25962200426574       -0.44559700955577
H            0.97029961151207       -0.44279848474800        1.49842959998786
H            2.32558383210309       -1.75118664279320       -0.12419546160446
H            0.59865384047108       -1.93380755669534       -0.46769099450183
H            1.59196957528380       -0.85853909648383       -1.47150818161368
H           -2.06709741097454        0.98383768153306        0.59359164431290
H           -0.98607953253254       -1.82987237740462        1.20322318478050
H           -1.16142323654455       -0.51473643444564        2.38594754261597
H           -2.59056257921322       -1.20149167391477        1.60043761250113
H           -2.02847285050472        0.29667442814400       -1.78962629812896
H           -1.50048480018198       -1.33504818935625       -1.32430663953487
H           -3.09461158870690       -0.74342698086016       -0.82843560367012
22
 energy: -350.308117318756 gnorm: 0.000766302971 xtb: 6.7.1 (edcfbbe)
C            2.37507536121949        0.89319726665800        0.54868707900934
C            1.16545446912429       -0.03324199140949        0.50043526208411
C            1.42121340681655       -1.22018273782720       -0.45056669239189
C           -0.08428183744016        0.68784874792063        0.03918664846284
O           -0.00373762344393        1.73437904976091       -0.60045910077211
C           -1.46703002989363        0.10783787330861        0.31648902178855
C           -1.54538979276584       -0.91933516844426        1.44295575244961
C           -2.04718292667591       -0.45285610230545       -0.99463034912828
H            3.23800988468180        0.35213488151808        0.94833089178073
H            2.18775754043164        1.76084590379974        1.18864037812223
H            2.63419828371468        1.25590052680817       -0.45049118102741
H            0.97156017911373       -0.43921780940186        1.49945103935153
H            2.32302834923572       -1.74910003262126       -0.12721469925985
H            0.59384995839586       -1.93374536855727       -0.46048926516921
H            1.58142508405409       -0.85958920879965       -1.47235613276528
H           -2.07331509489694        0.98100170937202        0.59270890318242
H           -0.99265748440610       -1.83255697442455        1.20241815767255
H           -1.15926823836802       -0.51800469608291        2.38429882405247
H           -2.59083372296732       -1.19926836630566        1.60407073101205
H           -2.01771392256180        0.29463708526331       -1.79231256794882
H           -1.49190116949208       -1.33686346737948       -1.32322742119742
H           -3.08967387115834       -0.74560327861109       -0.83585258557768
22
 energy: -350.308123698370 gnorm: 0.001290060701 xtb: 6.7.1 (edcfbbe)
C            2.37670966964843        0.89260855022140        0.54450426493818
C            1.16466931917798       -0.03103996725479        0.50144720386364
C            1.41513040459623       -1.21968819564199       -0.44920665360176
C           -0.08608792137442        0.69256794445177        0.04659949167469
O           -0.00758071326220        1.74584083859584       -0.58239574846953
C           -1.46781226878966        0.10688969479161        0.31753586684983
C           -1.54644369454675       -0.92087848749880        1.44358955732918
C           -2.03984661545249       -0.45487228690285       -0.99804052369615
H            3.23873752251804        0.35053099708932        0.94466754057436
H            2.19269416016118        1.76290588379904        1.18169465214850
H            2.63534107087870        1.25107620729413       -0.45633543878329
H            0.97339482941610       -0.43557111881477        1.50175702446627
H            2.32027273610219       -1.74627671522238       -0.13153241048829
H            0.58898271165739       -1.93459396868263       -0.45101098039237
H            1.56682260482556       -0.86110106438037       -1.47302271258653
H           -2.07945785007654        0.97734785807772        0.59107501087133
H           -0.99814572187245       -1.83600175419477        1.20103861509472
H           -1.15628964810797       -0.52133516468440        2.38393466553948
H           -2.59237189028466       -1.19605736952924        1.60708460897223
H           -2.00543769128720        0.29260985075849       -1.79550955863741
H           -1.48175902522061       -1.33849949483726       -1.32273965898128
H           -3.08293634627667       -0.74824351862998       -0.84506194395346
22
 energy: -350.308128783765 gnorm: 0.000602281967 xtb: 6.7.1 (edcfbbe)
C            2.37708169020976        0.89208880391270        0.54300212513603
C            1.16402674938126       -0.03013338927148        0.50257319550893
C            1.41171857864219       -1.21930211439603       -0.44811579005726
C           -0.08640931077313        0.69458583172437        0.04944798204638
O           -0.00803409760025        1.74911452846769       -0.57678211706785
C           -1.46753151917224        0.10693560919066        0.31756703454388
C           -1.54672832669730       -0.92112249635356        1.44337154303569
C           -2.03640313338295       -0.45546272558258       -0.99896799134934
H            3.23927783105904        0.34911747037235        0.94180040012602
H            2.19587852059108        1.76316859816876        1.17996189562851
H            2.63449073412840        1.24948703965749       -0.45853275120889
H            0.97443574111327       -0.43409178057541        1.50347327865233
H            2.31913367353720       -1.74443202062945       -0.13455242449499
H            0.58706765397983       -1.93572416074624       -0.44572256991268
H            1.55774133508036       -0.86155436961709       -1.47301320431120
H           -2.08102602639174        0.97591634790331        0.59013147668867
H           -0.99656161768544       -1.83580473448370        1.20213442278118
H           -1.15855027561178       -0.52104268131774        2.38464762449014
H           -2.59302425715821       -1.19789132123525        1.60545278442731
H           -2.00131667043246        0.29263423562021       -1.79571956909951
H           -1.47720187769489       -1.33826260510372       -1.32348471448564
H           -3.07948035816385       -0.75000505651688       -0.84859953406580
22
 energy: -350.308134171450 gnorm: 0.000652613457 xtb: 6.7.1 (edcfbbe)
C            2.37770733264005        0.89083429768177        0.54040109211485
C            1.16324486725397       -0.02943370221803        0.50448898548918
C            1.40699933686339       -1.21903078668215       -0.44646237026086
C           -0.08671135967257        0.69699550304770        0.05333312860687
O           -0.00832116111992        1.75407348415368       -0.56818831683439
C           -1.46723944879182        0.10682215113748        0.31762544122390
C           -1.54754053917041       -0.92109002001913        1.44352021534248
C           -2.03119500815371       -0.45555492521637       -1.00042311827058
H            3.24058620249746        0.34645516762548        0.93599270093770
H            2.20070330551323        1.76240221284817        1.17788455322397
H            2.63218560856336        1.24762995504439       -0.46212304696104
H            0.97593175205806       -0.43264164318872        1.50620235406188
H            2.31893373738771       -1.74073832962256       -0.14026714858528
H            0.58524837165407       -1.93860154768659       -0.43614749644657
H            1.54261991184278       -0.86252377086239       -1.47324366885061
H           -2.08304735501238        0.97419427338718        0.58875706993753
H           -0.99116759982509       -1.83339381989979        1.20628664301406
H           -1.16665300689530       -0.51859756316351        2.38711635682018
H           -2.59369760483871       -1.20366264059377        1.59990373642210
H           -1.99611586837963        0.29338595398644       -1.79640335422810
H           -1.46985421063927       -1.33685897264398       -1.32494794091035
H           -3.07403314789024       -0.75244585540347       -0.85323237405797
22
 energy: -350.308136319329 gnorm: 0.000412497152 xtb: 6.7.1 (edcfbbe)
C            2.37870441639088        0.89013179444565        0.53884008461944
C            1.16351980582817       -0.02917694072425        0.50486441818267
C            1.40476064884151       -1.21935017576182       -0.44600603071073
C           -0.08695530714808        0.69814091819373        0.05655197420498
O           -0.00882473421151        1.75755594273154       -0.56137105199252
C           -1.46754405898994        0.10712328512201        0.31797220121447
C           -1.54892974630920       -0.92098044166430        1.44356149433010
C           -2.02838174559890       -0.45589482391156       -1.00095851458539
H            3.24212252364566        0.34506552618968        0.93220949717068
H            2.20375038325472        1.76180063978937        1.17673687982554
H            2.63089745659573        1.24688076368917       -0.46429529482489
H            0.97734612571677       -0.43184828609837        1.50701739479400
H            2.31986788289667       -1.73805095602403       -0.14431251447900
H            0.58534670676913       -1.94141281551585       -0.43039086238008
H            1.53382731766547       -0.86391070746822       -1.47394703391521
H           -2.08454908786530        0.97404015944445        0.58800973981892
H           -0.98811054865186       -1.83134516037210        1.20963606956538
H           -1.17375819069994       -0.51625014359440        2.38842588861781
H           -2.59468049385124       -1.20746557797233        1.59544918523968
H           -1.99297465848834        0.29361720427955       -1.79650079085328
H           -1.46563370847023       -1.33632905399531       -1.32550350915943
H           -3.07121733164087       -0.75412135883243       -0.85591564988400
22
 energy: -350.308136319329 gnorm: 0.000412497152 xtb: 6.7.1 (edcfbbe)
C            2.37870441639088        0.89013179444565        0.53884008461944
C            1.16351980582817       -0.02917694072425        0.50486441818267
C            1.40476064884151       -1.21935017576182       -0.44600603071073
C           -0.08695530714808        0.69814091819373        0.05655197420498
O           -0.00882473421151        1.75755594273154       -0.56137105199252
C           -1.46754405898994        0.10712328512201        0.31797220121447
C           -1.54892974630920       -0.92098044166430        1.44356149433010
C           -2.02838174559890       -0.45589482391156       -1.00095851458539
H            3.24212252364566        0.34506552618968        0.93220949717068
H            2.20375038325472        1.76180063978937        1.17673687982554
H            2.63089745659573        1.24688076368917       -0.46429529482489
H            0.97734612571677       -0.43184828609837        1.50701739479400
H            2.31986788289667       -1.73805095602403       -0.14431251447900
H            0.58534670676913       -1.94141281551585       -0.43039086238008
H            1.53382731766547       -0.86391070746822       -1.47394703391521
H           -2.08454908786530        0.97404015944445        0.58800973981892
H           -0.98811054865186       -1.83134516037210        1.20963606956538
H           -1.17375819069994       -0.51625014359440        2.38842588861781
H           -2.59468049385124       -1.20746557797233        1.59544918523968
H           -1.99297465848834        0.29361720427955       -1.79650079085328
H           -1.46563370847023       -1.33632905399531       -1.32550350915943
H           -3.07121733164087       -0.75412135883243       -0.85591564988400
