      -----------------------------------------------------------      
     |                   =====================                   |     
     |                           x T B                           |     
     |                   =====================                   |     
     |                         S. Grimme                         |     
     |          Mulliken Center for Theoretical Chemistry        |     
     |                    University of Bonn                     |     
      -----------------------------------------------------------      

   * xtb version 6.7.1 (edcfbbe) compiled by 'albert@albert-system' on 2024-07-22

   xtb is free software: you can redistribute it and/or modify it under
   the terms of the GNU Lesser General Public License as published by
   the Free Software Foundation, either version 3 of the License, or
   (at your option) any later version.
   
   xtb is distributed in the hope that it will be useful,
   but WITHOUT ANY WARRANTY; without even the implied warranty of
   MERCHANTABILITY or FITNESS FOR A PARTICULAR PURPOSE.  See the
   GNU Lesser General Public License for more details.
   
   Cite this work as:
   * C. Bannwarth, E. Caldeweyher, S. Ehlert, A. Hansen, P. Pracht,
     J. Seibert, S. Spicher, S. Grimme, WIREs Comput. Mol. Sci., 2020, 11,
     e01493. DOI: 10.1002/wcms.1493
   
   for GFN2-xTB:
   * C. Bannwarth, S. Ehlert and S. Grimme., J. Chem. Theory Comput., 2019,
     15, 1652-1671. DOI: 10.1021/acs.jctc.8b01176
   for GFN1-xTB:
   * S. Grimme, C. Bannwarth, P. Shushkov, J. Chem. Theory Comput., 2017,
     13, 1989-2009. DOI: 10.1021/acs.jctc.7b00118
   for GFN0-xTB:
   * P. Pracht, E. Caldeweyher, S. Ehlert, S. Grimme, ChemRxiv, 2019, preprint.
     DOI: 10.26434/chemrxiv.8326202.v1
   for GFN-FF:
   * S. Spicher and S. Grimme, Angew. Chem. Int. Ed., 2020, 59, 15665-15673.
     DOI: 10.1002/anie.202004239
   
   for ALPB and GBSA implicit solvation:
   * S. Ehlert, M. Stahn, S. Spicher, S. Grimme, J. Chem. Theory Comput.,
     2021, 17, 4250-4261. DOI: 10.1021/acs.jctc.1c00471
   
   for ddCOSMO and CPCM-X implicit solvation:
   * M. Stahn, S. Ehlert, S. Grimme, J. Phys. Chem. A,
     2023, XX, XXXX-XXXX. DOI: 10.1021/acs.jpca.3c04382
   
   for DFT-D4:
   * E. Caldeweyher, C. Bannwarth and S. Grimme, J. Chem. Phys., 2017,
     147, 034112. DOI: 10.1063/1.4993215
   * E. Caldeweyher, S. Ehlert, A. Hansen, H. Neugebauer, S. Spicher,
     C. Bannwarth and S. Grimme, J. Chem. Phys., 2019, 150, 154122.
     DOI: 10.1063/1.5090222
   * E. Caldeweyher, J.-M. Mewes, S. Ehlert and S. Grimme, Phys. Chem. Chem. Phys.
     2020, 22, 8499-8512. DOI: 10.1039/D0CP00502A
   
   for sTDA-xTB:
   * S. Grimme and C. Bannwarth, J. Chem. Phys., 2016, 145, 054103.
     DOI: 10.1063/1.4959605
   
   in the mass-spec context:
   * V. Asgeirsson, C. Bauer and S. Grimme, Chem. Sci., 2017, 8, 4879.
     DOI: 10.1039/c7sc00601b
   * J. Koopman and S. Grimme, ACS Omega 2019, 4, 12, 15120-15133.
     DOI: 10.1021/acsomega.9b02011
   
   for metadynamics refer to:
   * S. Grimme, J. Chem. Theory Comput., 2019, 155, 2847-2862
     DOI: 10.1021/acs.jctc.9b00143
   
   for SPH calculations refer to:
   * S. Spicher and S. Grimme, J. Chem. Theory Comput., 2021, 17, 1701-1714
     DOI: 10.1021/acs.jctc.0c01306
   
   for ONIOM refer to:
   * C. Plett, A. Katbashev, S. Ehlert, S. Grimme, M. Bursch,
     Phys. Chem. Chem. Phys., 2023, 25, 17860-17868. DOI: 10.1039/D3CP02178E
   
   for DIPRO refer to:
   * J. Kohn, N. Gildemeister, S. Grimme, D. Fazzi, A. Hansen,
     J. Chem. Phys., 2023, just accepted.
   
   for PTB refer to:
   * S. Grimme, M. Mueller, A. Hansen, J. Chem. Phys., 2023, 158, 124111.
     DOI: 10.1063/5.0137838
   
   with help from (in alphabetical order)
   P. Atkinson, C. Bannwarth, F. Bohle, G. Brandenburg, E. Caldeweyher
   M. Checinski, S. Dohm, S. Ehlert, S. Ehrlich, I. Gerasimov, C. Hölzer
   A. Katbashev, J. Kohn, J. Koopman, C. Lavigne, S. Lehtola, F. März, M. Müller,
   F. Musil, H. Neugebauer, J. Pisarek, C. Plett, P. Pracht, F. Pultar,
   J. Seibert, P. Shushkov, S. Spicher, M. Stahn, M. Steiner, T. Strunk,
   J. Stückrath, T. Rose, and J. Unsleber
   
 * started run on 2025/04/11 at 12:30:01.911     
   ID    Z sym.   atoms
    1    6 C      1, 3, 4, 6-11
    2    7 N      2, 12
    3    8 O      5, 13, 14
    4    1 H      15-24

           -------------------------------------------------
          |                Calculation Setup                |
           -------------------------------------------------

          program call               : /srv/scratch/z5358697/.xtb/bin/xtb xtb_opt.coord --opt normal --orca -I xtb_opt-xcontrol-inp
          hostname                   : k117
          coordinate file            : xtb_opt.coord
          omp threads                :                     2

           -------------------------------------------------
          |                   Orca driver                   |
           -------------------------------------------------
orca executable           : /apps/z_install_tree/linux-rocky8-ivybridge/gcc-12.2.0/orca-6.0.0-srtngmq3qlimg2qxbl6avaaiffipurdx/bin/orca
orca input file           : xtb_opt.inp
orca input line           : 
orca parallel             : true
orca number of threads    : 2
                         * ORCA takes the control...
  ------------------------------------------------------------------------

                                 *****************
                                 * O   R   C   A *
                                 *****************

                                            #,                                       
                                            ###                                      
                                            ####                                     
                                            #####                                    
                                            ######                                   
                                           ########,                                 
                                     ,,################,,,,,                         
                               ,,#################################,,                 
                          ,,##########################################,,             
                       ,#########################################, ''#####,          
                    ,#############################################,,   '####,        
                  ,##################################################,,,,####,       
                ,###########''''           ''''###############################       
              ,#####''   ,,,,##########,,,,          '''####'''          '####       
            ,##' ,,,,###########################,,,                        '##       
           ' ,,###''''                  '''############,,,                           
         ,,##''                                '''############,,,,        ,,,,,,###''
      ,#''                                            '''#######################'''  
     '                                                          ''''####''''         
             ,#######,   #######,   ,#######,      ##                                
            ,#'     '#,  ##    ##  ,#'     '#,    #''#        ,####,   ,####,        
            ##       ##  ##   ,#'  ##            #'  '#       #'       #'  '#        
            ##       ##  #######   ##           ,######,      #####,   #    #        
            '#,     ,#'  ##    ##  '#,     ,#' ,#      #,     #,   #   #,  ,#        
             '#######'   ##     ##  '#######'  #'      '#     '####' # '####'        



                #########################################################
                #                        -***-                          #
                #          Department of theory and spectroscopy        #
                #                                                       #
                #                      Frank Neese                      #
                #                                                       #
                #     Directorship, Architecture, Infrastructure        #
                #                    SHARK, DRIVERS                     #
                #        Core code/Algorithms in most modules           #
                #                                                       #
                #        Max Planck Institute fuer Kohlenforschung      #
                #                Kaiser Wilhelm Platz 1                 #
                #                 D-45470 Muelheim/Ruhr                 #
                #                      Germany                          #
                #                                                       #
                #                  All rights reserved                  #
                #                        -***-                          #
                #########################################################


                         Program Version 6.0.0  -   RELEASE  -


 With contributions from (in alphabetic order):
   Daniel Aravena         : Magnetic Suceptibility
   Michael Atanasov       : Ab Initio Ligand Field Theory (pilot matlab implementation)
   Alexander A. Auer      : GIAO ZORA, VPT2 properties, NMR spectrum
   Ute Becker             : All parallelization in ORCA, NUMFREQ, NUMCALC
   Giovanni Bistoni       : ED, misc. LED, open-shell LED, HFLD
   Martin Brehm           : Molecular dynamics
   Dmytro Bykov           : pre 5.0 version of the SCF Hessian
   Marcos Casanova-Páez   : Triplet and SCS-CIS(D). UHF-(DLPNO)-IP/EA/STEOM-CCSD. UHF-CVS-IP/STEOM-CCSD
   Vijay G. Chilkuri      : MRCI spin determinant printing, contributions to CSF-ICE
   Pauline Colinet        : FMM embedding
   Dipayan Datta          : RHF DLPNO-CCSD density
   Achintya Kumar Dutta   : EOM-CC, STEOM-CC
   Nicolas Foglia         : Exact transition moments, OPA infrastructure, MCD improvements
   Dmitry Ganyushin       : Spin-Orbit,Spin-Spin,Magnetic field MRCI
   Miquel Garcia          : C-PCM and meta-GGA Hessian, CCSD/C-PCM, Gaussian charge scheme
   Tiago L. C. Gouveia    : GS-ROHF, GS-ROCIS
   Yang Guo               : DLPNO-NEVPT2, F12-NEVPT2, CIM, IAO-localization
   Andreas Hansen         : Spin unrestricted coupled pair/coupled cluster methods
   Ingolf Harden          : AUTO-CI MPn and infrastructure 
   Benjamin Helmich-Paris : MC-RPA, TRAH-(SCF,CASSCF), AVAS, COSX integrals, SCF dyn. polar.
   Lee Huntington         : MR-EOM, pCC
   Robert Izsak           : Overlap fitted RIJCOSX, COSX-SCS-MP3, EOM
   Riya Kayal             : Wick's Theorem for AUTO-CI, AUTO-CI UHF-CCSDT
   Emily Kempfer          : AUTO-CI, RHF CISDT and CCSDT
   Christian Kollmar      : KDIIS, OOCD, Brueckner-CCSD(T), CCSD density, CASPT2, CASPT2-K, improved NEVPT2
   Axel Koslowski         : Symmetry handling
   Simone Kossmann        : Meta GGA functionals, TD-DFT gradient, OOMP2, (MP2 Hessian; deprecated post 5.0)
   Lucas Lang             : DCDCAS
   Marvin Lechner         : AUTO-CI (C++ implementation), FIC-MRCC
   Spencer Leger          : CASSCF response
   Dagmar Lenk            : GEPOL surface, SMD, ORCA-2-JSON
   Dimitrios Liakos       : Extrapolation schemes; Compound Job, initial MDCI parallelization
   Dimitrios Manganas     : Further ROCIS development; embedding schemes. LFT, Crystal Embedding
   Dimitrios Pantazis     : SARC Basis sets
   Anastasios Papadopoulos: AUTO-CI, single reference methods and gradients
   Taras Petrenko         : pre 6.0 DFT Hessian and TD-DFT gradient, (ASA, deprecated), ECA, 1-Electron XAS/XES, NRVS
   Peter Pinski           : DLPNO-MP2, DLPNO-MP2 Gradient
   Christoph Reimann      : Effective Core Potentials
   Marius Retegan         : Local ZFS, SOC
   Christoph Riplinger    : Optimizer, TS searches, QM/MM, DLPNO-CCSD(T), (RO)-DLPNO pert. Triples
   Michael Roemelt        : Original ROCIS implementation
   Masaaki Saitow         : Open-shell DLPNO-CCSD energy and density
   Barbara Sandhoefer     : DKH picture change effects
   Kantharuban Sivalingam : CASSCF convergence/infrastructure, NEVPT2 and variants, FIC-MRCI
   Bernardo de Souza      : ESD, SOC TD-DFT
   Georgi Stoychev        : AutoAux, RI-MP2 NMR, DLPNO-MP2 response, X2C
   Van Anh Tran           : RI-MP2 g-tensors
   Willem Van den Heuvel  : Paramagnetic NMR
   Zikuan Wang            : NOTCH, Electric field optimization 
   Frank Wennmohs         : Technical directorship and infrastructure
   Hang Xu                : AUTO-CI-Response properties 


 We gratefully acknowledge several colleagues who have allowed us to
 interface, adapt or use parts of their codes:
   Stefan Grimme, W. Hujo, H. Kruse, P. Pracht,  : VdW corrections, initial TS optimization,
                  C. Bannwarth, S. Ehlert,         DFT functionals, gCP, sTDA/sTD-DF
                  L. Wittmann, M. Mueller
   Ed Valeev, F. Pavosevic, A. Kumar             : LibInt (2-el integral package), F12 methods
   Garnet Chan, S. Sharma, J. Yang, R. Olivares  : DMRG
   Ulf Ekstrom                                   : XCFun DFT Library
   Mihaly Kallay                                 : mrcc  (arbitrary order and MRCC methods)
   Frank Weinhold                                : gennbo (NPA and NBO analysis)
   Simon Mueller                                 : openCOSMO-RS
   Christopher J. Cramer and Donald G. Truhlar   : smd solvation model
   Lars Goerigk                                  : TD-DFT with DH, B97 family of functionals
   V. Asgeirsson, H. Jonsson                     : NEB implementation
   FAccTs GmbH                                   : IRC, NEB, NEB-TS, DLPNO-Multilevel, CI-OPT
                                                   MM, QMMM, 2- and 3-layer-ONIOM, Crystal-QMMM,
                                                   LR-CPCM, SF, NACMEs, symmetry and pop. for TD-DFT,
                                                   nearIR, NL-DFT gradient (VV10), updates on ESD,
                                                   ML-optimized integration grids, MBIS, APM,
                                                   GOAT, DOCKER, SOLVATOR, interface openCOSMO-RS
   S Lehtola, MJT Oliveira, MAL Marques          : LibXC Library
   Liviu Ungur et al                             : ANISO software


 Your calculation uses the libint2 library for the computation of 2-el integrals
 For citations please refer to: http://libint.valeyev.net

 Your ORCA version has been built with support for libXC version: 6.2.2
 For citations please refer to: https://libxc.gitlab.io

 This ORCA versions uses:
   CBLAS   interface :  Fast vector & matrix operations
   LAPACKE interface :  Fast linear algebra routines
   SCALAPACK package :  Parallel linear algebra routines
   Shared memory     :  Shared parallel matrices
   BLAS/LAPACK       :  OpenBLAS 0.3.27  USE64BITINT DYNAMIC_ARCH NO_AFFINITY SkylakeX SINGLE_THREADED
        Core in use  :  SkylakeX
   Copyright (c) 2011-2014, The OpenBLAS Project




***************************************
The coordinates will be read from file: xtb_opt.xyz
***************************************


Your calculation utilizes the geometrical counterpoise correction gCP
Please cite in your paper:
H.Kruse, S. Grimme J.Chem.Phys., 136, (2012), 154101 
   

Your calculation utilizes the atom-pairwise dispersion correction
based on EEQ partial charges (D4)


Your calculation utilizes the SMD solvation module
Please cite in your paper:
A.V. Marenich, C.J. Cramer, D.G. Truhlar J. Phys. Chem. B, 113, (2009), 6378 

================================================================================

----- Orbital basis set information -----
Your calculation utilizes the basis: def2-mTZVPP
   Stefan Grimme, Andreas Hansen, Sebastian Ehlert, and Jan-Michael Mewes 
   J. Chem. Phys. 154, 064103 (2021). DOI: 10.1063/5.0040021

----- AuxJ basis set information -----
Your calculation utilizes the auxiliary basis: def2/J
   F. Weigend, Phys. Chem. Chem. Phys. 8, 1057 (2006).

================================================================================
                                        WARNINGS
                       Please study these warnings very carefully!
================================================================================

WARNING: Old DensityContainer found on disk!
         Will remove this file - 
         If you want to keep old densities, please start your calculation with a different basename. 

Using LibXC functional ID 497 : Re-regularized SCAN exchange by Furness et al
[ 1]  J. W. Furness, A. D. Kaplan, J. Ning, J. P. Perdew, and J. Sun.,  J. Phys. Chem. Lett. 11, 8208-8215 (2020)
[ 2]  J. W. Furness, A. D. Kaplan, J. Ning, J. P. Perdew, and J. Sun.,  J. Phys. Chem. Lett. 11, 9248-9248 (2020)
Using LibXC functional ID 498 : Re-regularized SCAN correlation by Furness et al
[ 1]  J. W. Furness, A. D. Kaplan, J. Ning, J. P. Perdew, and J. Sun.,  J. Phys. Chem. Lett. 11, 8208-8215 (2020)
[ 2]  J. W. Furness, A. D. Kaplan, J. Ning, J. P. Perdew, and J. Sun.,  J. Phys. Chem. Lett. 11, 9248-9248 (2020)
Using LibXC functional ID 497 : Re-regularized SCAN exchange by Furness et al
[ 1]  J. W. Furness, A. D. Kaplan, J. Ning, J. P. Perdew, and J. Sun.,  J. Phys. Chem. Lett. 11, 8208-8215 (2020)
[ 2]  J. W. Furness, A. D. Kaplan, J. Ning, J. P. Perdew, and J. Sun.,  J. Phys. Chem. Lett. 11, 9248-9248 (2020)
Using LibXC functional ID 498 : Re-regularized SCAN correlation by Furness et al
[ 1]  J. W. Furness, A. D. Kaplan, J. Ning, J. P. Perdew, and J. Sun.,  J. Phys. Chem. Lett. 11, 8208-8215 (2020)
[ 2]  J. W. Furness, A. D. Kaplan, J. Ning, J. P. Perdew, and J. Sun.,  J. Phys. Chem. Lett. 11, 9248-9248 (2020)

================================================================================
                                       INPUT FILE
================================================================================
NAME = xtb_opt.inp
|  1> ! r2scan-3c def2/J RI DEFGRID2 scfconv7 ENGRAD tightSCF miniprint
|  2> %cpcm
|  3>     smd true
|  4>     smdsolvent "water"
|  5> end
|  6> * xyzfile 0 1 xtb_opt.xyz
|  7> 
|  8>                          ****END OF INPUT****
================================================================================

                     *******************************
                     * Energy+Gradient Calculation *
                     *******************************

---------------------------------
CARTESIAN COORDINATES (ANGSTROEM)
---------------------------------
  C      4.519319    0.256213    0.057312
  N      3.080998    0.422637    0.262294
  C      2.691419    1.531145    1.133918
  C      2.237437   -0.516989   -0.196528
  O      2.621344   -1.563413   -0.757729
  C      0.760867   -0.286860   -0.074997
  C      0.155152    0.834761   -0.649019
  C     -1.225126    0.963824   -0.639189
  C     -1.979649   -0.035501   -0.033752
  C     -1.401581   -1.159531    0.548933
  C     -0.022496   -1.285264    0.511040
  N     -3.438337    0.099468   -0.010798
  O     -4.096198   -0.779920    0.543620
  O     -3.940982    1.086079   -0.546323
  H      4.978172    1.246474   -0.004050
  H      4.706951   -0.284750   -0.870859
  H      4.976080   -0.292699    0.890010
  H      1.658752    1.422863    1.463270
  H      2.810223    2.492115    0.622171
  H      3.335403    1.525161    2.019954
  H      0.761031    1.605347   -1.113303
  H     -1.705248    1.822551   -1.090254
  H     -2.016849   -1.919151    1.013648
  H      0.453107   -2.159423    0.942017

----------------------------
CARTESIAN COORDINATES (A.U.)
----------------------------
  NO LB      ZA    FRAG     MASS         X           Y           Z
   0 C     6.0000    0    12.011    8.540275    0.484172    0.108304
   1 N     7.0000    0    14.007    5.822242    0.798668    0.495665
   2 C     6.0000    0    12.011    5.086044    2.893445    2.142794
   3 C     6.0000    0    12.011    4.228143   -0.976968   -0.371383
   4 O     8.0000    0    15.999    4.953622   -2.954422   -1.431899
   5 C     6.0000    0    12.011    1.437830   -0.542088   -0.141723
   6 C     6.0000    0    12.011    0.293194    1.577469   -1.226468
   7 C     6.0000    0    12.011   -2.315153    1.821364   -1.207892
   8 C     6.0000    0    12.011   -3.740995   -0.067088   -0.063783
   9 C     6.0000    0    12.011   -2.648604   -2.191196    1.037333
  10 C     6.0000    0    12.011   -0.042512   -2.428796    0.965727
  11 N     7.0000    0    14.007   -6.497515    0.187968   -0.020406
  12 O     8.0000    0    15.999   -7.740693   -1.473835    1.027293
  13 O     8.0000    0    15.999   -7.447377    2.052392   -1.032400
  14 H     1.0000    0     1.008    9.407382    2.355495   -0.007654
  15 H     1.0000    0     1.008    8.894848   -0.538099   -1.645685
  16 H     1.0000    0     1.008    9.403428   -0.553121    1.681875
  17 H     1.0000    0     1.008    3.134586    2.688821    2.765180
  18 H     1.0000    0     1.008    5.310553    4.709416    1.175732
  19 H     1.0000    0     1.008    6.302999    2.882136    3.817159
  20 H     1.0000    0     1.008    1.438140    3.033667   -2.103838
  21 H     1.0000    0     1.008   -3.222453    3.444122   -2.060281
  22 H     1.0000    0     1.008   -3.811292   -3.626670    1.915517
  23 H     1.0000    0     1.008    0.856248   -4.080718    1.780155

------------------------------------------------------------------------------
                   ___                                                        
                  /   \      - P O W E R E D   B Y -                         
                 /     \                                                     
                 |  |  |   _    _      __       _____    __    __             
                 |  |  |  | |  | |    /  \     |  _  \  |  |  /  |          
                  \  \/   | |  | |   /    \    | | | |  |  | /  /          
                 / \  \   | |__| |  /  /\  \   | |_| |  |  |/  /          
                |  |  |   |  __  | /  /__\  \  |    /   |      \           
                |  |  |   | |  | | |   __   |  |    \   |  |\   \          
                \     /   | |  | | |  |  |  |  | |\  \  |  | \   \       
                 \___/    |_|  |_| |__|  |__|  |_| \__\ |__|  \__/        
                                                                              
                      - O R C A' S   B I G   F R I E N D -                    
                                      &                                       
                       - I N T E G R A L  F E E D E R -                       
                                                                              
 v1 FN, 2020, v2 2021, v3 2022-2024                                           
------------------------------------------------------------------------------


----------------------
SHARK INTEGRAL PACKAGE
----------------------

Number of atoms                             ...     24
Number of basis functions                   ...    341
Number of shells                            ...    161
Maximum angular momentum                    ...      2
Integral batch strategy                     ... SHARK/LIBINT Hybrid
RI-J (if used) integral strategy            ... SPLIT-RIJ (Revised 2003 algorithm where possible)
Printlevel                                  ...      1
Contraction scheme used                     ... SEGMENTED contraction
Prescreening option                         ... SCHWARTZ
   Thresh                                   ... 3.000e-11
   Tcut                                     ... 1.000e-12
   Tpresel                                  ... 1.000e-12 
Coulomb Range Separation                    ... NOT USED
Exchange Range Separation                   ... NOT USED
Multipole approximations                    ... NOT USED
Finite Nucleus Model                        ... NOT USED
CABS basis                                  ... NOT available
Auxiliary Coulomb fitting basis             ... AVAILABLE
   # of basis functions in Aux-J            ...    796
   # of shells in Aux-J                     ...    260
   Maximum angular momentum in Aux-J        ...      4
Auxiliary J/K fitting basis                 ... NOT available
Auxiliary Correlation fitting basis         ... NOT available
Auxiliary 'external' fitting basis          ... NOT available

Checking pre-screening integrals            ... done (  0.0 sec) Dimension = 161
Check shell pair data                       ... done (  0.0 sec)
Shell pair information
Shell pair cut-off parameter TPreSel        ...   1.0e-12
Total number of shell pairs                 ...     13041
Shell pairs after pre-screening             ...     10346
Total number of primitive shell pairs       ...     47616
Primitive shell pairs kept                  ...     25195
          la=0 lb=0:   3079 shell pairs
          la=1 lb=0:   3787 shell pairs
          la=1 lb=1:   1171 shell pairs
          la=2 lb=0:   1331 shell pairs
          la=2 lb=1:    819 shell pairs
          la=2 lb=2:    159 shell pairs

Calculating one electron integrals          ... done (  0.1 sec)
Calculating RI/J V-Matrix + Cholesky decomp.... done (  0.1 sec)
Calculating Nuclear repulsion               ... done (  0.0 sec) ENN=    858.292644401649 Eh

Diagonalization of the overlap matrix:
Smallest eigenvalue                        ... 2.649e-05
Time for diagonalization                   ...    0.011 sec
Threshold for overlap eigenvalues          ... 1.000e-07
Number of eigenvalues below threshold      ... 0
Time for construction of square roots      ...    0.020 sec
Total time needed                          ...    0.041 sec

-------------------
DFT GRID GENERATION
-------------------

General Integration Accuracy     IntAcc      ... 4.388
Radial Grid Type                 RadialGrid  ... OptM3 with GC (2021)
Angular Grid (max. ang.)         AngularGrid ... 4 (Lebedev-302)
Angular grid pruning method      GridPruning ... 4 (adaptive)
Weight generation scheme         WeightScheme... mBecke (2022)
Basis function cutoff            BFCut       ... 1.0000e-11
Integration weight cutoff        WCut        ... 1.0000e-14
Partially contracted basis set               ... off
Rotationally invariant grid construction     ... off
Angular grids for H and He will be reduced by one unit
Diffuse basis detected: some atoms will have their outermost
                        angular grid increased by 1.

Total number of grid points                  ...   117123
Total number of batches                      ...     1842
Average number of points per batch           ...       63
Average number of grid points per atom       ...     4880
Initializing property integral containers    ... done (  0.0 sec)

SHARK setup successfully completed in   1.8 seconds

Maximum memory used throughout the entire STARTUP-calculation: 57.7 MB
Occupation numbers will be reassigned to an Aufbau configuration
             **** ENERGY FILE WAS UPDATED (xtb_opt.en.tmp) ****
Finished Guess after   0.4 sec
Maximum memory used throughout the entire GUESS-calculation: 27.4 MB
--------------------
CPCM SOLVATION MODEL
--------------------
CPCM parameters:
  Epsilon                                         ...      78.3550
  Refrac                                          ...       1.3328
  Rsolv                                           ...       1.3000
  Surface type                                    ... GAUSSIAN VDW
  Discretization scheme                           ... Constant charge density
    Threshold for H atoms                         ...       5.0000 (charges/Ang^2)
    Threshold for non-H atoms                     ...       5.0000 (charges/Ang^2)
  Epsilon function type                           ...         CPCM
Solvent:                                          ... WATER
SMD-CDS solvent descriptors:
  Soln                                            ...       1.3328
  Soln25                                          ...       1.3323
  Sola                                            ...       0.0000
  Solb                                            ...       0.0000
  Solg                                            ...       0.0000
  Solc                                            ...       0.0000
  Solh                                            ...       0.0000
Radii:
  Scheme                                          ... Element-dependent radii
  Radius for C  used is    3.4960 Bohr (=   1.8500 Ang.)
  Radius for N  used is    3.5716 Bohr (=   1.8900 Ang.)
  Radius for O  used is    2.8724 Bohr (=   1.5200 Ang.)
  Radius for H  used is    2.2677 Bohr (=   1.2000 Ang.)
Calculating surface                               ...        done! (  0.0s)
Cavity surface points                             ...         1829
Cavity Volume                                     ...    1256.1040
Cavity Surface-area                               ...     758.8561
Calculating surface distance matrix               ...        done! (  0.0s)
Performing Cholesky decomposition & store         ...        done! (  0.1s)
Overall time for CPCM initialization              ...                 0.1s

----------------------------------------D-I-I-S--------------------------------------------
Iteration    Energy (Eh)           Delta-E    RMSDP     MaxDP     DIISErr   Damp  Time(sec)
-------------------------------------------------------------------------------------------
               ***  Starting incremental Fock matrix formation  ***
                              *** Initializing SOSCF ***
---------------------------------------S-O-S-C-F--------------------------------------
Iteration    Energy (Eh)           Delta-E    RMSDP     MaxDP     MaxGrad    Time(sec)
--------------------------------------------------------------------------------------
    1    -683.9712908863954226     0.00e+00  9.04e-07  3.18e-05  5.26e-06     6.5
               *** Restarting incremental Fock matrix formation ***
    2    -683.9712908864129304    -1.75e-11  1.04e-06  3.24e-05  1.64e-05     6.4
                  *** Gradient check signals convergence ***

               *****************************************************
               *                     SUCCESS                       *
               *           SCF CONVERGED AFTER   2 CYCLES          *
               *****************************************************


SMD CDS free energy correction energy :                 7.74152     Kcal/mol
Total Energy after SMD CDS correction =              -683.958953984 Eh
             **** ENERGY FILE WAS UPDATED (xtb_opt.en.tmp) ****

----------------
TOTAL SCF ENERGY
----------------

Total Energy       :       -683.95895398437108 Eh          -18611.46933 eV

Components:
Nuclear Repulsion  :        858.29264440164854 Eh           23355.33022 eV
Electronic Energy  :      -1542.22716250951294 Eh          -41966.13461 eV
One Electron Energy:      -2632.99465347271325 Eh          -71647.42701 eV
Two Electron Energy:       1090.76749096320032 Eh           29681.29240 eV
CPCM Dielectric    :         -0.03677277854852 Eh              -1.00064 eV
SMD CDS (Gcds)     :          0.01233690204189 Eh               0.33570 eV

Virial components:
Potential Energy   :      -1365.02621091187393 Eh          -37144.25158 eV
Kinetic Energy     :        681.06725692750274 Eh           18532.78225 eV
Virial Ratio       :          2.00424583185795

DFT components:
N(Alpha)           :       51.000018010810 electrons
N(Beta)            :       51.000018010810 electrons
N(Total)           :      102.000036021620 electrons
E(X)               :      -88.484477862810 Eh       
E(C)               :       -3.362129491828 Eh       
E(XC)              :      -91.846607354638 Eh       

CPCM Solvation Model Properties:
Surface-charge          :         -0.04934790921277
Corrected charge        :          0.00000000000000
Outlying charge corr.   :          0.00016087778255 Eh               0.00438 eV
Free-energy (cav+disp)  :          0.01233690204189 Eh               0.33570 eV

---------------
SCF CONVERGENCE
---------------

  Last Energy change         ...    1.7508e-11  Tolerance :   1.0000e-07
  Last MAX-Density change    ...    3.2387e-05  Tolerance :   1.0000e-07
  Last RMS-Density change    ...    1.0415e-06  Tolerance :   5.0000e-09
  Last DIIS Error            ...    3.7393e-05  Tolerance :   1.0000e-07
  Last Orbital Gradient      ...    1.6435e-05  Tolerance :   1.0000e-04
  Last Orbital Rotation      ...    4.2382e-05  Tolerance :   1.0000e-04


----------------
ORBITAL ENERGIES
----------------

  NO   OCC          E(Eh)            E(eV) 
   0   2.0000     -18.997990      -516.9616 
   1   2.0000     -18.997984      -516.9614 
   2   2.0000     -18.930437      -515.1234 
   3   2.0000     -14.406942      -392.0328 
   4   2.0000     -14.209242      -386.6531 
   5   2.0000     -10.143454      -276.0174 
   6   2.0000     -10.106250      -275.0050 
   7   2.0000     -10.074554      -274.1426 
   8   2.0000     -10.066099      -273.9125 
   9   2.0000     -10.065655      -273.9004 
  10   2.0000     -10.061084      -273.7760 
  11   2.0000     -10.061015      -273.7741 
  12   2.0000     -10.060280      -273.7541 
  13   2.0000     -10.057510      -273.6788 
  14   2.0000      -1.206085       -32.8192 
  15   2.0000      -1.031536       -28.0695 
  16   2.0000      -1.009650       -27.4740 
  17   2.0000      -0.909878       -24.7590 
  18   2.0000      -0.863184       -23.4884 
  19   2.0000      -0.787504       -21.4291 
  20   2.0000      -0.743034       -20.2190 
  21   2.0000      -0.704504       -19.1705 
  22   2.0000      -0.683934       -18.6108 
  23   2.0000      -0.659766       -17.9532 
  24   2.0000      -0.603249       -16.4152 
  25   2.0000      -0.579996       -15.7825 
  26   2.0000      -0.539940       -14.6925 
  27   2.0000      -0.527519       -14.3545 
  28   2.0000      -0.515416       -14.0252 
  29   2.0000      -0.501373       -13.6431 
  30   2.0000      -0.493994       -13.4422 
  31   2.0000      -0.457390       -12.4462 
  32   2.0000      -0.448546       -12.2056 
  33   2.0000      -0.434694       -11.8286 
  34   2.0000      -0.428624       -11.6634 
  35   2.0000      -0.413084       -11.2406 
  36   2.0000      -0.412082       -11.2133 
  37   2.0000      -0.378577       -10.3016 
  38   2.0000      -0.370898       -10.0926 
  39   2.0000      -0.368768       -10.0347 
  40   2.0000      -0.359800        -9.7906 
  41   2.0000      -0.350720        -9.5436 
  42   2.0000      -0.348014        -9.4699 
  43   2.0000      -0.332866        -9.0577 
  44   2.0000      -0.306804        -8.3486 
  45   2.0000      -0.295651        -8.0451 
  46   2.0000      -0.274168        -7.4605 
  47   2.0000      -0.272457        -7.4139 
  48   2.0000      -0.261909        -7.1269 
  49   2.0000      -0.238274        -6.4838 
  50   2.0000      -0.227604        -6.1934 
  51   0.0000      -0.134692        -3.6652 
  52   0.0000      -0.055551        -1.5116 
  53   0.0000      -0.050183        -1.3656 
  54   0.0000      -0.000746        -0.0203 
  55   0.0000       0.060438         1.6446 
  56   0.0000       0.081259         2.2112 
  57   0.0000       0.092790         2.5250 
  58   0.0000       0.099360         2.7037 
  59   0.0000       0.111759         3.0411 
  60   0.0000       0.115552         3.1443 
  61   0.0000       0.123091         3.3495 
*Only the first 10 virtual orbitals were printed.
Total SCF time: 0 days 0 hours 0 min 13 sec 
Finished LeanSCF after  13.8 sec

Maximum memory used throughout the entire LEANSCF-calculation: 49.6 MB


-------------------------------------------------------------------------------
                          DFT DISPERSION CORRECTION                            
                                                                               
                                DFTD4 V3.4.0                                   
-------------------------------------------------------------------------------
-------------------------   ----------------
Dispersion correction           -0.009343662
-------------------------   ----------------

------------------   -----------------
gCP correction             0.020133198
------------------   -----------------

-------------------------   --------------------
FINAL SINGLE POINT ENERGY      -683.948164448161
-------------------------   --------------------

------------------------------------------------------------------------------
                         ORCA SCF GRADIENT CALCULATION
------------------------------------------------------------------------------

Nuc. rep. gradient        (SHARK) ... done (  0.0 sec)
HCore & Overlap gradient  (SHARK) ... done (  0.7 sec)
Split-RIJ-J gradient      (SHARK) ... done (  4.2 sec)
XC gradient                       ... done ( 10.6 sec)
CPCM gradient                     ... done (  2.0 sec)
SMD gradient                      ... done (  0.0 sec)
Dispersion correction             ... done (  0.0 sec)

-------------------
DISPERSION GRADIENT
-------------------

   1   C   :    0.000110300    0.000003488   -0.000001649
   2   N   :    0.000098807    0.000022057    0.000011254
   3   C   :    0.000067890    0.000088399    0.000066906
   4   C   :    0.000079612   -0.000039676   -0.000019928
   5   O   :    0.000065670   -0.000096391   -0.000052016
   6   C   :    0.000003008   -0.000035030   -0.000016541
   7   C   :   -0.000019876    0.000058388   -0.000061438
   8   C   :   -0.000076767    0.000063671   -0.000054105
   9   C   :   -0.000095153   -0.000001619   -0.000004812
  10   C   :   -0.000071018   -0.000076414    0.000035865
  11   C   :   -0.000021478   -0.000107280    0.000030070
  12   N   :   -0.000102733    0.000008546    0.000001320
  13   O   :   -0.000088362   -0.000024956    0.000021985
  14   O   :   -0.000083850    0.000041573   -0.000017760
  15   H   :    0.000037777    0.000009324   -0.000002094
  16   H   :    0.000038781   -0.000008928   -0.000012978
  17   H   :    0.000039091   -0.000005434    0.000005092
  18   H   :    0.000029369    0.000040808    0.000038976
  19   H   :    0.000025765    0.000044369    0.000020188
  20   H   :    0.000023533    0.000028255    0.000033602
  21   H   :   -0.000006140    0.000042867   -0.000038945
  22   H   :   -0.000025943    0.000039837   -0.000026342
  23   H   :   -0.000025791   -0.000037379    0.000022263
  24   H   :   -0.000002491   -0.000058478    0.000021086

Difference to translation invariance:
           :    0.0000000000   -0.0000000000   -0.0000000000

Difference to rotation invariance:
           :   -0.0000000000    0.0000000000   -0.0000000000

Norm of the Dispersion gradient    ...    0.0004194959
RMS gradient                       ...    0.0000494381
MAX gradient                       ...    0.0001103002
gCP correction                   ... done

------------------
CARTESIAN GRADIENT
------------------

   1   C   :   -0.000144057    0.000025873   -0.000084479
   2   N   :    0.000026063    0.000004809   -0.000054411
   3   C   :   -0.000068221    0.000070860    0.000092539
   4   C   :   -0.000095828    0.000194718   -0.000042522
   5   O   :    0.000011635   -0.000168879   -0.000042985
   6   C   :   -0.000021516   -0.000002433    0.000037328
   7   C   :    0.000093630   -0.000041691   -0.000019584
   8   C   :   -0.000106141   -0.000020570    0.000030929
   9   C   :    0.000255910   -0.000014085   -0.000015086
  10   C   :   -0.000070315    0.000012566   -0.000003928
  11   C   :   -0.000023812    0.000009025    0.000034750
  12   N   :   -0.000165803    0.000204563   -0.000220586
  13   O   :   -0.000070832   -0.000068612    0.000044278
  14   O   :    0.000070688   -0.000139882    0.000087947
  15   H   :    0.000059137    0.000144770   -0.000065413
  16   H   :    0.000042531   -0.000132451   -0.000074859
  17   H   :    0.000166575   -0.000015942    0.000132218
  18   H   :   -0.000011853   -0.000058073    0.000077580
  19   H   :   -0.000025240    0.000007554    0.000019810
  20   H   :    0.000052789   -0.000006650    0.000052155
  21   H   :    0.000002923    0.000016264    0.000019266
  22   H   :    0.000026503   -0.000018977   -0.000021122
  23   H   :   -0.000006870   -0.000007848    0.000009470
  24   H   :    0.000002105    0.000005091    0.000006708

Difference to translation invariance:
           :   -0.0000000000   -0.0000000000    0.0000000000

Difference to rotation invariance:
           :    0.0000382683   -0.0003110404    0.0005254036

Norm of the Cartesian gradient     ...    0.0007126732
RMS gradient                       ...    0.0000839893
MAX gradient                       ...    0.0002559097

-------
TIMINGS
-------

Total SCF gradient time     ....       19.166 sec

Densities                   ....       0.002 sec  (  0.0%)
One electron gradient       ....       0.730 sec  (  3.8%)
RI-J Coulomb gradient       ....       4.162 sec  ( 21.7%)
XC gradient                 ....      10.556 sec  ( 55.1%)
CPCM gradient               ....       1.982 sec  ( 10.3%)
   A-Matrix (El+Nuc)        ....       0.104 sec  (  0.5%)
   Potential                ....       1.879 sec  (  9.8%)
SMD gradient                ....       0.014 sec  (  0.1%)

Maximum memory used throughout the entire SCFGRAD-calculation: 47.6 MB

------------------------------------------------------------------------------
                              ORCA PROPERTY CALCULATIONS
------------------------------------------------------------------------------

GBWName                                 ... xtb_opt.gbw
Number of atoms                         ...     24
Number of basis functions               ...    341
Max core memory                         ...   1024 MB

Electric properties:
Dipole moment                           ... YES
Quadrupole moment                       ...  NO
Static polarizability (Dipole/Dipole)   ...  NO
Static polarizability (Dipole/Quad.)    ...  NO
Static polarizability (Quad./Quad.)     ...  NO
Static polarizability (Velocity)        ...  NO

Atomic electric properties:
Dipole moment                           ...  NO
Quadrupole moment                       ...  NO
Static polarizability                   ...  NO

Choice of electric origin               ... Center of mass
Position of electric origin             ...    -0.025776    -0.035759     0.030751

General magnetic properties:
Magnetizability                         ...  NO

EPR properties:
g-Tensor (aka g-matrix)                 ...  NO
Zero-Field splitting spin-orbit         ...  NO
Zero-field splitting spin-spin          ...  NO
Hyperfine couplings                     ...  NO (   0 nuclei)
Quadrupole couplings                    ...  NO (   0 nuclei)
Contact density                         ...  NO (   0 nuclei)

NMR properties:
Chemical shifts                         ...  NO (   0 nuclei)
Spin-rotation constants                 ...  NO (   0 nuclei)
Spin-spin couplings                     ...  NO (   0 nuclei,    0 pairs)

Choice of magnetic origin               ... GIAO
Position of magnetic origin             ...     0.000000     0.000000     0.000000

Properties with geometric perturbations:
SCF Hessian                             ...  NO
IR spectrum                             ...  NO
VCD spectrum                            ...  NO
X-ray spectroscopy properties:
SCF XES/XAS/RIXS spectra                ...  NO


-------------
DIPOLE MOMENT
-------------

Method             : SCF
Type of density    : Electron Density
Multiplicity       :   1
Irrep              :   0
Energy             :  -683.9589539843710781 Eh
Relativity type    : 
Basis              : AO
                                X                 Y                 Z
Electronic contribution:    -16.097775928      -3.366360190      -2.296117140
Nuclear contribution   :     18.770428854       5.283884134       3.469755172
                        -----------------------------------------
Total Dipole Moment    :      2.672652925       1.917523944       1.173638033
                        -----------------------------------------
Magnitude (a.u.)       :      3.492477339
Magnitude (Debye)      :      8.877171916



--------------------
Rotational spectrum 
--------------------
 
Rotational constants in cm-1:             0.067357             0.010665             0.009905 
Rotational constants in MHz :          2019.315302           319.724538           296.932573 

Dipole components along the rotational axes: 
x,y,z [a.u.] :    -2.697259     1.872439     1.190026 
x,y,z [Debye]:    -6.855889     4.759362     3.024806 

 

Dipole moment calculation done in   0.0 sec 

Maximum memory used throughout the entire PROP-calculation: 25.8 MB

--------------------------------
SUGGESTED CITATIONS FOR THIS RUN
--------------------------------

Below you find a list of papers that are relevant to this ORCA run
We neither can nor want to force you to cite these papers, but we appreciate if you do
You receive ORCA, which is the product of decades of hard work by many enthusiastic individuals, for free
The only thing we kindly ask in return is that you cite our papers,
We deeply appreciate it, if you show your appreciation for ORCA by not just citing the generic ORCA reference.

Please note that relegating all ORCA citations to the supporting information does *not* help us.
SI sections are not indexed - citations you put there will not count into any citation statistics
But we need these citations in order to attract the funding resources that allow us to do what we are doing

Therefore, if you are a happy ORCA user, please consider citing a few of the papers listed below in the main body of your paper

In addition to the list printed below, the program has created the file xtb_opt.bibtex that contains the list in bibtex format
You can import this file easily into all common literature databanks and citation aid programs


List of essential papers. We consider these as the minimum necessary citations

  1. Neese,F.
     Software update: the ORCA program system, version 5.0
     WIRES Comput. Molec. Sci., 2022 12(1)e1606
     doi.org/10.1002/wcms.1606
  2. Grimme,S.; Hansen,A.; Ehlert,S.; Mewes,J.
     r2SCAN-3c: A 'Swiss army knife' composite electronic-structure method
     J. Chem. Phys., 2021 154 064103
     doi.org/10.1063/5.0040021

List of papers to cite with high priority. The work reported in these papers was absolutely
necessary for this run to complete.
Our perspective: the developers of density functionals and basis sets usually get cited in chemistry papers
Good! But without the algorithms to do something with them, the functionals or basis sets would not do anything.
Hence, in our opinion, the algorithm design and method developments papers are equally worthy of getting cited

  1. Neese,F.
     An improvement of the resolution of the identity approximation for the formation of the Coulomb matrix
     J. Comp. Chem., 2003 24(14)1740-1747
     doi.org/10.1002/jcc.10318
  2. Garcia-Rates,M.; Neese,F.
     Effect of the Solute Cavity on the Solvation Energy and its Derivatives within the Framework of the Gaussian Charge Scheme
     J. Comput. Chem., 2020 41 922-939
     doi.org/10.1002/jcc.26139
  3. Neese,F.
     The SHARK Integral Generation and Digestion System
     J. Comp. Chem., 2022  1-16
     doi.org/10.1002/jcc.26942
  4. Lehtola,S.; Steigemann,C.; Oliveira,M.; Marques,M.
     Recent developments in Libxc - A comprehensive library of functionals for density functional theory
     Software X, 2018 7 
     doi.org/10.1016/j.softx.2017.11.002
  5. Caldeweyher,E.; Bannwarth,C.; Grimme,S.
     Extension of the D3 dispersion coefficient model
     J. Chem. Phys., 2017 147 034112-XXXX
     doi.org/10.1063/1.4993215
  6. Caldeweyher,E.; Ehlert,S.; Hansen,A.; Neugebauer,H.; Spicher,S.; Bannwarth,C.; Grimme,S.
     A generally applicable atomic-charge dependent London dispersion correction
     J. Chem. Phys., 2019 150 154122-XXXX
     doi.org/10.1063/1.5090222
  7. Caldeweyher,E.; Mewes,J.; Ehlert,S.; Grimme,S.
     Extension and evaluation of the D4 London-dispersion model for periodic systems
     Phys. Chem. Chem. Phys., 2020 22(16)8499-8512
     doi.org/10.1039/D0CP00502A

List of suggested additional citations. These are papers that are important in the 'surrounding' of 
of this run, or papers that preceded the highly important papers. If you like your results we are grateful for a citation.

  1. Neese,F.
     The ORCA program system
     WIRES Comput. Molec. Sci., 2012 2(1)73-78
     doi.org/10.1002/wcms.81
  2. Neese,F.
     Software update: the ORCA program system, version 4.0
     WIRES Comput. Molec. Sci., 2018 8(1)1-6
     doi.org/10.1002/wcms.1327
  3. Neese,F.; Wennmohs,F.; Becker,U.; Riplinger,C.
     The ORCA quantum chemistry program package
     J. Chem. Phys., 2020 152 Art. No. L224108
     doi.org/10.1063/5.0004608

List of optional additional citations

  1. Neese,F.
     Approximate second-order SCF convergence for spin unrestricted wavefunctions
     Chem. Phys. Lett., 2000 325(1-3)93-98
     doi.org/10.1016/s0009-2614(00)00662-x

Timings for individual modules:

Sum of individual times          ...       35.541 sec (=   0.592 min)
Startup calculation              ...        1.824 sec (=   0.030 min)   5.1 %
SCF iterations                   ...       14.289 sec (=   0.238 min)  40.2 %
Property calculations            ...        0.143 sec (=   0.002 min)   0.4 %
SCF Gradient evaluation          ...       19.285 sec (=   0.321 min)  54.3 %
                             ****ORCA TERMINATED NORMALLY****
TOTAL RUN TIME: 0 days 0 hours 0 minutes 36 seconds 621 msec
  ------------------------------------------------------------------------
          * successful ORCA run, taking over control again...

         :::::::::::::::::::::::::::::::::::::::::::::::::::::
         ::                  ORCA SUMMARY                   ::
         :::::::::::::::::::::::::::::::::::::::::::::::::::::
         :: total energy            -683.948164448161 Eh    ::
         :: gradient norm              0.000712673227 Eh/a0 ::
         :: HOMO-LUMO gap              0.000000000000 eV    ::
         :::::::::::::::::::::::::::::::::::::::::::::::::::::

      ----------------------------------------------------------- 
     |                       L-ANC optimizer                     |
      ----------------------------------------------------------- 
          low memory version by Sebastian Ehlert

          ...................................................
          :                      SETUP                      :
          :.................................................:
          :   energy convergence        0.5000000E-05 Eh    :
          :   grad. convergence         0.1000000E-02 Eh/a0 :
          :   optimization log               true           :
          :   writing optlog all                1     steps :
          :   Hessian reset                     8     steps :
          :   maximium step len.        1.0000000     a0    :
          :   LBFGS images                      8           :
          ...................................................
 * calculating model hessian...
Using Lindh-Hessian (1995)
 Shifting diagonal of input Hessian by   1.000000000000000E-002
 Lowest  eigenvalues of input Hessian
    0.000000    0.000000    0.000000    0.000000    0.000000    0.000000
    0.011072    0.011627    0.012522    0.015956    0.020675    0.021116
    0.022342    0.024089    0.026159    0.027006    0.028156    0.034118
 Highest eigenvalues
    1.868156    1.948555    1.965074    2.106756    2.222823    2.501527
 

........................................................................
.............................. CYCLE    1 ..............................
........................................................................
                         * ORCA takes the control...
  ------------------------------------------------------------------------

                                 *****************
                                 * O   R   C   A *
                                 *****************

                                            #,                                       
                                            ###                                      
                                            ####                                     
                                            #####                                    
                                            ######                                   
                                           ########,                                 
                                     ,,################,,,,,                         
                               ,,#################################,,                 
                          ,,##########################################,,             
                       ,#########################################, ''#####,          
                    ,#############################################,,   '####,        
                  ,##################################################,,,,####,       
                ,###########''''           ''''###############################       
              ,#####''   ,,,,##########,,,,          '''####'''          '####       
            ,##' ,,,,###########################,,,                        '##       
           ' ,,###''''                  '''############,,,                           
         ,,##''                                '''############,,,,        ,,,,,,###''
      ,#''                                            '''#######################'''  
     '                                                          ''''####''''         
             ,#######,   #######,   ,#######,      ##                                
            ,#'     '#,  ##    ##  ,#'     '#,    #''#        ,####,   ,####,        
            ##       ##  ##   ,#'  ##            #'  '#       #'       #'  '#        
            ##       ##  #######   ##           ,######,      #####,   #    #        
            '#,     ,#'  ##    ##  '#,     ,#' ,#      #,     #,   #   #,  ,#        
             '#######'   ##     ##  '#######'  #'      '#     '####' # '####'        



                #########################################################
                #                        -***-                          #
                #          Department of theory and spectroscopy        #
                #                                                       #
                #                      Frank Neese                      #
                #                                                       #
                #     Directorship, Architecture, Infrastructure        #
                #                    SHARK, DRIVERS                     #
                #        Core code/Algorithms in most modules           #
                #                                                       #
                #        Max Planck Institute fuer Kohlenforschung      #
                #                Kaiser Wilhelm Platz 1                 #
                #                 D-45470 Muelheim/Ruhr                 #
                #                      Germany                          #
                #                                                       #
                #                  All rights reserved                  #
                #                        -***-                          #
                #########################################################


                         Program Version 6.0.0  -   RELEASE  -


 With contributions from (in alphabetic order):
   Daniel Aravena         : Magnetic Suceptibility
   Michael Atanasov       : Ab Initio Ligand Field Theory (pilot matlab implementation)
   Alexander A. Auer      : GIAO ZORA, VPT2 properties, NMR spectrum
   Ute Becker             : All parallelization in ORCA, NUMFREQ, NUMCALC
   Giovanni Bistoni       : ED, misc. LED, open-shell LED, HFLD
   Martin Brehm           : Molecular dynamics
   Dmytro Bykov           : pre 5.0 version of the SCF Hessian
   Marcos Casanova-Páez   : Triplet and SCS-CIS(D). UHF-(DLPNO)-IP/EA/STEOM-CCSD. UHF-CVS-IP/STEOM-CCSD
   Vijay G. Chilkuri      : MRCI spin determinant printing, contributions to CSF-ICE
   Pauline Colinet        : FMM embedding
   Dipayan Datta          : RHF DLPNO-CCSD density
   Achintya Kumar Dutta   : EOM-CC, STEOM-CC
   Nicolas Foglia         : Exact transition moments, OPA infrastructure, MCD improvements
   Dmitry Ganyushin       : Spin-Orbit,Spin-Spin,Magnetic field MRCI
   Miquel Garcia          : C-PCM and meta-GGA Hessian, CCSD/C-PCM, Gaussian charge scheme
   Tiago L. C. Gouveia    : GS-ROHF, GS-ROCIS
   Yang Guo               : DLPNO-NEVPT2, F12-NEVPT2, CIM, IAO-localization
   Andreas Hansen         : Spin unrestricted coupled pair/coupled cluster methods
   Ingolf Harden          : AUTO-CI MPn and infrastructure 
   Benjamin Helmich-Paris : MC-RPA, TRAH-(SCF,CASSCF), AVAS, COSX integrals, SCF dyn. polar.
   Lee Huntington         : MR-EOM, pCC
   Robert Izsak           : Overlap fitted RIJCOSX, COSX-SCS-MP3, EOM
   Riya Kayal             : Wick's Theorem for AUTO-CI, AUTO-CI UHF-CCSDT
   Emily Kempfer          : AUTO-CI, RHF CISDT and CCSDT
   Christian Kollmar      : KDIIS, OOCD, Brueckner-CCSD(T), CCSD density, CASPT2, CASPT2-K, improved NEVPT2
   Axel Koslowski         : Symmetry handling
   Simone Kossmann        : Meta GGA functionals, TD-DFT gradient, OOMP2, (MP2 Hessian; deprecated post 5.0)
   Lucas Lang             : DCDCAS
   Marvin Lechner         : AUTO-CI (C++ implementation), FIC-MRCC
   Spencer Leger          : CASSCF response
   Dagmar Lenk            : GEPOL surface, SMD, ORCA-2-JSON
   Dimitrios Liakos       : Extrapolation schemes; Compound Job, initial MDCI parallelization
   Dimitrios Manganas     : Further ROCIS development; embedding schemes. LFT, Crystal Embedding
   Dimitrios Pantazis     : SARC Basis sets
   Anastasios Papadopoulos: AUTO-CI, single reference methods and gradients
   Taras Petrenko         : pre 6.0 DFT Hessian and TD-DFT gradient, (ASA, deprecated), ECA, 1-Electron XAS/XES, NRVS
   Peter Pinski           : DLPNO-MP2, DLPNO-MP2 Gradient
   Christoph Reimann      : Effective Core Potentials
   Marius Retegan         : Local ZFS, SOC
   Christoph Riplinger    : Optimizer, TS searches, QM/MM, DLPNO-CCSD(T), (RO)-DLPNO pert. Triples
   Michael Roemelt        : Original ROCIS implementation
   Masaaki Saitow         : Open-shell DLPNO-CCSD energy and density
   Barbara Sandhoefer     : DKH picture change effects
   Kantharuban Sivalingam : CASSCF convergence/infrastructure, NEVPT2 and variants, FIC-MRCI
   Bernardo de Souza      : ESD, SOC TD-DFT
   Georgi Stoychev        : AutoAux, RI-MP2 NMR, DLPNO-MP2 response, X2C
   Van Anh Tran           : RI-MP2 g-tensors
   Willem Van den Heuvel  : Paramagnetic NMR
   Zikuan Wang            : NOTCH, Electric field optimization 
   Frank Wennmohs         : Technical directorship and infrastructure
   Hang Xu                : AUTO-CI-Response properties 


 We gratefully acknowledge several colleagues who have allowed us to
 interface, adapt or use parts of their codes:
   Stefan Grimme, W. Hujo, H. Kruse, P. Pracht,  : VdW corrections, initial TS optimization,
                  C. Bannwarth, S. Ehlert,         DFT functionals, gCP, sTDA/sTD-DF
                  L. Wittmann, M. Mueller
   Ed Valeev, F. Pavosevic, A. Kumar             : LibInt (2-el integral package), F12 methods
   Garnet Chan, S. Sharma, J. Yang, R. Olivares  : DMRG
   Ulf Ekstrom                                   : XCFun DFT Library
   Mihaly Kallay                                 : mrcc  (arbitrary order and MRCC methods)
   Frank Weinhold                                : gennbo (NPA and NBO analysis)
   Simon Mueller                                 : openCOSMO-RS
   Christopher J. Cramer and Donald G. Truhlar   : smd solvation model
   Lars Goerigk                                  : TD-DFT with DH, B97 family of functionals
   V. Asgeirsson, H. Jonsson                     : NEB implementation
   FAccTs GmbH                                   : IRC, NEB, NEB-TS, DLPNO-Multilevel, CI-OPT
                                                   MM, QMMM, 2- and 3-layer-ONIOM, Crystal-QMMM,
                                                   LR-CPCM, SF, NACMEs, symmetry and pop. for TD-DFT,
                                                   nearIR, NL-DFT gradient (VV10), updates on ESD,
                                                   ML-optimized integration grids, MBIS, APM,
                                                   GOAT, DOCKER, SOLVATOR, interface openCOSMO-RS
   S Lehtola, MJT Oliveira, MAL Marques          : LibXC Library
   Liviu Ungur et al                             : ANISO software


 Your calculation uses the libint2 library for the computation of 2-el integrals
 For citations please refer to: http://libint.valeyev.net

 Your ORCA version has been built with support for libXC version: 6.2.2
 For citations please refer to: https://libxc.gitlab.io

 This ORCA versions uses:
   CBLAS   interface :  Fast vector & matrix operations
   LAPACKE interface :  Fast linear algebra routines
   SCALAPACK package :  Parallel linear algebra routines
   Shared memory     :  Shared parallel matrices
   BLAS/LAPACK       :  OpenBLAS 0.3.27  USE64BITINT DYNAMIC_ARCH NO_AFFINITY SkylakeX SINGLE_THREADED
        Core in use  :  SkylakeX
   Copyright (c) 2011-2014, The OpenBLAS Project




***************************************
The coordinates will be read from file: xtb_opt.xyz
***************************************


Your calculation utilizes the geometrical counterpoise correction gCP
Please cite in your paper:
H.Kruse, S. Grimme J.Chem.Phys., 136, (2012), 154101 
   

Your calculation utilizes the atom-pairwise dispersion correction
based on EEQ partial charges (D4)


Your calculation utilizes the SMD solvation module
Please cite in your paper:
A.V. Marenich, C.J. Cramer, D.G. Truhlar J. Phys. Chem. B, 113, (2009), 6378 

================================================================================

----- Orbital basis set information -----
Your calculation utilizes the basis: def2-mTZVPP
   Stefan Grimme, Andreas Hansen, Sebastian Ehlert, and Jan-Michael Mewes 
   J. Chem. Phys. 154, 064103 (2021). DOI: 10.1063/5.0040021

----- AuxJ basis set information -----
Your calculation utilizes the auxiliary basis: def2/J
   F. Weigend, Phys. Chem. Chem. Phys. 8, 1057 (2006).

================================================================================
                                        WARNINGS
                       Please study these warnings very carefully!
================================================================================

WARNING: Old DensityContainer found on disk!
         Will remove this file - 
         If you want to keep old densities, please start your calculation with a different basename. 

Using LibXC functional ID 497 : Re-regularized SCAN exchange by Furness et al
[ 1]  J. W. Furness, A. D. Kaplan, J. Ning, J. P. Perdew, and J. Sun.,  J. Phys. Chem. Lett. 11, 8208-8215 (2020)
[ 2]  J. W. Furness, A. D. Kaplan, J. Ning, J. P. Perdew, and J. Sun.,  J. Phys. Chem. Lett. 11, 9248-9248 (2020)
Using LibXC functional ID 498 : Re-regularized SCAN correlation by Furness et al
[ 1]  J. W. Furness, A. D. Kaplan, J. Ning, J. P. Perdew, and J. Sun.,  J. Phys. Chem. Lett. 11, 8208-8215 (2020)
[ 2]  J. W. Furness, A. D. Kaplan, J. Ning, J. P. Perdew, and J. Sun.,  J. Phys. Chem. Lett. 11, 9248-9248 (2020)
Using LibXC functional ID 497 : Re-regularized SCAN exchange by Furness et al
[ 1]  J. W. Furness, A. D. Kaplan, J. Ning, J. P. Perdew, and J. Sun.,  J. Phys. Chem. Lett. 11, 8208-8215 (2020)
[ 2]  J. W. Furness, A. D. Kaplan, J. Ning, J. P. Perdew, and J. Sun.,  J. Phys. Chem. Lett. 11, 9248-9248 (2020)
Using LibXC functional ID 498 : Re-regularized SCAN correlation by Furness et al
[ 1]  J. W. Furness, A. D. Kaplan, J. Ning, J. P. Perdew, and J. Sun.,  J. Phys. Chem. Lett. 11, 8208-8215 (2020)
[ 2]  J. W. Furness, A. D. Kaplan, J. Ning, J. P. Perdew, and J. Sun.,  J. Phys. Chem. Lett. 11, 9248-9248 (2020)

================================================================================
                                       INPUT FILE
================================================================================
NAME = xtb_opt.inp
|  1> ! r2scan-3c def2/J RI DEFGRID2 scfconv7 ENGRAD tightSCF miniprint
|  2> %cpcm
|  3>     smd true
|  4>     smdsolvent "water"
|  5> end
|  6> * xyzfile 0 1 xtb_opt.xyz
|  7> 
|  8>                          ****END OF INPUT****
================================================================================

                     *******************************
                     * Energy+Gradient Calculation *
                     *******************************

---------------------------------
CARTESIAN COORDINATES (ANGSTROEM)
---------------------------------
  C      4.519236    0.255547    0.058881
  N      3.080927    0.422406    0.262477
  C      2.691106    1.531892    1.132377
  C      2.237690   -0.517174   -0.196806
  O      2.622026   -1.563132   -0.758244
  C      0.761033   -0.287057   -0.076013
  C      0.154999    0.834807   -0.649383
  C     -1.225225    0.963966   -0.638899
  C     -1.979597   -0.035402   -0.033172
  C     -1.401134   -1.159756    0.548599
  C     -0.022118   -1.285680    0.509847
  N     -3.438001    0.099758   -0.008901
  O     -4.095542   -0.780180    0.544814
  O     -3.941096    1.085975   -0.545105
  H      4.978707    1.245380    0.000110
  H      4.707275   -0.283179   -0.870230
  H      4.973925   -0.295507    0.890826
  H      1.657766    1.425224    1.459930
  H      2.811768    2.492305    0.620061
  H      3.333553    1.525999    2.019405
  H      0.760704    1.605300   -1.114024
  H     -1.705597    1.823026   -1.089136
  H     -2.016203   -1.919504    1.013325
  H      0.453586   -2.159875    0.940647

----------------------------
CARTESIAN COORDINATES (A.U.)
----------------------------
  NO LB      ZA    FRAG     MASS         X           Y           Z
   0 C     6.0000    0    12.011    8.540118    0.482915    0.111269
   1 N     7.0000    0    14.007    5.822108    0.798231    0.496010
   2 C     6.0000    0    12.011    5.085453    2.894857    2.139882
   3 C     6.0000    0    12.011    4.228621   -0.977317   -0.371910
   4 O     8.0000    0    15.999    4.954912   -2.953892   -1.432874
   5 C     6.0000    0    12.011    1.438144   -0.542460   -0.143644
   6 C     6.0000    0    12.011    0.292906    1.577557   -1.227156
   7 C     6.0000    0    12.011   -2.315340    1.821632   -1.207345
   8 C     6.0000    0    12.011   -3.740897   -0.066901   -0.062686
   9 C     6.0000    0    12.011   -2.647759   -2.191620    1.036702
  10 C     6.0000    0    12.011   -0.041797   -2.429584    0.963471
  11 N     7.0000    0    14.007   -6.496881    0.188515   -0.016820
  12 O     8.0000    0    15.999   -7.739453   -1.474327    1.029550
  13 O     8.0000    0    15.999   -7.447593    2.052195   -1.030100
  14 H     1.0000    0     1.008    9.408394    2.353428    0.000208
  15 H     1.0000    0     1.008    8.895460   -0.535130   -1.644497
  16 H     1.0000    0     1.008    9.399357   -0.558428    1.683417
  17 H     1.0000    0     1.008    3.132724    2.693283    2.758869
  18 H     1.0000    0     1.008    5.313471    4.709773    1.171745
  19 H     1.0000    0     1.008    6.299503    2.883720    3.816122
  20 H     1.0000    0     1.008    1.437522    3.033577   -2.105200
  21 H     1.0000    0     1.008   -3.223110    3.445020   -2.058169
  22 H     1.0000    0     1.008   -3.810072   -3.627336    1.914907
  23 H     1.0000    0     1.008    0.857153   -4.081573    1.777565

------------------------------------------------------------------------------
                   ___                                                        
                  /   \      - P O W E R E D   B Y -                         
                 /     \                                                     
                 |  |  |   _    _      __       _____    __    __             
                 |  |  |  | |  | |    /  \     |  _  \  |  |  /  |          
                  \  \/   | |  | |   /    \    | | | |  |  | /  /          
                 / \  \   | |__| |  /  /\  \   | |_| |  |  |/  /          
                |  |  |   |  __  | /  /__\  \  |    /   |      \           
                |  |  |   | |  | | |   __   |  |    \   |  |\   \          
                \     /   | |  | | |  |  |  |  | |\  \  |  | \   \       
                 \___/    |_|  |_| |__|  |__|  |_| \__\ |__|  \__/        
                                                                              
                      - O R C A' S   B I G   F R I E N D -                    
                                      &                                       
                       - I N T E G R A L  F E E D E R -                       
                                                                              
 v1 FN, 2020, v2 2021, v3 2022-2024                                           
------------------------------------------------------------------------------


----------------------
SHARK INTEGRAL PACKAGE
----------------------

Number of atoms                             ...     24
Number of basis functions                   ...    341
Number of shells                            ...    161
Maximum angular momentum                    ...      2
Integral batch strategy                     ... SHARK/LIBINT Hybrid
RI-J (if used) integral strategy            ... SPLIT-RIJ (Revised 2003 algorithm where possible)
Printlevel                                  ...      1
Contraction scheme used                     ... SEGMENTED contraction
Prescreening option                         ... SCHWARTZ
   Thresh                                   ... 3.000e-11
   Tcut                                     ... 1.000e-12
   Tpresel                                  ... 1.000e-12 
Coulomb Range Separation                    ... NOT USED
Exchange Range Separation                   ... NOT USED
Multipole approximations                    ... NOT USED
Finite Nucleus Model                        ... NOT USED
CABS basis                                  ... NOT available
Auxiliary Coulomb fitting basis             ... AVAILABLE
   # of basis functions in Aux-J            ...    796
   # of shells in Aux-J                     ...    260
   Maximum angular momentum in Aux-J        ...      4
Auxiliary J/K fitting basis                 ... NOT available
Auxiliary Correlation fitting basis         ... NOT available
Auxiliary 'external' fitting basis          ... NOT available

Checking pre-screening integrals            ... done (  0.0 sec) Dimension = 161
Check shell pair data                       ... done (  0.0 sec)
Shell pair information
Shell pair cut-off parameter TPreSel        ...   1.0e-12
Total number of shell pairs                 ...     13041
Shell pairs after pre-screening             ...     10346
Total number of primitive shell pairs       ...     47616
Primitive shell pairs kept                  ...     25195
          la=0 lb=0:   3079 shell pairs
          la=1 lb=0:   3787 shell pairs
          la=1 lb=1:   1171 shell pairs
          la=2 lb=0:   1331 shell pairs
          la=2 lb=1:    819 shell pairs
          la=2 lb=2:    159 shell pairs

Calculating one electron integrals          ... done (  0.1 sec)
Calculating RI/J V-Matrix + Cholesky decomp.... done (  0.1 sec)
Calculating Nuclear repulsion               ... done (  0.0 sec) ENN=    858.324680228327 Eh

Diagonalization of the overlap matrix:
Smallest eigenvalue                        ... 2.649e-05
Time for diagonalization                   ...    0.012 sec
Threshold for overlap eigenvalues          ... 1.000e-07
Number of eigenvalues below threshold      ... 0
Time for construction of square roots      ...    0.020 sec
Total time needed                          ...    0.043 sec

-------------------
DFT GRID GENERATION
-------------------

General Integration Accuracy     IntAcc      ... 4.388
Radial Grid Type                 RadialGrid  ... OptM3 with GC (2021)
Angular Grid (max. ang.)         AngularGrid ... 4 (Lebedev-302)
Angular grid pruning method      GridPruning ... 4 (adaptive)
Weight generation scheme         WeightScheme... mBecke (2022)
Basis function cutoff            BFCut       ... 1.0000e-11
Integration weight cutoff        WCut        ... 1.0000e-14
Partially contracted basis set               ... off
Rotationally invariant grid construction     ... off
Angular grids for H and He will be reduced by one unit
Diffuse basis detected: some atoms will have their outermost
                        angular grid increased by 1.

Total number of grid points                  ...   117119
Total number of batches                      ...     1843
Average number of points per batch           ...       63
Average number of grid points per atom       ...     4880
Initializing property integral containers    ... done (  0.0 sec)

SHARK setup successfully completed in   1.7 seconds

Maximum memory used throughout the entire STARTUP-calculation: 57.7 MB
Occupation numbers will be reassigned to an Aufbau configuration
             **** ENERGY FILE WAS UPDATED (xtb_opt.en.tmp) ****
Finished Guess after   0.4 sec
Maximum memory used throughout the entire GUESS-calculation: 27.4 MB
--------------------
CPCM SOLVATION MODEL
--------------------
CPCM parameters:
  Epsilon                                         ...      78.3550
  Refrac                                          ...       1.3328
  Rsolv                                           ...       1.3000
  Surface type                                    ... GAUSSIAN VDW
  Discretization scheme                           ... Constant charge density
    Threshold for H atoms                         ...       5.0000 (charges/Ang^2)
    Threshold for non-H atoms                     ...       5.0000 (charges/Ang^2)
  Epsilon function type                           ...         CPCM
Solvent:                                          ... WATER
SMD-CDS solvent descriptors:
  Soln                                            ...       1.3328
  Soln25                                          ...       1.3323
  Sola                                            ...       0.0000
  Solb                                            ...       0.0000
  Solg                                            ...       0.0000
  Solc                                            ...       0.0000
  Solh                                            ...       0.0000
Radii:
  Scheme                                          ... Element-dependent radii
  Radius for C  used is    3.4960 Bohr (=   1.8500 Ang.)
  Radius for N  used is    3.5716 Bohr (=   1.8900 Ang.)
  Radius for O  used is    2.8724 Bohr (=   1.5200 Ang.)
  Radius for H  used is    2.2677 Bohr (=   1.2000 Ang.)
Calculating surface                               ...        done! (  0.0s)
Cavity surface points                             ...         1830
Cavity Volume                                     ...    1256.0784
Cavity Surface-area                               ...     758.7897
Calculating surface distance matrix               ...        done! (  0.0s)
Performing Cholesky decomposition & store         ...        done! (  0.1s)
Overall time for CPCM initialization              ...                 0.2s

----------------------------------------D-I-I-S--------------------------------------------
Iteration    Energy (Eh)           Delta-E    RMSDP     MaxDP     DIISErr   Damp  Time(sec)
-------------------------------------------------------------------------------------------
               ***  Starting incremental Fock matrix formation  ***
                              *** Initializing SOSCF ***
---------------------------------------S-O-S-C-F--------------------------------------
Iteration    Energy (Eh)           Delta-E    RMSDP     MaxDP     MaxGrad    Time(sec)
--------------------------------------------------------------------------------------
    1    -683.9712930523323848     0.00e+00  1.87e-05  4.77e-04  3.88e-05     7.3
               *** Restarting incremental Fock matrix formation ***
    2    -683.9712983125079973    -5.26e-06  7.51e-06  1.53e-04  4.08e-05     6.4
    3    -683.9712985591697816    -2.47e-07  5.78e-06  1.77e-04  9.80e-05     4.6
    4    -683.9712985199703326     3.92e-08  4.31e-06  1.27e-04  1.27e-04     4.5
                 **** Energy Check signals convergence ****

               *****************************************************
               *                     SUCCESS                       *
               *           SCF CONVERGED AFTER   4 CYCLES          *
               *****************************************************


SMD CDS free energy correction energy :                 7.74026     Kcal/mol
Total Energy after SMD CDS correction =              -683.958963639 Eh
             **** ENERGY FILE WAS UPDATED (xtb_opt.en.tmp) ****

----------------
TOTAL SCF ENERGY
----------------

Total Energy       :       -683.95896363920303 Eh          -18611.46959 eV

Components:
Nuclear Repulsion  :        858.32468022832722 Eh           23356.20196 eV
Electronic Energy  :      -1542.25921184227377 Eh          -41967.00672 eV
One Electron Energy:      -2633.05662137810577 Eh          -71649.11324 eV
Two Electron Energy:       1090.79740953583200 Eh           29682.10652 eV
CPCM Dielectric    :         -0.03676690602374 Eh              -1.00048 eV
SMD CDS (Gcds)     :          0.01233488076731 Eh               0.33565 eV

Virial components:
Potential Energy   :      -1365.02988510285081 Eh          -37144.35156 eV
Kinetic Energy     :        681.07092146364778 Eh           18532.88197 eV
Virial Ratio       :          2.00424044263900

DFT components:
N(Alpha)           :       51.000018336906 electrons
N(Beta)            :       51.000018336906 electrons
N(Total)           :      102.000036673812 electrons
E(X)               :      -88.485166773553 Eh       
E(C)               :       -3.362167045629 Eh       
E(XC)              :      -91.847333819182 Eh       

CPCM Solvation Model Properties:
Surface-charge          :         -0.04934581161970
Corrected charge        :          0.00000000000000
Outlying charge corr.   :          0.00016087027660 Eh               0.00438 eV
Free-energy (cav+disp)  :          0.01233488076731 Eh               0.33565 eV

---------------
SCF CONVERGENCE
---------------

  Last Energy change         ...   -3.9199e-08  Tolerance :   1.0000e-07
  Last MAX-Density change    ...    1.2695e-04  Tolerance :   1.0000e-07
  Last RMS-Density change    ...    4.3113e-06  Tolerance :   5.0000e-09
  Last DIIS Error            ...    7.3478e-04  Tolerance :   1.0000e-07
  Last Orbital Gradient      ...    1.2697e-04  Tolerance :   1.0000e-04
  Last Orbital Rotation      ...    2.2034e-04  Tolerance :   1.0000e-04


----------------
ORBITAL ENERGIES
----------------

  NO   OCC          E(Eh)            E(eV) 
   0   2.0000     -18.998281      -516.9695 
   1   2.0000     -18.997606      -516.9511 
   2   2.0000     -18.930608      -515.1280 
   3   2.0000     -14.406992      -392.0342 
   4   2.0000     -14.209051      -386.6479 
   5   2.0000     -10.143421      -276.0165 
   6   2.0000     -10.106279      -275.0058 
   7   2.0000     -10.074548      -274.1424 
   8   2.0000     -10.066120      -273.9131 
   9   2.0000     -10.065653      -273.9003 
  10   2.0000     -10.061074      -273.7757 
  11   2.0000     -10.060956      -273.7725 
  12   2.0000     -10.060262      -273.7537 
[...]
  28   2.0000      -0.515420       -14.0253 
  29   2.0000      -0.501379       -13.6432 
  30   2.0000      -0.494022       -13.4430 
  31   2.0000      -0.457410       -12.4467 
  32   2.0000      -0.448553       -12.2058 
  33   2.0000      -0.434719       -11.8293 
  34   2.0000      -0.428632       -11.6637 
  35   2.0000      -0.413088       -11.2407 
  36   2.0000      -0.412089       -11.2135 
  37   2.0000      -0.378573       -10.3015 
  38   2.0000      -0.370926       -10.0934 
  39   2.0000      -0.368818       -10.0361 
  40   2.0000      -0.359839        -9.7917 
  41   2.0000      -0.350739        -9.5441 
  42   2.0000      -0.347998        -9.4695 
  43   2.0000      -0.332852        -9.0574 
  44   2.0000      -0.306795        -8.3483 
  45   2.0000      -0.295656        -8.0452 
  46   2.0000      -0.274159        -7.4602 
  47   2.0000      -0.272463        -7.4141 
  48   2.0000      -0.261905        -7.1268 
  49   2.0000      -0.238256        -6.4833 
  50   2.0000      -0.227596        -6.1932 
  51   0.0000      -0.134715        -3.6658 
  52   0.0000      -0.055543        -1.5114 
  53   0.0000      -0.050156        -1.3648 
  54   0.0000      -0.000710        -0.0193 
  55   0.0000       0.060470         1.6455 
  56   0.0000       0.081294         2.2121 
  57   0.0000       0.092801         2.5252 
  58   0.0000       0.099363         2.7038 
  59   0.0000       0.111767         3.0413 
  60   0.0000       0.115625         3.1463 
  61   0.0000       0.123122         3.3503 
*Only the first 10 virtual orbitals were printed.
Total SCF time: 0 days 0 hours 0 min 22 sec 
Finished LeanSCF after  22.8 sec

Maximum memory used throughout the entire LEANSCF-calculation: 49.6 MB


-------------------------------------------------------------------------------
                          DFT DISPERSION CORRECTION                            
                                                                               
                                DFTD4 V3.4.0                                   
-------------------------------------------------------------------------------
-------------------------   ----------------
Dispersion correction           -0.009344062
-------------------------   ----------------

------------------   -----------------
gCP correction             0.020140326
------------------   -----------------

-------------------------   --------------------
FINAL SINGLE POINT ENERGY      -683.948167570064
-------------------------   --------------------

------------------------------------------------------------------------------
                         ORCA SCF GRADIENT CALCULATION
------------------------------------------------------------------------------

Nuc. rep. gradient        (SHARK) ... done (  0.0 sec)
HCore & Overlap gradient  (SHARK) ... done (  0.7 sec)
Split-RIJ-J gradient      (SHARK) ... done (  4.2 sec)
XC gradient                       ... done ( 10.5 sec)
CPCM gradient                     ... done (  2.0 sec)
SMD gradient                      ... done (  0.0 sec)
Dispersion correction             ... done (  0.0 sec)

-------------------
DISPERSION GRADIENT
-------------------

   1   C   :    0.000110248    0.000003486   -0.000001559
   2   N   :    0.000098819    0.000022049    0.000011273
   3   C   :    0.000067912    0.000088449    0.000066811
   4   C   :    0.000079634   -0.000039682   -0.000019937
   5   O   :    0.000065692   -0.000096361   -0.000052020
   6   C   :    0.000003007   -0.000035043   -0.000016620
   7   C   :   -0.000019882    0.000058396   -0.000061460
   8   C   :   -0.000076786    0.000063672   -0.000054079
   9   C   :   -0.000095165   -0.000001627   -0.000004778
  10   C   :   -0.000071017   -0.000076439    0.000035848
  11   C   :   -0.000021478   -0.000107319    0.000029986
  12   N   :   -0.000102736    0.000008553    0.000001398
  13   O   :   -0.000088354   -0.000024965    0.000022025
  14   O   :   -0.000083862    0.000041573   -0.000017721
  15   H   :    0.000037767    0.000009335   -0.000002032
  16   H   :    0.000038790   -0.000008933   -0.000012973
  17   H   :    0.000039105   -0.000005482    0.000005139
  18   H   :    0.000029360    0.000040861    0.000038904
  19   H   :    0.000025772    0.000044369    0.000020144
  20   H   :    0.000023550    0.000028281    0.000033618
  21   H   :   -0.000006143    0.000042863   -0.000038959
  22   H   :   -0.000025962    0.000039843   -0.000026322
  23   H   :   -0.000025786   -0.000037386    0.000022259
  24   H   :   -0.000002485   -0.000058490    0.000021055

Difference to translation invariance:
           :    0.0000000000    0.0000000000    0.0000000000

Difference to rotation invariance:
           :    0.0000000000   -0.0000000000    0.0000000000

Norm of the Dispersion gradient    ...    0.0004195107
RMS gradient                       ...    0.0000494398
MAX gradient                       ...    0.0001102484
gCP correction                   ... done

------------------
CARTESIAN GRADIENT
------------------

   1   C   :    0.000016811    0.000033684   -0.000027055
   2   N   :    0.000080792   -0.000062500   -0.000031950
   3   C   :   -0.000009487    0.000022773    0.000057650
   4   C   :    0.000003344   -0.000024968    0.000039346
   5   O   :   -0.000033915    0.000037639   -0.000009188
   6   C   :    0.000002855   -0.000010039   -0.000009007
   7   C   :    0.000028978    0.000017760    0.000037738
   8   C   :   -0.000050392   -0.000024084   -0.000032066
   9   C   :    0.000083332   -0.000057596   -0.000072251
  10   C   :   -0.000012689    0.000005322   -0.000000294
  11   C   :   -0.000002555   -0.000004425   -0.000005418
  12   N   :   -0.000067079    0.000303189    0.000168756
  13   O   :   -0.000026784   -0.000102754   -0.000095903
  14   O   :    0.000038151   -0.000141572   -0.000066398
  15   H   :   -0.000016212    0.000003880   -0.000082424
  16   H   :   -0.000037629   -0.000019458    0.000043870
  17   H   :   -0.000006177    0.000086204    0.000004062
  18   H   :    0.000018016   -0.000041575    0.000042886
  19   H   :   -0.000036593   -0.000003665    0.000038802
  20   H   :    0.000027392   -0.000018026   -0.000015325
  21   H   :   -0.000002988   -0.000005685    0.000003753
  22   H   :    0.000007963   -0.000004537   -0.000012457
  23   H   :   -0.000005157   -0.000001832   -0.000004148
  24   H   :    0.000000024    0.000012267    0.000027020

Difference to translation invariance:
           :   -0.0000000000   -0.0000000000    0.0000000000

Difference to rotation invariance:
           :    0.0000318597   -0.0003121978    0.0004772127

Norm of the Cartesian gradient     ...    0.0004938160
RMS gradient                       ...    0.0000581968
MAX gradient                       ...    0.0003031888

-------
TIMINGS
-------

Total SCF gradient time     ....       19.144 sec

Densities                   ....       0.002 sec  (  0.0%)
One electron gradient       ....       0.716 sec  (  3.7%)
RI-J Coulomb gradient       ....       4.190 sec  ( 21.9%)
XC gradient                 ....      10.490 sec  ( 54.8%)
CPCM gradient               ....       2.022 sec  ( 10.6%)
   A-Matrix (El+Nuc)        ....       0.106 sec  (  0.6%)
   Potential                ....       1.917 sec  ( 10.0%)
SMD gradient                ....       0.018 sec  (  0.1%)

Maximum memory used throughout the entire SCFGRAD-calculation: 47.8 MB

------------------------------------------------------------------------------
                              ORCA PROPERTY CALCULATIONS
------------------------------------------------------------------------------

GBWName                                 ... xtb_opt.gbw
Number of atoms                         ...     24
Number of basis functions               ...    341
Max core memory                         ...   1024 MB

Electric properties:
Dipole moment                           ... YES
Quadrupole moment                       ...  NO
Static polarizability (Dipole/Dipole)   ...  NO
Static polarizability (Dipole/Quad.)    ...  NO
Static polarizability (Quad./Quad.)     ...  NO
Static polarizability (Velocity)        ...  NO

Atomic electric properties:
Dipole moment                           ...  NO
Quadrupole moment                       ...  NO
Static polarizability                   ...  NO

Choice of electric origin               ... Center of mass
Position of electric origin             ...    -0.025494    -0.035834     0.031046

General magnetic properties:
Magnetizability                         ...  NO

EPR properties:
g-Tensor (aka g-matrix)                 ...  NO
Zero-Field splitting spin-orbit         ...  NO
Zero-field splitting spin-spin          ...  NO
Hyperfine couplings                     ...  NO (   0 nuclei)
Quadrupole couplings                    ...  NO (   0 nuclei)
Contact density                         ...  NO (   0 nuclei)

NMR properties:
Chemical shifts                         ...  NO (   0 nuclei)
Spin-rotation constants                 ...  NO (   0 nuclei)
Spin-spin couplings                     ...  NO (   0 nuclei,    0 pairs)

Choice of magnetic origin               ... GIAO
Position of magnetic origin             ...     0.000000     0.000000     0.000000

Properties with geometric perturbations:
SCF Hessian                             ...  NO
IR spectrum                             ...  NO
VCD spectrum                            ...  NO
X-ray spectroscopy properties:
SCF XES/XAS/RIXS spectra                ...  NO


-------------
DIPOLE MOMENT
-------------

Method             : SCF
Type of density    : Electron Density
Multiplicity       :   1
Irrep              :   0
Energy             :  -683.9589638341700493 Eh
Relativity type    : 
Basis              : AO
                                X                 Y                 Z
Electronic contribution:    -16.094298996      -3.367917225      -2.292918824
Nuclear contribution   :     18.767036941       5.284895646       3.466738088
                        -----------------------------------------
Total Dipole Moment    :      2.672737946       1.916978421       1.173819264
                        -----------------------------------------
Magnitude (a.u.)       :      3.492303833
Magnitude (Debye)      :      8.876730897



--------------------
Rotational spectrum 
--------------------
 
Rotational constants in cm-1:             0.067358             0.010666             0.009905 
Rotational constants in MHz :          2019.340429           319.757251           296.943220 

Dipole components along the rotational axes: 
x,y,z [a.u.] :    -2.697063     1.872301     1.190179 
x,y,z [Debye]:    -6.855389     4.759012     3.025194 

 

Dipole moment calculation done in   0.0 sec 

Maximum memory used throughout the entire PROP-calculation: 25.8 MB

--------------------------------
SUGGESTED CITATIONS FOR THIS RUN
--------------------------------

Below you find a list of papers that are relevant to this ORCA run
We neither can nor want to force you to cite these papers, but we appreciate if you do
You receive ORCA, which is the product of decades of hard work by many enthusiastic individuals, for free
The only thing we kindly ask in return is that you cite our papers,
We deeply appreciate it, if you show your appreciation for ORCA by not just citing the generic ORCA reference.

Please note that relegating all ORCA citations to the supporting information does *not* help us.
SI sections are not indexed - citations you put there will not count into any citation statistics
But we need these citations in order to attract the funding resources that allow us to do what we are doing

Therefore, if you are a happy ORCA user, please consider citing a few of the papers listed below in the main body of your paper

In addition to the list printed below, the program has created the file xtb_opt.bibtex that contains the list in bibtex format
You can import this file easily into all common literature databanks and citation aid programs


List of essential papers. We consider these as the minimum necessary citations

  1. Neese,F.
     Software update: the ORCA program system, version 5.0
     WIRES Comput. Molec. Sci., 2022 12(1)e1606
     doi.org/10.1002/wcms.1606
  2. Grimme,S.; Hansen,A.; Ehlert,S.; Mewes,J.
     r2SCAN-3c: A 'Swiss army knife' composite electronic-structure method
     J. Chem. Phys., 2021 154 064103
     doi.org/10.1063/5.0040021

List of papers to cite with high priority. The work reported in these papers was absolutely
necessary for this run to complete.
Our perspective: the developers of density functionals and basis sets usually get cited in chemistry papers
Good! But without the algorithms to do something with them, the functionals or basis sets would not do anything.
Hence, in our opinion, the algorithm design and method developments papers are equally worthy of getting cited

  1. Neese,F.
     An improvement of the resolution of the identity approximation for the formation of the Coulomb matrix
     J. Comp. Chem., 2003 24(14)1740-1747
     doi.org/10.1002/jcc.10318
  2. Garcia-Rates,M.; Neese,F.
     Effect of the Solute Cavity on the Solvation Energy and its Derivatives within the Framework of the Gaussian Charge Scheme
     J. Comput. Chem., 2020 41 922-939
     doi.org/10.1002/jcc.26139
  3. Neese,F.
     The SHARK Integral Generation and Digestion System
     J. Comp. Chem., 2022  1-16
     doi.org/10.1002/jcc.26942
  4. Lehtola,S.; Steigemann,C.; Oliveira,M.; Marques,M.
     Recent developments in Libxc - A comprehensive library of functionals for density functional theory
     Software X, 2018 7 
     doi.org/10.1016/j.softx.2017.11.002
  5. Caldeweyher,E.; Bannwarth,C.; Grimme,S.
     Extension of the D3 dispersion coefficient model
     J. Chem. Phys., 2017 147 034112-XXXX
     doi.org/10.1063/1.4993215
  6. Caldeweyher,E.; Ehlert,S.; Hansen,A.; Neugebauer,H.; Spicher,S.; Bannwarth,C.; Grimme,S.
     A generally applicable atomic-charge dependent London dispersion correction
     J. Chem. Phys., 2019 150 154122-XXXX
     doi.org/10.1063/1.5090222
  7. Caldeweyher,E.; Mewes,J.; Ehlert,S.; Grimme,S.
     Extension and evaluation of the D4 London-dispersion model for periodic systems
     Phys. Chem. Chem. Phys., 2020 22(16)8499-8512
     doi.org/10.1039/D0CP00502A

List of suggested additional citations. These are papers that are important in the 'surrounding' of 
of this run, or papers that preceded the highly important papers. If you like your results we are grateful for a citation.

  1. Neese,F.
     The ORCA program system
     WIRES Comput. Molec. Sci., 2012 2(1)73-78
     doi.org/10.1002/wcms.81
  2. Neese,F.
     Software update: the ORCA program system, version 4.0
     WIRES Comput. Molec. Sci., 2018 8(1)1-6
     doi.org/10.1002/wcms.1327
  3. Neese,F.; Wennmohs,F.; Becker,U.; Riplinger,C.
     The ORCA quantum chemistry program package
     J. Chem. Phys., 2020 152 Art. No. L224108
     doi.org/10.1063/5.0004608

List of optional additional citations

  1. Neese,F.
     Approximate second-order SCF convergence for spin unrestricted wavefunctions
     Chem. Phys. Lett., 2000 325(1-3)93-98
     doi.org/10.1016/s0009-2614(00)00662-x

Timings for individual modules:

Sum of individual times          ...       44.580 sec (=   0.743 min)
Startup calculation              ...        1.795 sec (=   0.030 min)   4.0 %
SCF iterations                   ...       23.392 sec (=   0.390 min)  52.5 %
Property calculations            ...        0.132 sec (=   0.002 min)   0.3 %
SCF Gradient evaluation          ...       19.262 sec (=   0.321 min)  43.2 %
                             ****ORCA TERMINATED NORMALLY****
TOTAL RUN TIME: 0 days 0 hours 0 minutes 45 seconds 583 msec
  ------------------------------------------------------------------------
          * successful ORCA run, taking over control again...

         :::::::::::::::::::::::::::::::::::::::::::::::::::::
         ::                  ORCA SUMMARY                   ::
         :::::::::::::::::::::::::::::::::::::::::::::::::::::
         :: total energy            -683.948167570064 Eh    ::
         :: gradient norm              0.000493815981 Eh/a0 ::
         :: HOMO-LUMO gap              0.000000000000 eV    ::
         :::::::::::::::::::::::::::::::::::::::::::::::::::::

           -------------------------------------------------
          |                Property Printout                |
           -------------------------------------------------
           -------------------------------------------------
          |                Geometry Summary                 |
           -------------------------------------------------

      molecular mass/u    :      194.1876518
   center of mass at/Å    :       -0.0135158      -0.0189682       0.0164249
  moments of inertia/u·Å² :        0.2502668E+03   0.1580502E+04   0.1701931E+04
rotational constants/cm⁻¹ :        0.6735863E-01   0.1066600E-01   0.9905005E-02

 * 21 selected distances

     #   Z          #   Z                                           value/Å
     1   6 C        2   7 N                                       1.4621995
     2   7 N        3   6 C                                       1.4627526 (max)
     2   7 N        4   6 C                                       1.3434286
     6   6 C        7   6 C                                       1.3980735
     7   6 C        8   6 C                                       1.3862940
     8   6 C        9   6 C                                       1.3909423
     9   6 C       10   6 C                                       1.3918505
     6   6 C       11   6 C                                       1.3977862
    10   6 C       11   6 C                                       1.3852953
    12   7 N       13   8 O                                       1.2301431
    12   7 N       14   8 O                                       1.2301396
     1   6 C       15   1 H                                       1.0928574
     1   6 C       16   1 H                                       1.0903358
     1   6 C       17   1 H                                       1.0966022
     3   6 C       18   1 H                                       1.0892478
     3   6 C       19   1 H                                       1.0951799
     3   6 C       20   1 H                                       1.0952594
     7   6 C       21   1 H                                       1.0846333
     8   6 C       22   1 H                                       1.0823373 (min)
    10   6 C       23   1 H                                       1.0823579
    11   6 C       24   1 H                                       1.0844812

 * 4 distinct bonds (by element types)

   Z      Z             #   av. dist./Å        max./Å        min./Å
   1 H    6 C          10     1.0893292     1.0966022     1.0823373
   6 C    6 C           6     1.3917070     1.3980735     1.3852953
   6 C    7 N           3     1.4227936     1.4627526     1.3434286
   7 N    8 O           2     1.2301413     1.2301431     1.2301396


optimized geometry written to: xtbopt.coord


           -------------------------------------------------
          | TOTAL ENERGY             -683.948167570064 Eh   |
          | GRADIENT NORM               0.000493815981 Eh/α |
           -------------------------------------------------

------------------------------------------------------------------------
 * finished run on 2025/04/11 at 12:32:10.797     
------------------------------------------------------------------------
 total:
 * wall-time:     0 d,  0 h,  2 min,  8.885 sec
 *  cpu-time:     0 d,  0 h,  0 min,  0.409 sec
 * ratio c/w:     0.003 speedup
 SCF:
 * wall-time:     0 d,  0 h,  0 min, 36.670 sec
 *  cpu-time:     0 d,  0 h,  0 min,  0.197 sec
 * ratio c/w:     0.005 speedup
 ANC optimizer:
 * wall-time:     0 d,  0 h,  1 min, 32.195 sec
 *  cpu-time:     0 d,  0 h,  0 min,  0.209 sec
 * ratio c/w:     0.002 speedup

