
                                 *****************
                                 * O   R   C   A *
                                 *****************

                                            #,                                       
                                            ###                                      
                                            ####                                     
                                            #####                                    
                                            ######                                   
                                           ########,                                 
                                     ,,################,,,,,                         
                               ,,#################################,,                 
                          ,,##########################################,,             
                       ,#########################################, ''#####,          
                    ,#############################################,,   '####,        
                  ,##################################################,,,,####,       
                ,###########''''           ''''###############################       
              ,#####''   ,,,,##########,,,,          '''####'''          '####       
            ,##' ,,,,###########################,,,                        '##       
           ' ,,###''''                  '''############,,,                           
         ,,##''                                '''############,,,,        ,,,,,,###''
      ,#''                                            '''#######################'''  
     '                                                          ''''####''''         
             ,#######,   #######,   ,#######,      ##                                
            ,#'     '#,  ##    ##  ,#'     '#,    #''#        ,####,   ,####,        
            ##       ##  ##   ,#'  ##            #'  '#       #'       #'  '#        
            ##       ##  #######   ##           ,######,      #####,   #    #        
            '#,     ,#'  ##    ##  '#,     ,#' ,#      #,     #,   #   #,  ,#        
             '#######'   ##     ##  '#######'  #'      '#     '####' # '####'        



                #########################################################
                #                        -***-                          #
                #          Department of theory and spectroscopy        #
                #                                                       #
                #                      Frank Neese                      #
                #                                                       #
                #     Directorship, Architecture, Infrastructure        #
                #                    SHARK, DRIVERS                     #
                #        Core code/Algorithms in most modules           #
                #                                                       #
                #        Max Planck Institute fuer Kohlenforschung      #
                #                Kaiser Wilhelm Platz 1                 #
                #                 D-45470 Muelheim/Ruhr                 #
                #                      Germany                          #
                #                                                       #
                #                  All rights reserved                  #
                #                        -***-                          #
                #########################################################


                         Program Version 6.0.0  -   RELEASE  -


 With contributions from (in alphabetic order):
   Daniel Aravena         : Magnetic Suceptibility
   Michael Atanasov       : Ab Initio Ligand Field Theory (pilot matlab implementation)
   Alexander A. Auer      : GIAO ZORA, VPT2 properties, NMR spectrum
   Ute Becker             : All parallelization in ORCA, NUMFREQ, NUMCALC
   Giovanni Bistoni       : ED, misc. LED, open-shell LED, HFLD
   Martin Brehm           : Molecular dynamics
   Dmytro Bykov           : pre 5.0 version of the SCF Hessian
   Marcos Casanova-Páez   : Triplet and SCS-CIS(D). UHF-(DLPNO)-IP/EA/STEOM-CCSD. UHF-CVS-IP/STEOM-CCSD
   Vijay G. Chilkuri      : MRCI spin determinant printing, contributions to CSF-ICE
   Pauline Colinet        : FMM embedding
   Dipayan Datta          : RHF DLPNO-CCSD density
   Achintya Kumar Dutta   : EOM-CC, STEOM-CC
   Nicolas Foglia         : Exact transition moments, OPA infrastructure, MCD improvements
   Dmitry Ganyushin       : Spin-Orbit,Spin-Spin,Magnetic field MRCI
   Miquel Garcia          : C-PCM and meta-GGA Hessian, CCSD/C-PCM, Gaussian charge scheme
   Tiago L. C. Gouveia    : GS-ROHF, GS-ROCIS
   Yang Guo               : DLPNO-NEVPT2, F12-NEVPT2, CIM, IAO-localization
   Andreas Hansen         : Spin unrestricted coupled pair/coupled cluster methods
   Ingolf Harden          : AUTO-CI MPn and infrastructure 
   Benjamin Helmich-Paris : MC-RPA, TRAH-(SCF,CASSCF), AVAS, COSX integrals, SCF dyn. polar.
   Lee Huntington         : MR-EOM, pCC
   Robert Izsak           : Overlap fitted RIJCOSX, COSX-SCS-MP3, EOM
   Riya Kayal             : Wick's Theorem for AUTO-CI, AUTO-CI UHF-CCSDT
   Emily Kempfer          : AUTO-CI, RHF CISDT and CCSDT
   Christian Kollmar      : KDIIS, OOCD, Brueckner-CCSD(T), CCSD density, CASPT2, CASPT2-K, improved NEVPT2
   Axel Koslowski         : Symmetry handling
   Simone Kossmann        : Meta GGA functionals, TD-DFT gradient, OOMP2, (MP2 Hessian; deprecated post 5.0)
   Lucas Lang             : DCDCAS
   Marvin Lechner         : AUTO-CI (C++ implementation), FIC-MRCC
   Spencer Leger          : CASSCF response
   Dagmar Lenk            : GEPOL surface, SMD, ORCA-2-JSON
   Dimitrios Liakos       : Extrapolation schemes; Compound Job, initial MDCI parallelization
   Dimitrios Manganas     : Further ROCIS development; embedding schemes. LFT, Crystal Embedding
   Dimitrios Pantazis     : SARC Basis sets
   Anastasios Papadopoulos: AUTO-CI, single reference methods and gradients
   Taras Petrenko         : pre 6.0 DFT Hessian and TD-DFT gradient, (ASA, deprecated), ECA, 1-Electron XAS/XES, NRVS
   Peter Pinski           : DLPNO-MP2, DLPNO-MP2 Gradient
   Christoph Reimann      : Effective Core Potentials
   Marius Retegan         : Local ZFS, SOC
   Christoph Riplinger    : Optimizer, TS searches, QM/MM, DLPNO-CCSD(T), (RO)-DLPNO pert. Triples
   Michael Roemelt        : Original ROCIS implementation
   Masaaki Saitow         : Open-shell DLPNO-CCSD energy and density
   Barbara Sandhoefer     : DKH picture change effects
   Kantharuban Sivalingam : CASSCF convergence/infrastructure, NEVPT2 and variants, FIC-MRCI
   Bernardo de Souza      : ESD, SOC TD-DFT
   Georgi Stoychev        : AutoAux, RI-MP2 NMR, DLPNO-MP2 response, X2C
   Van Anh Tran           : RI-MP2 g-tensors
   Willem Van den Heuvel  : Paramagnetic NMR
   Zikuan Wang            : NOTCH, Electric field optimization 
   Frank Wennmohs         : Technical directorship and infrastructure
   Hang Xu                : AUTO-CI-Response properties 


 We gratefully acknowledge several colleagues who have allowed us to
 interface, adapt or use parts of their codes:
   Stefan Grimme, W. Hujo, H. Kruse, P. Pracht,  : VdW corrections, initial TS optimization,
                  C. Bannwarth, S. Ehlert,         DFT functionals, gCP, sTDA/sTD-DF
                  L. Wittmann, M. Mueller
   Ed Valeev, F. Pavosevic, A. Kumar             : LibInt (2-el integral package), F12 methods
   Garnet Chan, S. Sharma, J. Yang, R. Olivares  : DMRG
   Ulf Ekstrom                                   : XCFun DFT Library
   Mihaly Kallay                                 : mrcc  (arbitrary order and MRCC methods)
   Frank Weinhold                                : gennbo (NPA and NBO analysis)
   Simon Mueller                                 : openCOSMO-RS
   Christopher J. Cramer and Donald G. Truhlar   : smd solvation model
   Lars Goerigk                                  : TD-DFT with DH, B97 family of functionals
   V. Asgeirsson, H. Jonsson                     : NEB implementation
   FAccTs GmbH                                   : IRC, NEB, NEB-TS, DLPNO-Multilevel, CI-OPT
                                                   MM, QMMM, 2- and 3-layer-ONIOM, Crystal-QMMM,
                                                   LR-CPCM, SF, NACMEs, symmetry and pop. for TD-DFT,
                                                   nearIR, NL-DFT gradient (VV10), updates on ESD,
                                                   ML-optimized integration grids, MBIS, APM,
                                                   GOAT, DOCKER, SOLVATOR, interface openCOSMO-RS
   S Lehtola, MJT Oliveira, MAL Marques          : LibXC Library
   Liviu Ungur et al                             : ANISO software


 Your calculation uses the libint2 library for the computation of 2-el integrals
 For citations please refer to: http://libint.valeyev.net

 Your ORCA version has been built with support for libXC version: 6.2.2
 For citations please refer to: https://libxc.gitlab.io

 This ORCA versions uses:
   CBLAS   interface :  Fast vector & matrix operations
   LAPACKE interface :  Fast linear algebra routines
   SCALAPACK package :  Parallel linear algebra routines
   Shared memory     :  Shared parallel matrices
   BLAS/LAPACK       :  OpenBLAS 0.3.27  USE64BITINT DYNAMIC_ARCH NO_AFFINITY SkylakeX SINGLE_THREADED
        Core in use  :  SkylakeX
   Copyright (c) 2011-2014, The OpenBLAS Project


Your calculation utilizes the geometrical counterpoise correction gCP
Please cite in your paper:
H.Kruse, S. Grimme J.Chem.Phys., 136, (2012), 154101 
   

Your calculation utilizes the atom-pairwise dispersion correction
based on EEQ partial charges (D4)


================================================================================

----- Orbital basis set information -----
Your calculation utilizes the basis: def2-SV(P)
   F. Weigend and R. Ahlrichs, Phys. Chem. Chem. Phys. 7, 3297 (2005).

----- AuxJ basis set information -----
Your calculation utilizes the auxiliary basis: def2/J
   F. Weigend, Phys. Chem. Chem. Phys. 8, 1057 (2006).

================================================================================
                                        WARNINGS
                       Please study these warnings very carefully!
================================================================================


================================================================================
                                       INPUT FILE
================================================================================
NAME = sp.inp
|  1> ! pbe def2-sv(p) def2/J RI DEFGRID1 loosescf d4 GCP(DFT/SV(P)) printgap
|  2> %output
|  3>     printlevel normal
|  4> end
|  5> * xyz 0 1
|  6> C 0.533491208 1.6562454879 0.6137163715
|  7> C 1.8778197999 1.9326994491 0.6776246292
|  8> C 2.8389896745 0.966952802 0.3595076689
|  9> C 2.3982292997 -0.3130115345 -0.0266870373
| 10> C 1.0257184963 -0.576168927 -0.0774284182
| 11> C 0.0834908085 0.387071935 0.2327075635
| 12> C -1.3513777853 0.0681895756 0.1702844719
| 13> C -1.8355561827 -1.142761669 0.6656433707
| 14> C -3.1794833913 -1.4622184423 0.6183784905
| 15> C -4.056542768 -0.5523547684 0.0592796509
| 16> C -3.6330036228 0.658300584 -0.4535313983
| 17> C -2.2829999769 0.9429853985 -0.3842257078
| 18> F -1.8700849113 2.1241543233 -0.9125594485
| 19> F -5.3803916054 -0.8517184721 0.0063304694
| 20> C 3.2867359068 -1.4261905353 -0.3935161869
| 21> O 2.8908732769 -2.5305325437 -0.7181171165
| 22> O 4.5941711508 -1.1516364869 -0.3489335456
| 23> O 4.1199966011 1.3419657633 0.4513338307
| 24> H -0.1779134509 2.4239080523 0.8738788769
| 25> H 2.2313484411 2.9064003697 0.9759121643
| 26> H 0.724142529 -1.5636605768 -0.3930687494
| 27> H -1.1395468709 -1.8362843603 1.108456931
| 28> H -3.5490534558 -2.3962619866 1.0070902998
| 29> H -4.3241454146 1.3557942857 -0.8960053447
| 30> H 5.1366482962 -1.9236057502 -0.6016098663
| 31> H 4.7247342274 0.6152096 0.2115641621
| 32> *
| 33> 
| 34>                          ****END OF INPUT****
================================================================================

                       ****************************
                       * Single Point Calculation *
                       ****************************

---------------------------------
CARTESIAN COORDINATES (ANGSTROEM)
---------------------------------
  C      0.533491    1.656245    0.613716
  C      1.877820    1.932699    0.677625
  C      2.838990    0.966953    0.359508
  C      2.398229   -0.313012   -0.026687
  C      1.025718   -0.576169   -0.077428
  C      0.083491    0.387072    0.232708
  C     -1.351378    0.068190    0.170284
  C     -1.835556   -1.142762    0.665643
  C     -3.179483   -1.462218    0.618378
  C     -4.056543   -0.552355    0.059280
  C     -3.633004    0.658301   -0.453531
  C     -2.283000    0.942985   -0.384226
  F     -1.870085    2.124154   -0.912559
  F     -5.380392   -0.851718    0.006330
  C      3.286736   -1.426191   -0.393516
  O      2.890873   -2.530533   -0.718117
  O      4.594171   -1.151636   -0.348934
  O      4.119997    1.341966    0.451334
  H     -0.177913    2.423908    0.873879
  H      2.231348    2.906400    0.975912
  H      0.724143   -1.563661   -0.393069
  H     -1.139547   -1.836284    1.108457
  H     -3.549053   -2.396262    1.007090
  H     -4.324145    1.355794   -0.896005
  H      5.136648   -1.923606   -0.601610
  H      4.724734    0.615210    0.211564

----------------------------
CARTESIAN COORDINATES (A.U.)
----------------------------
  NO LB      ZA    FRAG     MASS         X           Y           Z
   0 C     6.0000    0    12.011    1.008152    3.129850    1.159756
   1 C     6.0000    0    12.011    3.548565    3.652273    1.280525
   2 C     6.0000    0    12.011    5.364913    1.827276    0.679371
   3 C     6.0000    0    12.011    4.531997   -0.591506   -0.050431
   4 C     6.0000    0    12.011    1.938327   -1.088801   -0.146319
   5 C     6.0000    0    12.011    0.157775    0.731460    0.439754
   6 C     6.0000    0    12.011   -2.553734    0.128860    0.321791
   7 C     6.0000    0    12.011   -3.468698   -2.159507    1.257884
   8 C     6.0000    0    12.011   -6.008353   -2.763192    1.168566
   9 C     6.0000    0    12.011   -7.665755   -1.043799    0.112022
  10 C     6.0000    0    12.011   -6.865382    1.244008   -0.857050
  11 C     6.0000    0    12.011   -4.314245    1.781984   -0.726081
  12 F     9.0000    0    18.998   -3.533948    4.014070   -1.724487
  13 F     9.0000    0    18.998  -10.167467   -1.609515    0.011963
  14 C     6.0000    0    12.011    6.211031   -2.695110   -0.743638
  15 O     8.0000    0    15.999    5.462959   -4.782013   -1.357045
  16 O     8.0000    0    15.999    8.681725   -2.176278   -0.659389
  17 O     8.0000    0    15.999    7.785665    2.535948    0.852897
  18 H     1.0000    0     1.008   -0.336208    4.580522    1.651392
  19 H     1.0000    0     1.008    4.216637    5.492301    1.844207
  20 H     1.0000    0     1.008    1.368431   -2.954890   -0.742792
  21 H     1.0000    0     1.008   -2.153432   -3.470075    2.094680
  22 H     1.0000    0     1.008   -6.706739   -4.528279    1.903125
  23 H     1.0000    0     1.008   -8.171451    2.562080   -1.693205
  24 H     1.0000    0     1.008    9.706859   -3.635088   -1.136878
  25 H     1.0000    0     1.008    8.928454    1.162578    0.399798

--------------------------------
INTERNAL COORDINATES (ANGSTROEM)
--------------------------------
 C      0   0   0     0.000000000000     0.00000000     0.00000000
 C      1   0   0     1.373947022656     0.00000000     0.00000000
 C      2   1   0     1.399182802444   121.51260310     0.00000000
 C      3   2   1     1.407737461959   118.35048430   359.70545767
 C      4   3   2     1.398432124350   119.23213428   359.90245523
 C      5   4   3     1.382682284919   121.97735481     0.41884954
 C      6   5   4     1.471200354464   120.27199141   180.16502676
 C      7   6   5     1.395067050692   120.76857468    42.57713635
 C      8   7   6     1.382181949283   121.73145147   179.93553290
 C      9   8   7     1.381910477485   118.60483050     0.22703927
 C     10   9   8     1.381320731037   122.18536405     0.14956254
 C     11  10   9     1.381433518591   117.49268453   359.65665591
 F     12  11  10     1.358232462384   117.18025117   178.81391948
 F     10   9   8     1.358307029798   119.29013361   180.03668038
 C      4   3   2     1.470773641210   124.57239813   179.78844912
 O     15   4   3     1.217228103835   123.82924306   179.55495258
 O     15   4   3     1.336695348481   115.28412223   359.60464934
 O      3   2   1     1.337925824226   116.65752145   179.81871592
 H      1   2   3     1.078465080891   119.40502386   179.52413253
 H      2   1   3     1.077984896240   121.03093324   179.98392006
 H      5   4   3     1.079683583814   117.18473641   179.04093955
 H      8   7   6     1.077722846861   118.70726436     0.84522875
 H      9   8   7     1.077086925885   121.44720546   180.33916388
 H     11  10   9     1.077013293106   121.55796453   179.37683757
 H     17  15   4     0.976761649433   111.85537831   180.03033998
 H     18   3   2     0.975382802564   111.58650376   180.15977591

---------------------------
INTERNAL COORDINATES (A.U.)
---------------------------
 C      0   0   0     0.000000000000     0.00000000     0.00000000
 C      1   0   0     2.596383595336     0.00000000     0.00000000
 C      2   1   0     2.644072307911   121.51260310     0.00000000
 C      3   2   1     2.660238271564   118.35048430   359.70545767
 C      4   3   2     2.642653731898   119.23213428   359.90245523
 C      5   4   3     2.612890848721   121.97735481     0.41884954
 C      6   5   4     2.780165758065   120.27199141   180.16502676
 C      7   6   5     2.636294664266   120.76857468    42.57713635
 C      8   7   6     2.611945351394   121.73145147   179.93553290
 C      9   8   7     2.611432344043   118.60483050     0.22703927
 C     10   9   8     2.610317884768   122.18536405     0.14956254
 C     11  10   9     2.610531022356   117.49268453   359.65665591
 F     12  11  10     2.566687380108   117.18025117   178.81391948
 F     10   9   8     2.566828292099   119.29013361   180.03668038
 C      4   3   2     2.779359386877   124.57239813   179.78844912
 O     15   4   3     2.300227758760   123.82924306   179.55495258
 O     15   4   3     2.525988133116   115.28412223   359.60464934
 O      3   2   1     2.528313395288   116.65752145   179.81871592
 H      1   2   3     2.038003647882   119.40502386   179.52413253
 H      2   1   3     2.037096230398   121.03093324   179.98392006
 H      5   4   3     2.040306284699   117.18473641   179.04093955
 H      8   7   6     2.036601028837   118.70726436     0.84522875
 H      9   8   7     2.035399312350   121.44720546   180.33916388
 H     11  10   9     2.035260166563   121.55796453   179.37683757
 H     17  15   4     1.845812015546   111.85537831   180.03033998
 H     18   3   2     1.843206372583   111.58650376   180.15977591

---------------------
BASIS SET INFORMATION
---------------------
There are 4 groups of distinct atoms

 Group   1 Type C   : 7s4p1d contracted to 3s2p1d pattern {511/31/1}
 Group   2 Type F   : 7s4p1d contracted to 3s2p1d pattern {511/31/1}
 Group   3 Type O   : 7s4p1d contracted to 3s2p1d pattern {511/31/1}
 Group   4 Type H   : 4s contracted to 2s pattern {31}

Atom   0C    basis set group =>   1
Atom   1C    basis set group =>   1
Atom   2C    basis set group =>   1
Atom   3C    basis set group =>   1
Atom   4C    basis set group =>   1
Atom   5C    basis set group =>   1
Atom   6C    basis set group =>   1
Atom   7C    basis set group =>   1
Atom   8C    basis set group =>   1
Atom   9C    basis set group =>   1
Atom  10C    basis set group =>   1
Atom  11C    basis set group =>   1
Atom  12F    basis set group =>   2
Atom  13F    basis set group =>   2
Atom  14C    basis set group =>   1
Atom  15O    basis set group =>   3
Atom  16O    basis set group =>   3
Atom  17O    basis set group =>   3
Atom  18H    basis set group =>   4
Atom  19H    basis set group =>   4
Atom  20H    basis set group =>   4
Atom  21H    basis set group =>   4
Atom  22H    basis set group =>   4
Atom  23H    basis set group =>   4
Atom  24H    basis set group =>   4
Atom  25H    basis set group =>   4
---------------------------------
AUXILIARY/J BASIS SET INFORMATION
---------------------------------
There are 4 groups of distinct atoms

 Group   1 Type C   : 12s5p4d2f1g contracted to 6s4p3d1f1g pattern {711111/2111/211/2/1}
 Group   2 Type F   : 12s5p4d2f1g contracted to 6s4p3d1f1g pattern {711111/2111/211/2/1}
 Group   3 Type O   : 12s5p4d2f1g contracted to 6s4p3d1f1g pattern {711111/2111/211/2/1}
 Group   4 Type H   : 5s2p1d contracted to 3s1p1d pattern {311/2/1}

Atom   0C    basis set group =>   1
Atom   1C    basis set group =>   1
Atom   2C    basis set group =>   1
Atom   3C    basis set group =>   1
Atom   4C    basis set group =>   1
Atom   5C    basis set group =>   1
Atom   6C    basis set group =>   1
Atom   7C    basis set group =>   1
Atom   8C    basis set group =>   1
Atom   9C    basis set group =>   1
Atom  10C    basis set group =>   1
Atom  11C    basis set group =>   1
Atom  12F    basis set group =>   2
Atom  13F    basis set group =>   2
Atom  14C    basis set group =>   1
Atom  15O    basis set group =>   3
Atom  16O    basis set group =>   3
Atom  17O    basis set group =>   3
Atom  18H    basis set group =>   4
Atom  19H    basis set group =>   4
Atom  20H    basis set group =>   4
Atom  21H    basis set group =>   4
Atom  22H    basis set group =>   4
Atom  23H    basis set group =>   4
Atom  24H    basis set group =>   4
Atom  25H    basis set group =>   4
------------------------------------------------------------------------------
                             ORCA STARTUP CALCULATIONS
                           -- RI-GTO INTEGRALS CHOSEN --
------------------------------------------------------------------------------
------------------------------------------------------------------------------
                   ___                                                        
                  /   \      - P O W E R E D   B Y -                         
                 /     \                                                     
                 |  |  |   _    _      __       _____    __    __             
                 |  |  |  | |  | |    /  \     |  _  \  |  |  /  |          
                  \  \/   | |  | |   /    \    | | | |  |  | /  /          
                 / \  \   | |__| |  /  /\  \   | |_| |  |  |/  /          
                |  |  |   |  __  | /  /__\  \  |    /   |      \           
                |  |  |   | |  | | |   __   |  |    \   |  |\   \          
                \     /   | |  | | |  |  |  |  | |\  \  |  | \   \       
                 \___/    |_|  |_| |__|  |__|  |_| \__\ |__|  \__/        
                                                                              
                      - O R C A' S   B I G   F R I E N D -                    
                                      &                                       
                       - I N T E G R A L  F E E D E R -                       
                                                                              
 v1 FN, 2020, v2 2021, v3 2022-2024                                           
------------------------------------------------------------------------------


----------------------
SHARK INTEGRAL PACKAGE
----------------------

Number of atoms                             ...     26
Number of basis functions                   ...    268
Number of shells                            ...    124
Maximum angular momentum                    ...      2
Integral batch strategy                     ... SHARK/LIBINT Hybrid
RI-J (if used) integral strategy            ... SPLIT-RIJ (Revised 2003 algorithm where possible)
Printlevel                                  ...      1
Contraction scheme used                     ... SEGMENTED contraction
Prescreening option                         ... SCHWARTZ
   Thresh                                   ... 1.000e-09
   Tcut                                     ... 1.000e-10
   Tpresel                                  ... 1.000e-10 
Coulomb Range Separation                    ... NOT USED
Exchange Range Separation                   ... NOT USED
Multipole approximations                    ... NOT USED
Finite Nucleus Model                        ... NOT USED
CABS basis                                  ... NOT available
Auxiliary Coulomb fitting basis             ... AVAILABLE
   # of basis functions in Aux-J            ...    970
   # of shells in Aux-J                     ...    310
   Maximum angular momentum in Aux-J        ...      4
Auxiliary J/K fitting basis                 ... NOT available
Auxiliary Correlation fitting basis         ... NOT available
Auxiliary 'external' fitting basis          ... NOT available

Checking pre-screening integrals            ... done (  0.0 sec) Dimension = 124
Check shell pair data                       ... done (  0.0 sec)
Shell pair information
Shell pair cut-off parameter TPreSel        ...   1.0e-10
Total number of shell pairs                 ...      7750
Shell pairs after pre-screening             ...      5795
Total number of primitive shell pairs       ...     31134
Primitive shell pairs kept                  ...     14864
          la=0 lb=0:   1814 shell pairs
          la=1 lb=0:   1989 shell pairs
          la=1 lb=1:    565 shell pairs
          la=2 lb=0:    845 shell pairs
          la=2 lb=1:    481 shell pairs
          la=2 lb=2:    101 shell pairs

Calculating one electron integrals          ... done (  0.0 sec)
Calculating RI/J V-Matrix + Cholesky decomp.... done (  0.2 sec)
Calculating Nuclear repulsion               ... done (  0.0 sec) ENN=   1233.458266273374 Eh

Diagonalization of the overlap matrix:
Smallest eigenvalue                        ... 2.205e-04
Time for diagonalization                   ...    0.008 sec
Threshold for overlap eigenvalues          ... 1.000e-07
Number of eigenvalues below threshold      ... 0
Time for construction of square roots      ...    0.017 sec
Total time needed                          ...    0.033 sec

-------------------
DFT GRID GENERATION
-------------------

General Integration Accuracy     IntAcc      ... 4.159
Radial Grid Type                 RadialGrid  ... OptM3 with GC (2021)
Angular Grid (max. ang.)         AngularGrid ... 3 (Lebedev-194)
Angular grid pruning method      GridPruning ... 4 (adaptive)
Weight generation scheme         WeightScheme... mBecke (2022)
Basis function cutoff            BFCut       ... 1.0000e-10
Integration weight cutoff        WCut        ... 1.0000e-14
Partially contracted basis set               ... off
Rotationally invariant grid construction     ... off
Angular grids for H and He will be reduced by one unit

Total number of grid points                  ...    69949
Total number of batches                      ...     1107
Average number of points per batch           ...       63
Average number of grid points per atom       ...     2690
Initializing property integral containers    ... done (  0.0 sec)

SHARK setup successfully completed in   1.4 seconds

Maximum memory used throughout the entire STARTUP-calculation: 35.7 MB
-------------------------------------------------------------------------------
                                 ORCA GUESS
                   Start orbitals & Density for SCF / CASSCF
-------------------------------------------------------------------------------

------------
SCF SETTINGS
------------
Hamiltonian:
 Density Functional     Method          .... DFT(GTOs)
 Exchange Functional    Exchange        .... PBE
   PBE kappa parameter   XKappa         ....  0.804000
   PBE mue parameter    XMuePBE         ....  0.219520
 Correlation Functional Correlation     .... PBE
   PBE beta parameter  CBetaPBE         ....  0.066725
 LDA part of GGA corr.  LDAOpt          .... PW91-LDA
 Gradients option       PostSCFGGA      .... off
   NL short-range parameter             ....  6.400000
 RI-approximation to the Coulomb term is turned on
   Number of AuxJ basis functions       .... 970


General Settings:
 Integral files         IntName         .... sp
 Hartree-Fock type      HFTyp           .... RHF
 Total Charge           Charge          ....    0
 Multiplicity           Mult            ....    1
 Number of Electrons    NEL             ....  128
 Basis Dimension        Dim             ....  268
 Nuclear Repulsion      ENuc            ....   1233.4582662734 Eh

Convergence Acceleration:
 AO-DIIS                CNVDIIS         .... on
   Start iteration      DIISMaxIt       ....    12
   Startup error        DIISStart       ....  0.200000
   # of expansion vecs  DIISMaxEq       ....     5
   Bias factor          DIISBfac        ....   1.050
   Max. coefficient     DIISMaxC        ....  10.000
 MO-DIIS                CNVKDIIS        .... off
 Trust-Rad. Augm. Hess. CNVTRAH         .... auto
   Auto Start mean grad. ratio tolernc. ....  1.125000
   Auto Start start iteration           ....    50
   Auto Start num. interpolation iter.  ....    10
   Max. Number of Micro iterations      ....    24
   Max. Number of Macro iterations      .... Maxiter - #DIIS iter
   Number of Davidson start vectors     ....     2
   Converg. threshold    (grad. norm)   ....   1.000e-04
   Grad. Scal. Fac. for Micro threshold ....   0.100
   Minimum threshold for Micro iter.    ....   1.000e-02
   NR start threshold (gradient norm)   ....   1.000e-04
   Initial trust radius                 ....   0.400
   Minimum AH scaling param. (alpha)    ....   1.000
   Maximum AH scaling param. (alpha)    .... 1000.000
   Quad. conv. algorithm                .... NR
   White noise on init. David. guess    .... on
   Maximum white noise                  ....   0.010
   Pseudo random numbers                .... off
   Inactive MOs                         .... canonical
   Orbital update algorithm             .... Taylor
   Preconditioner                       .... Diag
   Full preconditioner red. dimension   ....   250
 SOSCF                  CNVSOSCF        .... on
   Start iteration      SOSCFMaxIt      ....   150
   Startup grad/error   SOSCFStart      ....  0.003300
   Hessian update       SOSCFHessUp     .... L-BFGS
 Level Shifting         CNVShift        .... on
   Level shift para.    LevelShift      ....    0.2500
   Turn off err/grad.   ShiftErr        ....    0.0010
 Zerner damping         CNVZerner       .... off
 Static damping         CNVDamp         .... on
   Fraction old density DampFac         ....    0.7000
   Max. Damping (<1)    DampMax         ....    0.9800
   Min. Damping (>=0)   DampMin         ....    0.0000
   Turn off err/grad.   DampErr         ....    0.1000

SCF Procedure:
 Maximum # iterations   MaxIter         ....   125
 SCF integral mode      SCFMode         .... Direct
   Integral package                     .... SHARK and LIBINT hybrid scheme
 Reset frequency        DirectResetFreq ....    20
 Integral Threshold     Thresh          ....  1.000e-09 Eh
 Primitive CutOff       TCut            ....  1.000e-10 Eh

Convergence Tolerance:
 Convergence Check Mode ConvCheckMode   .... Total+1el-Energy
 Convergence forced     ConvForced      .... 0
 Energy Change          TolE            ....  1.000e-05 Eh
 1-El. energy change                    ....  1.000e-02 Eh
 Orbital Gradient       TolG            ....  1.000e-04
 Orbital Rotation angle TolX            ....  1.000e-04
 DIIS Error             TolErr          ....  5.000e-04

------------------------------
INITIAL GUESS: MODEL POTENTIAL
------------------------------
Loading Hartree-Fock densities                     ... done
Calculating cut-offs                               ... done
Initializing the effective Hamiltonian             ... done
Setting up the integral package (SHARK)            ... done
Starting the Coulomb interaction                   ... done (   0.5 sec)
Making the grid                                    ... done (   0.5 sec)
Mapping shells                                     ... done
Starting the XC term evaluation                    ... done (   0.4 sec)
  promolecular density results
     # of electrons  =    127.996156132
     EX              =   -113.392597117
     EC              =     -4.356221501
     EX+EC           =   -117.748818618
Transforming the Hamiltonian                       ... done (   0.0 sec)
Diagonalizing the Hamiltonian                      ... done (   0.0 sec)
Back transforming the eigenvectors                 ... done (   0.0 sec)
Now organizing SCF variables                       ... done
                      ------------------
                      INITIAL GUESS DONE (   1.5 sec)
                      ------------------
             **** ENERGY FILE WAS UPDATED (sp.en.tmp) ****
Finished Guess after   1.8 sec
Maximum memory used throughout the entire GUESS-calculation: 28.3 MB

-------------------------------------------------------------------------------------------
                                      ORCA LEAN-SCF
                              memory conserving SCF solver
-------------------------------------------------------------------------------------------

----------------------------------------D-I-I-S--------------------------------------------
Iteration    Energy (Eh)           Delta-E    RMSDP     MaxDP     DIISErr   Damp  Time(sec)
-------------------------------------------------------------------------------------------
               ***  Starting incremental Fock matrix formation  ***
    1    -923.5131214914233624     0.00e+00  3.51e-03  1.46e-01  2.49e-01  0.700   2.2
    2    -923.6778789863076327    -1.65e-01  2.12e-03  7.89e-02  7.70e-02  0.700   2.2
                               ***Turning on AO-DIIS***
    3    -923.7297937999180704    -5.19e-02  8.43e-04  2.26e-02  2.70e-02  0.700   2.1
    4    -923.7643640843564299    -3.46e-02  1.51e-03  5.01e-02  1.65e-02  0.000   2.1
    5    -923.8428177945359039    -7.85e-02  3.88e-04  7.36e-03  6.43e-03  0.000   2.1
    6    -923.8435794239705956    -7.62e-04  1.36e-04  2.57e-03  3.57e-03  0.000   2.0
                              *** Initializing SOSCF ***
---------------------------------------S-O-S-C-F--------------------------------------
Iteration    Energy (Eh)           Delta-E    RMSDP     MaxDP     MaxGrad    Time(sec)
--------------------------------------------------------------------------------------
    7    -923.8436612654697910    -8.18e-05  5.54e-05  1.84e-03  1.15e-03     2.0
               *** Restarting incremental Fock matrix formation ***
    8    -923.8436700798235961    -8.81e-06  3.77e-05  8.73e-04  1.41e-04     2.3
    9    -923.8436691506551597     9.29e-07  1.99e-05  5.38e-04  1.98e-04     1.8
                 **** Energy Check signals convergence ****

               *****************************************************
               *                     SUCCESS                       *
               *           SCF CONVERGED AFTER   9 CYCLES          *
               *****************************************************

             **** ENERGY FILE WAS UPDATED (sp.en.tmp) ****

----------------
TOTAL SCF ENERGY
----------------

Total Energy       :       -923.84366915065516 Eh          -25139.06428 eV

Components:
Nuclear Repulsion  :       1233.45826627337442 Eh           33564.10579 eV
Electronic Energy  :      -2157.30193542402958 Eh          -58703.17007 eV
One Electron Energy:      -3714.53482022264780 Eh         -101077.63115 eV
Two Electron Energy:       1557.23288479861822 Eh           42374.46107 eV

Virial components:
Potential Energy   :      -1840.82005060761708 Eh          -50091.26017 eV
Kinetic Energy     :        916.97638145696192 Eh           24952.19588 eV
Virial Ratio       :          2.00748905624241

DFT components:
N(Alpha)           :       63.999824539097 electrons
N(Beta)            :       63.999824539097 electrons
N(Total)           :      127.999649078193 electrons
E(X)               :     -114.803089266875 Eh       
E(C)               :       -4.373491186518 Eh       
E(XC)              :     -119.176580453393 Eh       

---------------
SCF CONVERGENCE
---------------

  Last Energy change         ...   -9.2917e-07  Tolerance :   1.0000e-05
  Last MAX-Density change    ...    5.3765e-04  Tolerance :   1.0000e-03
  Last RMS-Density change    ...    1.9864e-05  Tolerance :   1.0000e-04
  Last DIIS Error            ...    1.1533e-03  Tolerance :   5.0000e-04
  Last Orbital Gradient      ...    1.9784e-04  Tolerance :   1.0000e-04
  Last Orbital Rotation      ...    6.3279e-04  Tolerance :   1.0000e-04


----------------
ORBITAL ENERGIES
----------------

  NO   OCC          E(Eh)            E(eV) 
   0   2.0000     -24.280347      -660.7018 
   1   2.0000     -24.275148      -660.5604 
   2   2.0000     -18.828424      -512.3475 
   3   2.0000     -18.793048      -511.3848 
   4   2.0000     -18.749509      -510.2001 
   5   2.0000     -10.029651      -272.9207 
   6   2.0000      -9.986624      -271.7499 
   7   2.0000      -9.984889      -271.7026 
   8   2.0000      -9.974013      -271.4067 
   9   2.0000      -9.917222      -269.8613 
  10   2.0000      -9.917082      -269.8575 
  11   2.0000      -9.913305      -269.7548 
  12   2.0000      -9.912203      -269.7248 
  13   2.0000      -9.908359      -269.6202 
  14   2.0000      -9.908180      -269.6153 
  15   2.0000      -9.907269      -269.5905 
  16   2.0000      -9.905570      -269.5443 
  17   2.0000      -9.898977      -269.3649 
  18   2.0000      -1.107236       -30.1294 
  19   2.0000      -1.101938       -29.9853 
  20   2.0000      -1.030548       -28.0426 
  21   2.0000      -0.979037       -26.6409 
  22   2.0000      -0.925480       -25.1836 
  23   2.0000      -0.805265       -21.9124 
  24   2.0000      -0.785451       -21.3732 
  25   2.0000      -0.718250       -19.5446 
  26   2.0000      -0.701782       -19.0965 
  27   2.0000      -0.689501       -18.7623 
  28   2.0000      -0.659777       -17.9534 
  29   2.0000      -0.625862       -17.0306 
  30   2.0000      -0.583159       -15.8686 
  31   2.0000      -0.577049       -15.7023 
  32   2.0000      -0.554231       -15.0814 
  33   2.0000      -0.544566       -14.8184 
  34   2.0000      -0.522502       -14.2180 
  35   2.0000      -0.508119       -13.8266 
  36   2.0000      -0.475962       -12.9516 
  37   2.0000      -0.467018       -12.7082 
  38   2.0000      -0.451571       -12.2879 
  39   2.0000      -0.446765       -12.1571 
  40   2.0000      -0.437193       -11.8966 
  41   2.0000      -0.425383       -11.5753 
  42   2.0000      -0.423505       -11.5242 
  43   2.0000      -0.412977       -11.2377 
  44   2.0000      -0.406303       -11.0561 
  45   2.0000      -0.399469       -10.8701 
  46   2.0000      -0.393512       -10.7080 
  47   2.0000      -0.385667       -10.4945 
  48   2.0000      -0.376629       -10.2486 
  49   2.0000      -0.372572       -10.1382 
  50   2.0000      -0.366527        -9.9737 
  51   2.0000      -0.350881        -9.5480 
  52   2.0000      -0.339533        -9.2392 
  53   2.0000      -0.325687        -8.8624 
  54   2.0000      -0.318430        -8.6649 
  55   2.0000      -0.316087        -8.6012 
  56   2.0000      -0.308981        -8.4078 
  57   2.0000      -0.300520        -8.1776 
  58   2.0000      -0.292657        -7.9636 
  59   2.0000      -0.243911        -6.6372 
  60   2.0000      -0.242723        -6.6048 
  61   2.0000      -0.240886        -6.5549 
  62   2.0000      -0.234266        -6.3747 
  63   2.0000      -0.198974        -5.4143 
  64   0.0000      -0.081949        -2.2300 
  65   0.0000      -0.058987        -1.6051 
  66   0.0000      -0.046965        -1.2780 
  67   0.0000      -0.018356        -0.4995 
  68   0.0000       0.006489         0.1766 
  69   0.0000       0.016473         0.4482 
  70   0.0000       0.033782         0.9192 
  71   0.0000       0.056980         1.5505 
  72   0.0000       0.076008         2.0683 
  73   0.0000       0.080225         2.1830 
  74   0.0000       0.096082         2.6145 
*Only the first 10 virtual orbitals were printed.

                    ********************************
                    * MULLIKEN POPULATION ANALYSIS *
                    ********************************

-----------------------
MULLIKEN ATOMIC CHARGES
-----------------------
   0 C :   -0.080387
   1 C :   -0.125847
   2 C :    0.162808
   3 C :   -0.027522
   4 C :   -0.206350
   5 C :    0.154004
   6 C :    0.041206
   7 C :   -0.120016
   8 C :   -0.139758
   9 C :    0.355255
  10 C :   -0.260048
  11 C :    0.256997
  12 F :   -0.164274
  13 F :   -0.173615
  14 C :    0.132472
  15 O :   -0.178012
  16 O :   -0.337542
  17 O :   -0.302343
  18 H :    0.056365
  19 H :    0.050578
  20 H :    0.064125
  21 H :    0.064265
  22 H :    0.061124
  23 H :    0.063658
  24 H :    0.329999
  25 H :    0.322859
Sum of atomic charges:    0.0000000

--------------------------------
MULLIKEN REDUCED ORBITAL CHARGES
--------------------------------
  0 C s       :     3.277181  s :     3.277181
      pz      :     0.950157  p :     2.767485
      px      :     0.884624
      py      :     0.932704
      dz2     :     0.003301  d :     0.035721
      dxz     :     0.006124
      dyz     :     0.004567
      dx2y2   :     0.008812
      dxy     :     0.012917

  1 C s       :     3.302191  s :     3.302191
      pz      :     1.025254  p :     2.791698
      px      :     0.908934
      py      :     0.857510
      dz2     :     0.002962  d :     0.031959
      dxz     :     0.006102
      dyz     :     0.003142
      dx2y2   :     0.008506
      dxy     :     0.011247

  2 C s       :     2.961949  s :     2.961949
      pz      :     0.953195  p :     2.800338
      px      :     0.806957
      py      :     1.040186
      dz2     :     0.006298  d :     0.074905
      dxz     :     0.017667
      dyz     :     0.007084
      dx2y2   :     0.021598
      dxy     :     0.022258

  3 C s       :     3.085684  s :     3.085684
      pz      :     1.099255  p :     2.906601
      px      :     0.887386
      py      :     0.919961
      dz2     :     0.003376  d :     0.035236
      dxz     :     0.005885
      dyz     :     0.004995
      dx2y2   :     0.008852
      dxy     :     0.012128

  4 C s       :     3.407935  s :     3.407935
      pz      :     0.937393  p :     2.763530
      px      :     0.999631
      py      :     0.826506
      dz2     :     0.003049  d :     0.034885
      dxz     :     0.007474
      dyz     :     0.003544
      dx2y2   :     0.011477
      dxy     :     0.009342

  5 C s       :     2.976297  s :     2.976297
      pz      :     1.003748  p :     2.828868
      px      :     0.926694
      py      :     0.898426
      dz2     :     0.003592  d :     0.040832
      dxz     :     0.006958
      dyz     :     0.005759
      dx2y2   :     0.012629
      dxy     :     0.011894

  6 C s       :     3.023923  s :     3.023923
      pz      :     1.019402  p :     2.895401
      px      :     0.941260
      py      :     0.934739
      dz2     :     0.004642  d :     0.039470
      dxz     :     0.008357
      dyz     :     0.005368
      dx2y2   :     0.009173
      dxy     :     0.011930

  7 C s       :     3.274825  s :     3.274825
      pz      :     0.964756  p :     2.809897
      px      :     0.883873
      py      :     0.961268
      dz2     :     0.003169  d :     0.035293
      dxz     :     0.007050
      dyz     :     0.005139
      dx2y2   :     0.008413
      dxy     :     0.011522

  8 C s       :     3.279904  s :     3.279904
      pz      :     1.019988  p :     2.826967
      px      :     0.942577
      py      :     0.864402
      dz2     :     0.003557  d :     0.032887
      dxz     :     0.006941
      dyz     :     0.003978
      dx2y2   :     0.007653
      dxy     :     0.010757

  9 C s       :     2.922879  s :     2.922879
      pz      :     0.990971  p :     2.642290
      px      :     0.703358
      py      :     0.947961
      dz2     :     0.008941  d :     0.079576
      dxz     :     0.016219
      dyz     :     0.007139
      dx2y2   :     0.025150
      dxy     :     0.022127

 10 C s       :     3.396713  s :     3.396713
      pz      :     1.024126  p :     2.832738
      px      :     0.903169
      py      :     0.905443
      dz2     :     0.003399  d :     0.030597
      dxz     :     0.005909
      dyz     :     0.005003
      dx2y2   :     0.007835
      dxy     :     0.008452

 11 C s       :     3.017475  s :     3.017475
      pz      :     0.964940  p :     2.646827
      px      :     0.912038
      py      :     0.769849
      dz2     :     0.009106  d :     0.078701
      dxz     :     0.011455
      dyz     :     0.014946
      dx2y2   :     0.022264
      dxy     :     0.020931

 12 F s       :     3.896264  s :     3.896264
      pz      :     1.817380  p :     5.260344
      px      :     1.870859
      py      :     1.572105
      dz2     :     0.001056  d :     0.007665
      dxz     :     0.000542
      dyz     :     0.002220
      dx2y2   :     0.002077
      dxy     :     0.001770

 13 F s       :     3.895779  s :     3.895779
      pz      :     1.887022  p :     5.270212
      px      :     1.493158
      py      :     1.890032
      dz2     :     0.000991  d :     0.007624
      dxz     :     0.001819
      dyz     :     0.000115
      dx2y2   :     0.002733
      dxy     :     0.001966

 14 C s       :     3.014144  s :     3.014144
      pz      :     0.878284  p :     2.723991
      px      :     0.856763
      py      :     0.988944
      dz2     :     0.010664  d :     0.129393
      dxz     :     0.018704
      dyz     :     0.019197
      dx2y2   :     0.042295
      dxy     :     0.038534

 15 O s       :     3.727989  s :     3.727989
      pz      :     1.401744  p :     4.432600
      px      :     1.672343
      py      :     1.358514
      dz2     :     0.002290  d :     0.017422
      dxz     :     0.000983
      dyz     :     0.004916
      dx2y2   :     0.004888
      dxy     :     0.004346

 16 O s       :     3.729076  s :     3.729076
      pz      :     1.770671  p :     4.593990
      px      :     1.279860
      py      :     1.543459
      dz2     :     0.001958  d :     0.014477
      dxz     :     0.002129
      dyz     :     0.001615
      dx2y2   :     0.003388
      dxy     :     0.005388

 17 O s       :     3.720684  s :     3.720684
      pz      :     1.757654  p :     4.565237
      px      :     1.230946
      py      :     1.576637
      dz2     :     0.002234  d :     0.016422
      dxz     :     0.002456
      dyz     :     0.001968
      dx2y2   :     0.002797
      dxy     :     0.006967

 18 H s       :     0.943635  s :     0.943635

 19 H s       :     0.949422  s :     0.949422

 20 H s       :     0.935875  s :     0.935875

 21 H s       :     0.935735  s :     0.935735

 22 H s       :     0.938876  s :     0.938876

 23 H s       :     0.936342  s :     0.936342

 24 H s       :     0.670001  s :     0.670001

 25 H s       :     0.677141  s :     0.677141


------------------------
MULLIKEN OVERLAP CHARGES
------------------------
B(  0-C ,  1-C ) :   0.2628 B(  0-C ,  2-C ) :   0.4263 B(  0-C ,  3-C ) :  -0.3737 
B(  0-C ,  4-C ) :   0.2398 B(  0-C ,  5-C ) :   0.1734 B(  0-C ,  6-C ) :  -0.2565 
B(  0-C , 18-H ) :   0.8829 B(  0-C , 19-H ) :  -0.1999 B(  1-C ,  2-C ) :   0.3736 
B(  1-C ,  3-C ) :   0.0955 B(  1-C ,  4-C ) :  -0.2947 B(  1-C ,  5-C ) :   0.4157 
B(  1-C , 17-O ) :  -0.1639 B(  1-C , 18-H ) :  -0.1711 B(  1-C , 19-H ) :   0.8549 
B(  2-C ,  3-C ) :  -0.2708 B(  2-C ,  4-C ) :   0.2579 B(  2-C ,  5-C ) :  -0.4672 
B(  2-C , 14-C ) :  -0.1619 B(  2-C , 17-O ) :   0.9873 B(  2-C , 19-H ) :  -0.1591 
B(  2-C , 25-H ) :  -0.0512 B(  3-C ,  4-C ) :   0.4228 B(  3-C ,  5-C ) :   0.3367 
B(  3-C , 14-C ) :   0.1747 B(  3-C , 15-O ) :  -0.3132 B(  3-C , 16-O ) :  -0.2852 
B(  3-C , 17-O ) :  -0.2097 B(  3-C , 19-H ) :   0.0599 B(  3-C , 20-H ) :  -0.1692 
B(  4-C ,  5-C ) :   0.1468 B(  4-C ,  6-C ) :  -0.2230 B(  4-C , 14-C ) :  -0.1625 
B(  4-C , 20-H ) :   0.8610 B(  5-C ,  6-C ) :   0.5986 B(  5-C ,  7-C ) :  -0.2053 
B(  5-C , 11-C ) :  -0.2068 B(  5-C , 14-C ) :   0.0645 B(  5-C , 18-H ) :  -0.1601 
B(  5-C , 20-H ) :  -0.1582 B(  5-C , 21-H ) :  -0.0617 B(  6-C ,  7-C ) :   0.2873 
B(  6-C ,  8-C ) :   0.3724 B(  6-C ,  9-C ) :  -0.4459 B(  6-C , 10-C ) :   0.2005 
B(  6-C , 12-F ) :  -0.1768 B(  6-C , 18-H ) :  -0.0532 B(  6-C , 21-H ) :  -0.1400 
B(  7-C ,  8-C ) :   0.0928 B(  7-C ,  9-C ) :   0.4774 B(  7-C , 10-C ) :  -0.3267 
B(  7-C , 11-C ) :   0.3305 B(  7-C , 21-H ) :   0.8764 B(  7-C , 22-H ) :  -0.1692 
B(  8-C ,  9-C ) :   0.0879 B(  8-C , 10-C ) :   0.1834 B(  8-C , 11-C ) :  -0.3935 
B(  8-C , 13-F ) :  -0.1394 B(  8-C , 21-H ) :  -0.1651 B(  8-C , 22-H ) :   0.8585 
B(  9-C , 10-C ) :  -0.0813 B(  9-C , 11-C ) :   0.5637 B(  9-C , 13-F ) :   0.7600 
B(  9-C , 22-H ) :  -0.1644 B(  9-C , 23-H ) :  -0.1621 B( 10-C , 12-F ) :  -0.1388 
B( 10-C , 13-F ) :  -0.1429 B( 10-C , 23-H ) :   0.8270 B( 11-C , 12-F ) :   0.7897 
B( 11-C , 23-H ) :  -0.1539 B( 14-C , 15-O ) :   1.5193 B( 14-C , 16-O ) :   0.7812 
B( 15-O , 16-O ) :  -0.1744 B( 15-O , 20-H ) :   0.0512 B( 16-O , 24-H ) :   0.4834 
B( 16-O , 25-H ) :   0.0885 B( 17-O , 25-H ) :   0.5401 


                     *******************************
                     * LOEWDIN POPULATION ANALYSIS *
                     *******************************

----------------------
LOEWDIN ATOMIC CHARGES
----------------------
   0 C :   -0.084834
   1 C :   -0.141265
   2 C :    0.044663
   3 C :   -0.127392
   4 C :   -0.073430
   5 C :   -0.049759
   6 C :   -0.064387
   7 C :   -0.095003
   8 C :   -0.158451
   9 C :    0.074319
  10 C :   -0.174101
  11 C :    0.082265
  12 F :   -0.045245
  13 F :   -0.053867
  14 C :    0.043104
  15 O :   -0.166405
  16 O :   -0.219883
  17 O :   -0.212160
  18 H :    0.130358
  19 H :    0.135190
  20 H :    0.138497
  21 H :    0.134628
  22 H :    0.138956
  23 H :    0.148329
  24 H :    0.307590
  25 H :    0.288282

-------------------------------
LOEWDIN REDUCED ORBITAL CHARGES
-------------------------------
  0 C s       :     2.892925  s :     2.892925
      pz      :     0.960908  p :     3.098818
      px      :     1.082118
      py      :     1.055792
      dz2     :     0.007468  d :     0.093091
      dxz     :     0.013516
      dyz     :     0.009935
      dx2y2   :     0.026593
      dxy     :     0.035578

  1 C s       :     2.893317  s :     2.893317
      pz      :     1.029431  p :     3.161122
      px      :     1.076575
      py      :     1.055116
      dz2     :     0.006883  d :     0.086827
      dxz     :     0.014003
      dyz     :     0.006218
      dx2y2   :     0.026869
      dxy     :     0.032854

  2 C s       :     2.835786  s :     2.835786
      pz      :     0.951352  p :     2.939805
      px      :     0.914662
      py      :     1.073790
      dz2     :     0.013943  d :     0.179746
      dxz     :     0.036753
      dyz     :     0.016022
      dx2y2   :     0.054580
      dxy     :     0.058449

  3 C s       :     2.856440  s :     2.856440
      pz      :     1.069778  p :     3.168287
      px      :     1.062313
      py      :     1.036196
      dz2     :     0.008807  d :     0.102664
      dxz     :     0.013453
      dyz     :     0.012081
      dx2y2   :     0.030330
      dxy     :     0.037993

  4 C s       :     2.892547  s :     2.892547
      pz      :     0.965668  p :     3.089322
      px      :     1.055152
      py      :     1.068502
      dz2     :     0.006820  d :     0.091560
      dxz     :     0.017223
      dyz     :     0.007013
      dx2y2   :     0.032974
      dxy     :     0.027530

  5 C s       :     2.835051  s :     2.835051
      pz      :     1.005073  p :     3.102912
      px      :     1.024356
      py      :     1.073483
      dz2     :     0.008750  d :     0.111795
      dxz     :     0.014995
      dyz     :     0.013867
      dx2y2   :     0.038141
      dxy     :     0.036043

  6 C s       :     2.842845  s :     2.842845
      pz      :     1.024156  p :     3.113414
      px      :     1.032517
      py      :     1.056741
      dz2     :     0.010746  d :     0.108128
      dxz     :     0.019163
      dyz     :     0.014438
      dx2y2   :     0.028967
      dxy     :     0.034814

  7 C s       :     2.888450  s :     2.888450
      pz      :     0.997447  p :     3.113670
      px      :     1.070016
      py      :     1.046207
      dz2     :     0.007417  d :     0.092883
      dxz     :     0.016325
      dyz     :     0.011753
      dx2y2   :     0.025228
      dxy     :     0.032161

  8 C s       :     2.892793  s :     2.892793
      pz      :     1.040734  p :     3.177214
      px      :     1.078317
      py      :     1.058163
      dz2     :     0.007979  d :     0.088444
      dxz     :     0.017266
      dyz     :     0.008756
      dx2y2   :     0.023955
      dxy     :     0.030488

  9 C s       :     2.850528  s :     2.850528
      pz      :     1.010930  p :     2.888524
      px      :     0.805139
      py      :     1.072456
      dz2     :     0.019288  d :     0.186630
      dxz     :     0.034339
      dyz     :     0.017344
      dx2y2   :     0.060011
      dxy     :     0.055648

 10 C s       :     2.899613  s :     2.899613
      pz      :     1.059547  p :     3.190424
      px      :     1.065543
      py      :     1.065334
      dz2     :     0.007841  d :     0.084063
      dxz     :     0.013573
      dyz     :     0.011903
      dx2y2   :     0.025501
      dxy     :     0.025246

 11 C s       :     2.851151  s :     2.851151
      pz      :     0.972589  p :     2.881752
      px      :     1.064048
      py      :     0.845115
      dz2     :     0.019359  d :     0.184831
      dxz     :     0.025793
      dyz     :     0.032184
      dx2y2   :     0.054464
      dxy     :     0.053033

 12 F s       :     3.731918  s :     3.731918
      pz      :     1.823241  p :     5.301187
      px      :     1.873701
      py      :     1.604245
      dz2     :     0.001579  d :     0.012140
      dxz     :     0.000797
      dyz     :     0.003603
      dx2y2   :     0.003386
      dxy     :     0.002775

 13 F s       :     3.733013  s :     3.733013
      pz      :     1.885287  p :     5.308851
      px      :     1.533232
      py      :     1.890332
      dz2     :     0.001730  d :     0.012004
      dxz     :     0.002538
      dyz     :     0.000153
      dx2y2   :     0.004647
      dxy     :     0.002936

 14 C s       :     2.838625  s :     2.838625
      pz      :     0.869568  p :     2.824342
      px      :     0.918625
      py      :     1.036148
      dz2     :     0.023185  d :     0.293929
      dxz     :     0.038774
      dyz     :     0.039128
      dx2y2   :     0.099473
      dxy     :     0.093369

 15 O s       :     3.551238  s :     3.551238
      pz      :     1.411840  p :     4.584448
      px      :     1.703373
      py      :     1.469235
      dz2     :     0.004095  d :     0.030719
      dxz     :     0.001460
      dyz     :     0.007582
      dx2y2   :     0.009455
      dxy     :     0.008127

 16 O s       :     3.497101  s :     3.497101
      pz      :     1.758572  p :     4.695207
      px      :     1.348401
      py      :     1.588234
      dz2     :     0.003696  d :     0.027575
      dxz     :     0.003611
      dyz     :     0.002114
      dx2y2   :     0.007724
      dxy     :     0.010430

 17 O s       :     3.489094  s :     3.489094
      pz      :     1.757176  p :     4.693850
      px      :     1.307016
      py      :     1.629659
      dz2     :     0.003633  d :     0.029217
      dxz     :     0.004260
      dyz     :     0.002339
      dx2y2   :     0.006041
      dxy     :     0.012944

 18 H s       :     0.869642  s :     0.869642

 19 H s       :     0.864810  s :     0.864810

 20 H s       :     0.861503  s :     0.861503

 21 H s       :     0.865372  s :     0.865372

 22 H s       :     0.861044  s :     0.861044

 23 H s       :     0.851671  s :     0.851671

 24 H s       :     0.692410  s :     0.692410

 25 H s       :     0.711718  s :     0.711718


---------------------------------
LOEWDIN BOND ORDERS (THRESH 0.050000)
---------------------------------
B(  0-C ,  1-C ) :   1.5616 B(  0-C ,  2-C ) :   0.0901 B(  0-C ,  3-C ) :   0.0879 
B(  0-C ,  4-C ) :   0.0858 B(  0-C ,  5-C ) :   1.3574 B(  0-C ,  6-C ) :   0.0726 
B(  0-C , 18-H ) :   0.8803 B(  1-C ,  2-C ) :   1.3690 B(  1-C ,  3-C ) :   0.0866 
B(  1-C ,  4-C ) :   0.1106 B(  1-C ,  5-C ) :   0.0890 B(  1-C , 17-O ) :   0.1064 
B(  1-C , 19-H ) :   0.8776 B(  2-C ,  3-C ) :   1.3148 B(  2-C ,  4-C ) :   0.0856 
B(  2-C ,  5-C ) :   0.0791 B(  2-C , 14-C ) :   0.0769 B(  2-C , 17-O ) :   1.4054 
B(  3-C ,  4-C ) :   1.3789 B(  3-C ,  5-C ) :   0.0888 B(  3-C , 14-C ) :   1.0816 
B(  3-C , 15-O ) :   0.1018 B(  3-C , 16-O ) :   0.0676 B(  3-C , 17-O ) :   0.1089 
B(  4-C ,  5-C ) :   1.4578 B(  4-C ,  6-C ) :   0.0791 B(  4-C , 14-C ) :   0.0876 
B(  4-C , 20-H ) :   0.8647 B(  5-C ,  6-C ) :   1.0462 B(  5-C ,  7-C ) :   0.0748 
B(  5-C , 11-C ) :   0.0748 B(  6-C ,  7-C ) :   1.4034 B(  6-C ,  8-C ) :   0.0879 
B(  6-C ,  9-C ) :   0.0941 B(  6-C , 10-C ) :   0.0871 B(  6-C , 11-C ) :   1.3599 
B(  6-C , 12-F ) :   0.0887 B(  7-C ,  8-C ) :   1.5076 B(  7-C ,  9-C ) :   0.0982 
B(  7-C , 10-C ) :   0.1108 B(  7-C , 11-C ) :   0.0932 B(  7-C , 21-H ) :   0.8764 
B(  8-C ,  9-C ) :   1.4373 B(  8-C , 10-C ) :   0.0872 B(  8-C , 11-C ) :   0.1015 
B(  8-C , 13-F ) :   0.0952 B(  8-C , 22-H ) :   0.8776 B(  9-C , 10-C ) :   1.4394 
B(  9-C , 11-C ) :   0.1019 B(  9-C , 13-F ) :   1.2675 B( 10-C , 11-C ) :   1.4530 
B( 10-C , 12-F ) :   0.0980 B( 10-C , 13-F ) :   0.0976 B( 10-C , 23-H ) :   0.8701 
B( 11-C , 12-F ) :   1.2574 B( 14-C , 15-O ) :   2.1785 B( 14-C , 16-O ) :   1.3783 
B( 15-O , 16-O ) :   0.1985 B( 16-O , 24-H ) :   0.8398 B( 16-O , 25-H ) :   0.0937 
B( 17-O , 25-H ) :   0.8244 

------------------------------------------
LOEWDIN REDUCED ORBITAL POPULATIONS PER MO
-------------------------------------------
THRESHOLD FOR PRINTING IS 0.1%%
                      0         1         2         3         4         5   
                 -24.28035 -24.27515 -18.82842 -18.79305 -18.74951 -10.02965
                   2.00000   2.00000   2.00000   2.00000   2.00000   2.00000
                  --------  --------  --------  --------  --------  --------
12 F  s             100.0       0.0       0.0       0.0       0.0       0.0
13 F  s               0.0     100.0       0.0       0.0       0.0       0.0
14 C  s               0.0       0.0       0.0       0.0       0.0      99.4
15 O  s               0.0       0.0       0.0       0.0      99.9       0.0
15 O  py              0.0       0.0       0.0       0.0       0.0       0.2
16 O  s               0.0       0.0      99.9       0.0       0.0       0.0
16 O  px              0.0       0.0       0.0       0.0       0.0       0.2
17 O  s               0.0       0.0       0.0      99.9       0.0       0.0

                      6         7         8         9        10        11   
                  -9.98662  -9.98489  -9.97401  -9.91722  -9.91708  -9.91331
                   2.00000   2.00000   2.00000   2.00000   2.00000   2.00000
                  --------  --------  --------  --------  --------  --------
 2 C  s               0.0       0.0      99.5       0.0       0.0       0.0
 2 C  py              0.0       0.0       0.0       0.1       0.0       0.0
 3 C  s               0.0       0.0       0.0      98.0       1.5       0.0
 3 C  py              0.0       0.0       0.1       0.0       0.0       0.0
 4 C  px              0.0       0.0       0.0       0.1       0.0       0.0
 5 C  px              0.0       0.0       0.0       0.0       0.1       0.0
 6 C  s               0.0       0.0       0.0       1.5      97.9       0.1
 6 C  py              0.1       0.0       0.0       0.0       0.0       0.1
 7 C  s               0.0       0.0       0.0       0.0       0.1      99.4
 7 C  py              0.0       0.0       0.0       0.0       0.1       0.0
 8 C  px              0.0       0.1       0.0       0.0       0.0       0.1
 9 C  s               0.0      99.5       0.0       0.0       0.0       0.0
10 C  px              0.1       0.0       0.0       0.0       0.0       0.0
10 C  py              0.0       0.1       0.0       0.0       0.0       0.0
11 C  s              99.5       0.0       0.0       0.0       0.0       0.0
17 O  px              0.0       0.0       0.1       0.0       0.0       0.0

                     12        13        14        15        16        17   
                  -9.91220  -9.90836  -9.90818  -9.90727  -9.90557  -9.89898
                   2.00000   2.00000   2.00000   2.00000   2.00000   2.00000
                  --------  --------  --------  --------  --------  --------
 0 C  s               0.1      99.4       0.0       0.0       0.0       0.1
 0 C  px              0.0       0.0       0.0       0.0       0.0       0.1
 0 C  py              0.1       0.0       0.0       0.0       0.0       0.0
 1 C  s               0.0       0.0       0.0       0.0       0.0      99.5
 1 C  px              0.0       0.1       0.0       0.0       0.0       0.0
 3 C  px              0.0       0.0       0.0       0.1       0.0       0.0
 4 C  s               0.1       0.0       0.0      99.5       0.0       0.0
 5 C  s              99.3       0.1       0.0       0.1       0.0       0.0
 5 C  py              0.0       0.1       0.0       0.1       0.0       0.0
 6 C  px              0.1       0.0       0.0       0.0       0.0       0.0
 7 C  px              0.0       0.0       0.0       0.0       0.1       0.0
 8 C  s               0.0       0.0       0.0       0.0      99.5       0.0
 9 C  py              0.0       0.0       0.1       0.0       0.1       0.0
10 C  s               0.0       0.0      99.5       0.0       0.0       0.0
11 C  px              0.0       0.0       0.1       0.0       0.0       0.0

                     18        19        20        21        22        23   
                  -1.10724  -1.10194  -1.03055  -0.97904  -0.92548  -0.80526
                   2.00000   2.00000   2.00000   2.00000   2.00000   2.00000
                  --------  --------  --------  --------  --------  --------
 0 C  s               0.0       0.0       0.0       0.1       0.0       4.1
 0 C  py              0.0       0.0       0.0       0.0       0.0       1.0
 1 C  s               0.0       0.0       0.0       0.9       0.0       2.1
 1 C  px              0.0       0.0       0.0       1.0       0.0       0.3
 1 C  py              0.0       0.0       0.0       0.4       0.0       0.5
 2 C  s               0.0       0.0       0.4      11.2       0.1       1.2
 2 C  px              0.0       0.0       0.2       9.2       0.0       1.3
 2 C  py              0.0       0.0       0.1       0.5       0.0       0.1
 2 C  dz2             0.0       0.0       0.0       0.4       0.0       0.0
 2 C  dx2y2           0.0       0.0       0.0       0.6       0.0       0.0
 2 C  dxy             0.0       0.0       0.0       0.2       0.0       0.0
 3 C  s               0.0       0.0       1.2       0.5       0.5       2.5
 3 C  pz              0.0       0.0       0.1       0.1       0.1       0.0
 3 C  px              0.0       0.0       1.1       0.2       0.0       0.6
 3 C  py              0.0       0.0       0.7       1.4       0.6       0.1
 4 C  s               0.0       0.0       0.1       0.0       0.1       4.7
 4 C  pz              0.0       0.0       0.0       0.0       0.0       0.1
 4 C  px              0.0       0.0       0.2       0.0       0.2       0.1
 4 C  py              0.0       0.0       0.0       0.0       0.0       0.9
 5 C  s               0.0       0.0       0.0       0.0       0.0       9.3
 5 C  px              0.1       0.0       0.0       0.0       0.0       0.1
 6 C  s               0.4       0.0       0.0       0.0       0.0      13.9
 6 C  pz              0.2       0.0       0.0       0.0       0.0       0.0
 6 C  px              0.2       0.0       0.0       0.0       0.0       0.2
 6 C  py              0.7       0.0       0.0       0.0       0.0       0.1
 7 C  s               0.0       0.0       0.0       0.0       0.0       9.2
 7 C  pz              0.0       0.0       0.0       0.0       0.0       0.4
 7 C  px              0.0       0.0       0.0       0.0       0.0       0.2
 7 C  py              0.0       0.0       0.0       0.0       0.0       1.4
 8 C  s               0.0       0.4       0.0       0.0       0.0       6.5
 8 C  pz              0.0       0.1       0.0       0.0       0.0       0.2
 8 C  px              0.0       0.7       0.0       0.0       0.0       0.5
 8 C  py              0.0       0.2       0.0       0.0       0.0       1.3
 9 C  s               0.1       8.1       0.0       0.0       0.0       4.9
 9 C  px              0.0      10.1       0.0       0.0       0.0       3.1
 9 C  py              0.0       0.5       0.0       0.0       0.0       0.2
 9 C  dz2             0.0       0.4       0.0       0.0       0.0       0.0
 9 C  dx2y2           0.0       0.9       0.0       0.0       0.0       0.0
 9 C  dxy             0.0       0.2       0.0       0.0       0.0       0.0
10 C  s               0.5       0.4       0.0       0.0       0.0       6.2
10 C  pz              0.0       0.1       0.0       0.0       0.0       0.3
10 C  px              0.8       0.4       0.0       0.0       0.0       0.9
10 C  py              0.2       0.7       0.0       0.0       0.0       0.7
11 C  s               8.1       0.0       0.0       0.0       0.0       7.0
11 C  pz              1.6       0.0       0.0       0.0       0.0       0.8
11 C  px              1.0       0.1       0.0       0.0       0.0       0.0
11 C  py              8.0       0.1       0.0       0.0       0.0       3.5
11 C  dz2             0.1       0.0       0.0       0.0       0.0       0.0
11 C  dyz             0.6       0.0       0.0       0.0       0.0       0.0
11 C  dx2y2           0.5       0.0       0.0       0.0       0.0       0.1
11 C  dxy             0.3       0.0       0.0       0.0       0.0       0.0
12 F  s              73.6       0.2       0.0       0.0       0.0       1.1
12 F  pz              0.4       0.0       0.0       0.0       0.0       0.1
12 F  px              0.2       0.0       0.0       0.0       0.0       0.0
12 F  py              1.7       0.0       0.0       0.0       0.0       0.3
13 F  s               0.2      73.7       0.0       0.0       0.0       0.6
13 F  px              0.0       2.2       0.0       0.0       0.0       0.3
13 F  py              0.0       0.1       0.0       0.0       0.0       0.0
14 C  s               0.0       0.0      17.9       0.4       5.5       0.1
14 C  pz              0.0       0.0       0.1       0.1       1.0       0.0
14 C  px              0.0       0.0       5.3       0.1      10.2       0.1
14 C  py              0.0       0.0       0.5       0.5      12.8       0.4
14 C  dz2             0.0       0.0       0.5       0.0       0.0       0.0
14 C  dyz             0.0       0.0       0.1       0.0       0.3       0.0
14 C  dx2y2           0.0       0.0       0.2       0.0       1.6       0.0
14 C  dxy             0.0       0.0       0.2       0.0       0.2       0.0
15 O  s               0.0       0.0       9.5       0.8      42.4       0.1
15 O  pz              0.0       0.0       0.2       0.0       0.3       0.0
15 O  px              0.0       0.0       0.6       0.0       0.3       0.0
15 O  py              0.0       0.0       1.8       0.1       3.9       0.0
16 O  s               0.0       0.0      45.4       0.8      15.9       0.0
16 O  pz              0.0       0.0       0.1       0.0       0.0       0.0
16 O  px              0.0       0.0       1.5       0.0       0.4       0.0
16 O  py              0.0       0.0       1.5       0.1       0.2       0.0
17 O  s               0.0       0.0       1.0      55.9       0.3       0.4
17 O  pz              0.0       0.0       0.0       0.2       0.0       0.0
17 O  px              0.0       0.0       0.0       1.0       0.0       0.1
17 O  py              0.0       0.0       0.1       2.3       0.0       0.0
18 H  s               0.1       0.0       0.0       0.0       0.0       0.6
19 H  s               0.0       0.0       0.0       0.2       0.0       0.2
20 H  s               0.0       0.0       0.1       0.0       0.1       0.7
21 H  s               0.0       0.0       0.0       0.0       0.0       1.3
22 H  s               0.0       0.1       0.0       0.0       0.0       0.7
23 H  s               0.1       0.1       0.0       0.0       0.0       0.7
24 H  s               0.0       0.0       8.1       0.2       2.7       0.0
25 H  s               0.0       0.0       1.0       9.9       0.0       0.1

                     24        25        26        27        28        29   
                  -0.78545  -0.71825  -0.70178  -0.68950  -0.65978  -0.62586
                   2.00000   2.00000   2.00000   2.00000   2.00000   2.00000
                  --------  --------  --------  --------  --------  --------
 0 C  s               7.1       2.3       9.8       0.1       1.4       8.6
 0 C  pz              0.1       0.1       0.0       0.0       0.1       0.0
 0 C  px              0.9       1.4       2.6       0.5       0.9       0.4
 0 C  py              0.7       0.9       0.6       0.2       1.4       0.2
 0 C  dx2y2           0.0       0.0       0.1       0.0       0.1       0.0
 1 C  s               6.9       0.5      15.8       1.4       2.8       0.1
 1 C  pz              0.1       0.0       0.0       0.0       0.0       0.1
 1 C  px              0.3       1.3       0.6       0.0       2.6       5.9
 1 C  py              1.3       0.4       0.1       0.0       0.1       0.5
 1 C  dz2             0.1       0.0       0.1       0.0       0.0       0.0
 2 C  s               5.0       4.4       1.1       0.4       6.0       2.8
 2 C  pz              0.0       0.1       0.8       0.0       0.0       0.1
 2 C  px              4.3       1.2       1.4       0.2       0.6       0.3
 2 C  py              0.4       1.6       7.5       0.4       0.1       0.5
 2 C  dx2y2           0.1       0.1       0.0       0.0       0.1       0.0
 2 C  dxy             0.0       0.0       0.1       0.0       0.0       0.0
 3 C  s               8.9       9.9       8.3       0.2       0.5       0.0
 3 C  pz              0.1       0.0       0.2       0.0       0.1       0.3
 3 C  px              0.9       0.5       0.1       0.0       4.3       6.4
 3 C  py              0.5       0.1       2.2       0.2       0.9       2.1
 3 C  dx2y2           0.0       0.0       0.1       0.0       0.1       0.0
 3 C  dxy             0.0       0.0       0.0       0.0       0.0       0.2
 4 C  s               8.1       0.0       6.6       0.5       7.0       4.7
 4 C  pz              0.1       0.1       0.0       0.0       0.0       0.0
 4 C  px              0.4       6.4       0.7       0.0       1.0       0.0
 4 C  py              1.3       0.3       0.2       0.0       0.4       0.1
 5 C  s               5.8       9.1       0.1       0.5       5.2       0.2
 5 C  pz              0.0       0.0       0.4       0.1       0.0       0.5
 5 C  px              3.1       2.3       0.2       0.1       4.2       0.4
 5 C  py              0.1       0.0       5.5       0.0       0.0       6.2
 6 C  s               0.7       9.4       1.6       0.4       5.6       0.0
 6 C  pz              0.0       0.0       0.1       1.2       0.0       0.0
 6 C  px              3.8       2.1       0.1       0.0       3.8       0.0
 6 C  py              0.2       0.0       0.7       4.9       0.0       0.6
 6 C  dxy             0.0       0.0       0.0       0.1       0.0       0.0
 7 C  s               2.8       1.2       2.0      10.9       2.6       0.2
 7 C  pz              0.1       0.1       0.0       0.1       0.1       0.0
 7 C  px              1.0       2.2       0.2       2.8       0.8       0.2
 7 C  py              0.1       1.1       0.1       1.3       1.2       0.0
 7 C  dx2y2           0.0       0.1       0.0       0.1       0.1       0.0
 8 C  s               4.4       1.8       0.1      17.6       1.8       0.2
 8 C  pz              0.2       0.2       0.1       0.0       0.2       0.0
 8 C  px              0.1       1.1       0.7       1.0       2.9       0.2
 8 C  py              0.8       0.4       0.1       0.1       0.2       0.0
 8 C  dz2             0.0       0.0       0.0       0.1       0.0       0.0
 9 C  s               4.2       5.6       1.0       0.3       6.7       0.2
 9 C  pz              0.0       0.0       0.1       2.3       0.0       0.0
 9 C  px              2.2       1.3       0.1       0.7       0.6       0.0
 9 C  py              0.2       0.4       0.7       8.8       0.0       0.1
 9 C  dxy             0.0       0.0       0.0       0.2       0.0       0.0
10 C  s               4.9       5.5       2.6      11.4       1.4       0.1
10 C  pz              0.2       0.1       0.0       0.0       0.1       0.0
10 C  px              0.4       0.1       0.0       1.2       2.1       0.0
10 C  py              0.5       0.6       0.1       0.6       1.2       0.1
10 C  dx2y2           0.0       0.0       0.0       0.1       0.1       0.0
11 C  s               2.6       0.0       0.1       9.7       3.4       0.0
11 C  pz              0.1       0.4       0.0       0.0       0.5       0.0
11 C  px              1.0       5.5       1.4       2.3       1.7       0.2
11 C  py              1.0       0.3       0.0       0.6       1.0       0.0
11 C  dx2y2           0.0       0.0       0.0       0.2       0.0       0.0
12 F  s               0.3       0.1       0.1       2.4       0.6       0.0
12 F  pz              0.0       0.0       0.0       0.3       0.2       0.0
12 F  px              0.1       0.1       0.0       0.5       0.0       0.1
12 F  py              0.1       0.0       0.0       1.8       0.9       0.0
13 F  s               0.6       1.1       0.2       0.1       1.8       0.1
13 F  px              0.3       0.8       0.2       0.1       2.3       0.1
13 F  py              0.0       0.1       0.0       0.2       0.1       0.0
14 C  s               0.4       1.5       1.9       0.1       0.6       5.6
14 C  pz              0.2       0.4       0.5       0.0       0.1       0.4
14 C  px              0.5       0.7       1.1       0.0       0.0       0.8
14 C  py              1.6       3.5       4.5       0.1       0.6       4.5
15 O  s               0.4       0.6       1.0       0.0       0.0       0.8
15 O  py              0.0       0.1       0.2       0.0       0.0       0.4
16 O  s               0.0       0.2       0.2       0.0       0.1       0.7
16 O  pz              0.0       0.0       0.1       0.0       0.0       0.7
16 O  px              0.1       1.1       1.6       0.0       1.4      20.0
16 O  py              0.0       0.3       0.9       0.0       0.1       5.1
16 O  dx2y2           0.0       0.0       0.0       0.0       0.0       0.2
17 O  s               1.4       1.4       0.0       0.1       1.5       0.1
17 O  px              0.6       1.0       0.8       0.3       4.3       3.2
17 O  py              0.1       0.0       0.4       0.0       0.2       0.6
18 H  s               0.9       0.6       1.8       0.0       0.2       3.0
19 H  s               0.8       0.1       3.1       0.3       0.7       0.0
20 H  s               0.9       0.0       1.6       0.1       1.3       1.3
21 H  s               0.3       0.4       0.5       2.3       0.4       0.1
22 H  s               0.5       0.3       0.0       3.8       0.4       0.1
23 H  s               0.6       0.9       0.5       2.4       0.4       0.0
24 H  s               0.0       0.4       0.7       0.0       0.4       7.7
25 H  s               0.4       0.5       0.3       0.1       1.7       1.2

                     30        31        32        33        34        35   
                  -0.58316  -0.57705  -0.55423  -0.54457  -0.52250  -0.50812
                   2.00000   2.00000   2.00000   2.00000   2.00000   2.00000
                  --------  --------  --------  --------  --------  --------
 0 C  s               2.2       0.1       0.8       0.3       3.3       0.1
 0 C  pz              0.2       0.0       0.0       0.3       0.1       0.1
 0 C  px              1.8       0.5       0.4       3.6       5.1       0.2
 0 C  py              1.5       0.0       0.3       4.8       1.0       0.3
 0 C  dx2y2           0.0       0.0       0.0       0.2       0.0       0.0
 1 C  s               0.8       0.6       0.4       7.1       0.7       0.6
 1 C  pz              0.0       0.0       0.0       0.4       0.2       0.0
 1 C  px              5.1       0.2       1.2       0.0       0.1       0.0
 1 C  py              0.3       0.2       0.2       4.1       2.2       0.1
 1 C  dx2y2           0.0       0.0       0.0       0.0       0.1       0.0
 2 C  s               3.1       0.0       0.2       2.3       0.1       0.0
 2 C  pz              0.0       0.2       0.6       0.6       0.1       0.0
 2 C  px              0.9       0.1       0.4       0.2       9.5       0.5
 2 C  py              0.5       1.7       6.3       6.2       1.2       0.1
 2 C  dxy             0.0       0.0       0.0       0.1       0.2       0.0
 3 C  s               0.6       1.3       2.9       0.0       0.6       0.1
 3 C  pz              0.1       0.0       0.1       0.7       0.9       0.0
 3 C  px              1.6       0.0       1.1       2.2       0.4       0.5
 3 C  py              0.9       0.2       1.0       8.2       9.7       0.0
 3 C  dx2y2           0.0       0.0       0.1       0.1       0.0       0.0
 4 C  s               0.5       0.2       3.7       3.3       0.0       0.3
 4 C  pz              0.0       0.0       0.0       0.5       0.3       0.0
 4 C  px              2.9       2.2       2.8       0.3       0.9       0.0
 4 C  py              0.3       0.1       0.0       4.7       3.0       0.2
 5 C  s               3.0       0.2       0.6       2.3       0.1       0.0
 5 C  pz              0.1       0.0       0.4       0.5       0.3       0.0
 5 C  px              3.0       0.1       1.9       0.2       1.1       1.8
 5 C  py              0.4       2.3       2.2       3.0       2.5       0.3
 5 C  dxy             0.0       0.0       0.1       0.0       0.0       0.0
 6 C  s               1.5       0.1       1.7       1.3       0.2       0.1
 6 C  pz              0.1       2.1       0.5       0.3       0.1       0.1
 6 C  px              4.1       1.2       0.1       1.0       0.4       3.2
 6 C  py              1.0       9.9       0.5       0.0       0.2       0.1
 6 C  dxy             0.0       0.1       0.0       0.1       0.0       0.0
 7 C  s               3.4       6.3       0.4       0.7       0.1       1.2
 7 C  pz              0.1       0.1       0.1       0.6       0.2       0.9
 7 C  px              0.5       3.4       1.5       0.5       0.0       3.2
 7 C  py              0.9       0.1       1.8       2.4       0.8       2.1
 8 C  s               0.1       2.7       3.0       0.9       0.2       0.1
 8 C  pz              0.4       0.1       0.2       0.5       0.1       0.5
[...]
 2 C  s               0.0       0.3       0.0       0.0
 2 C  px              0.4       0.5       0.0       0.0
 2 C  py              0.2       0.1       0.0       0.0
 2 C  dz2             0.0       0.1       0.0       0.0
 2 C  dxz             0.0       0.2       0.0       0.0
 2 C  dyz             0.3       0.1       0.0       0.0
 2 C  dx2y2           4.3       2.4       0.0       0.0
 2 C  dxy             0.0       2.5       0.0       0.0
 3 C  s               0.1       0.3       0.0       0.0
 3 C  px              0.2       0.1       0.0       0.0
 3 C  py              0.3       0.2       0.0       0.0
 3 C  dxz             0.6       0.2       0.0       0.0
 3 C  dyz             0.1       0.2       0.0       0.0
 3 C  dx2y2           1.0       2.3       0.0       0.0
 3 C  dxy             6.1       2.0       0.0       0.0
 4 C  s               0.2       0.1       0.0       0.0
 4 C  px              0.0       0.1       0.0       0.0
 4 C  dxz             0.2       0.0       0.0       0.0
 4 C  dx2y2           1.3       1.0       0.0       0.0
 4 C  dxy             1.9       0.0       0.0       0.0
 5 C  s               0.1       0.0       0.0       0.0
 5 C  px              0.1       0.0       0.0       0.1
 5 C  dyz             0.2       0.1       0.0       0.0
 5 C  dx2y2           1.7       0.7       0.0       0.1
 5 C  dxy             0.6       0.0       0.1       0.1
 6 C  dyz             0.0       0.0       0.0       0.3
 6 C  dx2y2           0.3       0.0       0.4       1.5
 6 C  dxy             0.0       0.1       0.0       0.2
 7 C  dxz             0.0       0.0       0.0       0.2
 7 C  dxy             0.0       0.0       0.0       1.0
 8 C  s               0.0       0.0       0.0       0.1
 8 C  dxz             0.0       0.0       0.0       0.2
 8 C  dyz             0.0       0.0       0.1       0.1
 8 C  dx2y2           0.0       0.0       0.4       0.8
 8 C  dxy             0.0       0.0       0.1       0.4
 9 C  s               0.0       0.0       1.2       0.5
 9 C  px              0.0       0.0       1.9       1.2
 9 C  py              0.0       0.0       0.1       0.1
 9 C  dz2             0.0       0.0       0.9       0.7
 9 C  dyz             0.0       0.0       0.1       0.4
 9 C  dx2y2           0.0       0.0       3.7       4.5
 9 C  dxy             0.0       0.0       0.3       1.6
10 C  s               0.0       0.0       0.0       0.1
10 C  px              0.0       0.0       0.1       0.0
10 C  dxz             0.0       0.0       0.0       0.6
10 C  dxy             0.0       0.0       0.0       2.6
11 C  s               0.0       0.0       0.9       0.6
11 C  pz              0.0       0.0       0.2       0.2
11 C  px              0.0       0.0       0.2       0.2
11 C  py              0.0       0.0       1.2       1.2
11 C  dz2             0.0       0.0       0.1       0.1
11 C  dxz             0.0       0.0       0.1       0.9
11 C  dyz             0.0       0.0       1.4       1.5
11 C  dx2y2           0.0       0.0       2.1       4.1
11 C  dxy             0.0       0.0       0.3       2.3
12 F  s               0.0       0.0       2.5       3.0
12 F  pz              0.0       0.0       0.2       0.2
12 F  px              0.0       0.0       0.2       0.2
12 F  py              0.0       0.0       1.1       1.3
12 F  dz2             0.0       0.0       2.6       1.9
12 F  dxz             0.0       0.0       2.0       1.7
12 F  dyz             0.2       0.0       9.8      11.4
12 F  dx2y2           0.3       0.0       9.3      12.9
12 F  dxy             0.0       0.0       9.2       6.6
13 F  s               0.0       0.0       3.1       2.2
13 F  px              0.0       0.0       1.7       1.2
13 F  py              0.0       0.0       0.1       0.0
13 F  dz2             0.0       0.0       9.9       5.9
13 F  dxz             0.0       0.0       0.0       0.2
13 F  dyz             0.0       0.0       0.0       0.1
13 F  dx2y2           0.0       0.0      23.9      18.3
13 F  dxy             0.0       0.0       7.7       2.9
14 C  s               0.3       3.5       0.0       0.0
14 C  pz              0.1       0.4       0.0       0.0
14 C  px              1.6       0.2       0.0       0.0
14 C  py              1.1       4.1       0.0       0.0
14 C  dz2             0.1       0.4       0.0       0.0
14 C  dxz             0.3       0.7       0.0       0.0
14 C  dyz             1.1       0.5       0.0       0.0
14 C  dx2y2          11.4       1.7       0.0       0.0
14 C  dxy             4.3       7.6       0.0       0.0
15 O  s               1.4       3.1       0.0       0.0
15 O  pz              0.0       0.2       0.0       0.0
15 O  px              0.9       0.1       0.0       0.0
15 O  py              0.4       2.6       0.0       0.0
15 O  dz2             2.1       5.0       0.0       0.0
15 O  dxz             1.9       0.4       0.0       0.0
15 O  dyz             0.4       8.3       0.0       0.0
15 O  dx2y2           0.0      24.6       0.0       0.0
15 O  dxy            23.0       4.5       0.0       0.0
16 O  s               0.8       0.0       0.0       0.0
16 O  px              1.5       0.0       0.0       0.0
16 O  py              0.1       0.3       0.0       0.0
16 O  dz2             2.1       0.1       0.0       0.0
16 O  dxz             0.0       0.4       0.0       0.0
16 O  dyz             0.1       0.0       0.0       0.0
16 O  dx2y2          11.6       1.3       0.0       0.0
16 O  dxy             1.0       3.3       0.0       0.0
17 O  s               0.2       0.5       0.0       0.0
17 O  px              0.3       0.9       0.0       0.0
17 O  dz2             0.4       1.2       0.0       0.0
17 O  dxz             0.3       0.1       0.0       0.0
17 O  dx2y2           1.2       5.8       0.0       0.0
17 O  dxy             3.7       1.6       0.0       0.0
23 H  s               0.0       0.0       0.0       0.2
24 H  s               0.1       0.0       0.0       0.0
25 H  s               0.1       0.2       0.0       0.0


                      *****************************
                      * MAYER POPULATION ANALYSIS *
                      *****************************

  NA   - Mulliken gross atomic population
  ZA   - Total nuclear charge
  QA   - Mulliken gross atomic charge
  VA   - Mayer's total valence
  BVA  - Mayer's bonded valence
  FA   - Mayer's free valence

  ATOM       NA         ZA         QA         VA         BVA        FA
  0 C      6.0804     6.0000    -0.0804     3.7872     3.7872    -0.0000
  1 C      6.1258     6.0000    -0.1258     3.8206     3.8206    -0.0000
  2 C      5.8372     6.0000     0.1628     4.0179     4.0179     0.0000
  3 C      6.0275     6.0000    -0.0275     3.6071     3.6071     0.0000
  4 C      6.2064     6.0000    -0.2064     3.8636     3.8636    -0.0000
  5 C      5.8460     6.0000     0.1540     3.7297     3.7297    -0.0000
  6 C      5.9588     6.0000     0.0412     3.7436     3.7436     0.0000
  7 C      6.1200     6.0000    -0.1200     3.8166     3.8166     0.0000
  8 C      6.1398     6.0000    -0.1398     3.7405     3.7405     0.0000
  9 C      5.6447     6.0000     0.3553     3.8597     3.8597    -0.0000
 10 C      6.2600     6.0000    -0.2600     3.6974     3.6974    -0.0000
 11 C      5.7430     6.0000     0.2570     3.8904     3.8904    -0.0000
 12 F      9.1643     9.0000    -0.1643     1.2331     1.2331     0.0000
 13 F      9.1736     9.0000    -0.1736     1.2099     1.2099     0.0000
 14 C      5.8675     6.0000     0.1325     4.3143     4.3143     0.0000
 15 O      8.1780     8.0000    -0.1780     2.3473     2.3473     0.0000
 16 O      8.3375     8.0000    -0.3375     2.1680     2.1680    -0.0000
 17 O      8.3023     8.0000    -0.3023     2.2329     2.2329     0.0000
 18 H      0.9436     1.0000     0.0564     0.9689     0.9689     0.0000
 19 H      0.9494     1.0000     0.0506     0.9688     0.9688    -0.0000
 20 H      0.9359     1.0000     0.0641     0.9933     0.9933    -0.0000
 21 H      0.9357     1.0000     0.0643     0.9626     0.9626     0.0000
 22 H      0.9389     1.0000     0.0611     0.9649     0.9649    -0.0000
 23 H      0.9363     1.0000     0.0637     0.9779     0.9779     0.0000
 24 H      0.6700     1.0000     0.3300     0.8990     0.8990     0.0000
 25 H      0.6771     1.0000     0.3229     0.9173     0.9173     0.0000

  Mayer bond orders larger than 0.100000
B(  0-C ,  1-C ) :   1.3928 B(  0-C ,  5-C ) :   1.3029 B(  0-C , 18-H ) :   0.9632 
B(  1-C ,  2-C ) :   1.3244 B(  1-C , 19-H ) :   0.9603 B(  2-C ,  3-C ) :   1.2083 
B(  2-C , 17-O ) :   1.3242 B(  3-C ,  4-C ) :   1.3325 B(  3-C , 14-C ) :   0.9673 
B(  4-C ,  5-C ) :   1.3508 B(  4-C , 20-H ) :   0.9525 B(  5-C ,  6-C ) :   0.9783 
B(  6-C ,  7-C ) :   1.3693 B(  6-C , 11-C ) :   1.3322 B(  7-C ,  8-C ) :   1.3293 
B(  7-C , 21-H ) :   0.9560 B(  8-C ,  9-C ) :   1.3424 B(  8-C , 22-H ) :   0.9688 
B(  9-C , 10-C ) :   1.2885 B(  9-C , 13-F ) :   1.0866 B( 10-C , 11-C ) :   1.3019 
B( 10-C , 23-H ) :   0.9753 B( 11-C , 12-F ) :   1.1055 B( 14-C , 15-O ) :   2.1040 
B( 14-C , 16-O ) :   1.1905 B( 16-O , 24-H ) :   0.8091 B( 17-O , 25-H ) :   0.7889 


-------
TIMINGS
-------

Total SCF time: 0 days 0 hours 0 min 19 sec 

Total time                  ....      19.381 sec
Sum of individual times     ....      18.746 sec  ( 96.7%)

SCF preparation             ....       0.224 sec  (  1.2%)
Fock matrix formation       ....      17.324 sec  ( 89.4%)
  Startup                   ....       0.105 sec  (  0.6% of F)
  Split-RI-J                ....       8.883 sec  ( 51.3% of F)
  XC integration            ....       7.709 sec  ( 44.5% of F)
    XC Preparation          ....       0.000 sec  (  0.0% of XC)
    Basis function eval.    ....       2.858 sec  ( 37.1% of XC)
    Density eval.           ....       1.457 sec  ( 18.9% of XC)
    XC-Functional eval.     ....       0.563 sec  (  7.3% of XC)
    XC-Potential eval.      ....       2.025 sec  ( 26.3% of XC)
Diagonalization             ....       0.000 sec  (  0.0%)
Density matrix formation    ....       0.239 sec  (  1.2%)
Total Energy calculation    ....       0.057 sec  (  0.3%)
Population analysis         ....       0.201 sec  (  1.0%)
Orbital Transformation      ....       0.076 sec  (  0.4%)
Orbital Orthonormalization  ....       0.000 sec  (  0.0%)
DIIS solution               ....       0.498 sec  (  2.6%)
  MO trafo                  ....       0.000 sec  (  0.0 % of DIIS)
  Orb grad                  ....       0.000 sec  (  0.0 % of DIIS)
  Energy W gradient         ....       0.000 sec  (  0.0 % of DIIS)
  DIIS error                ....       0.018 sec  (  3.5 % of DIIS)
  DIIS work                 ....       0.419 sec  ( 84.2 % of DIIS)
  Form Q                    ....       0.000 sec  (  0.0 % of DIIS)
  Form QpQm                 ....       0.000 sec  (  0.0 % of DIIS)
  Exp/Cayley                ....       0.000 sec  (  0.0 % of DIIS)
  Orb update                ....       0.000 sec  (  0.0 % of DIIS)
  Wake-sleep                ....       0.022 sec  (  4.5 % of DIIS)
SOSCF solution              ....       0.127 sec  (  0.7%)
  MO trafo                  ....       0.067 sec  ( 52.5 % of SOSCF)
  Orb grad                  ....       0.001 sec  (  0.9 % of SOSCF)
  Rot update                ....       0.027 sec  ( 20.9 % of SOSCF)
  Step                      ....       0.033 sec  ( 25.5 % of SOSCF)
Finished LeanSCF after  19.5 sec

Maximum memory used throughout the entire LEANSCF-calculation: 23.8 MB


-------------------------------------------------------------------------------
                          DFT DISPERSION CORRECTION                            
                                                                               
                                DFTD4 V3.4.0                                   
-------------------------------------------------------------------------------
The PBE functional is recognized
Active option DFTDOPT                   ...         5   

-------------------------   ----------------
Dispersion correction           -0.034647623
-------------------------   ----------------

------------------   -----------------
gCP correction             0.119426916
------------------   -----------------

-------------------------   --------------------
FINAL SINGLE POINT ENERGY      -923.758889857246
-------------------------   --------------------


------------------------------------------------------------------------------
                              ORCA PROPERTY CALCULATIONS
------------------------------------------------------------------------------

GBWName                                 ... sp.gbw
Number of atoms                         ...     26
Number of basis functions               ...    268
Max core memory                         ...   1024 MB

Electric properties:
Dipole moment                           ... YES
Quadrupole moment                       ...  NO
Static polarizability (Dipole/Dipole)   ...  NO
Static polarizability (Dipole/Quad.)    ...  NO
Static polarizability (Quad./Quad.)     ...  NO
Static polarizability (Velocity)        ...  NO

Atomic electric properties:
Dipole moment                           ...  NO
Quadrupole moment                       ...  NO
Static polarizability                   ...  NO

Choice of electric origin               ... Center of mass
Position of electric origin             ...    -0.000010     0.000003     0.000006

General magnetic properties:
Magnetizability                         ...  NO

EPR properties:
g-Tensor (aka g-matrix)                 ...  NO
Zero-Field splitting spin-orbit         ...  NO
Zero-field splitting spin-spin          ...  NO
Hyperfine couplings                     ...  NO (   0 nuclei)
Quadrupole couplings                    ...  NO (   0 nuclei)
Contact density                         ...  NO (   0 nuclei)

NMR properties:
Chemical shifts                         ...  NO (   0 nuclei)
Spin-rotation constants                 ...  NO (   0 nuclei)
Spin-spin couplings                     ...  NO (   0 nuclei,    0 pairs)

Choice of magnetic origin               ... GIAO
Position of magnetic origin             ...     0.000000     0.000000     0.000000

Properties with geometric perturbations:
SCF Hessian                             ...  NO
IR spectrum                             ...  NO
VCD spectrum                            ...  NO
X-ray spectroscopy properties:
SCF XES/XAS/RIXS spectra                ...  NO


-------------
DIPOLE MOMENT
-------------

Method             : SCF
Type of density    : Electron Density
Multiplicity       :   1
Irrep              :   0
Energy             :  -923.8436691506551597 Eh
Relativity type    : 
Basis              : AO
                                X                 Y                 Z
Electronic contribution:     -9.300382797       1.508570267      -2.744748167
Nuclear contribution   :     10.291501946      -1.606200705       2.975402928
                        -----------------------------------------
Total Dipole Moment    :      0.991119149      -0.097630438       0.230654761
                        -----------------------------------------
Magnitude (a.u.)       :      1.022277109
Magnitude (Debye)      :      2.598421911



--------------------
Rotational spectrum 
--------------------
 
Rotational constants in cm-1:             0.031909             0.006835             0.005873 
Rotational constants in MHz :           956.601420           204.911475           176.074036 

Dipole components along the rotational axes: 
x,y,z [a.u.] :     0.992754    -0.068916     0.233969 
x,y,z [Debye]:     2.523379    -0.175172     0.594701 

 

Dipole moment calculation done in   0.0 sec 

Maximum memory used throughout the entire PROP-calculation: 16.4 MB

--------------------------------
SUGGESTED CITATIONS FOR THIS RUN
--------------------------------

Below you find a list of papers that are relevant to this ORCA run
We neither can nor want to force you to cite these papers, but we appreciate if you do
You receive ORCA, which is the product of decades of hard work by many enthusiastic individuals, for free
The only thing we kindly ask in return is that you cite our papers,
We deeply appreciate it, if you show your appreciation for ORCA by not just citing the generic ORCA reference.

Please note that relegating all ORCA citations to the supporting information does *not* help us.
SI sections are not indexed - citations you put there will not count into any citation statistics
But we need these citations in order to attract the funding resources that allow us to do what we are doing

Therefore, if you are a happy ORCA user, please consider citing a few of the papers listed below in the main body of your paper

In addition to the list printed below, the program has created the file sp.bibtex that contains the list in bibtex format
You can import this file easily into all common literature databanks and citation aid programs


List of essential papers. We consider these as the minimum necessary citations

  1. Neese,F.
     Software update: the ORCA program system, version 5.0
     WIRES Comput. Molec. Sci., 2022 12(1)e1606
     doi.org/10.1002/wcms.1606

List of papers to cite with high priority. The work reported in these papers was absolutely
necessary for this run to complete.
Our perspective: the developers of density functionals and basis sets usually get cited in chemistry papers
Good! But without the algorithms to do something with them, the functionals or basis sets would not do anything.
Hence, in our opinion, the algorithm design and method developments papers are equally worthy of getting cited

  1. Neese,F.
     An improvement of the resolution of the identity approximation for the formation of the Coulomb matrix
     J. Comp. Chem., 2003 24(14)1740-1747
     doi.org/10.1002/jcc.10318
  2. Neese,F.
     The SHARK Integral Generation and Digestion System
     J. Comp. Chem., 2022  1-16
     doi.org/10.1002/jcc.26942
  3. Caldeweyher,E.; Bannwarth,C.; Grimme,S.
     Extension of the D3 dispersion coefficient model
     J. Chem. Phys., 2017 147 034112-XXXX
     doi.org/10.1063/1.4993215
  4. Caldeweyher,E.; Ehlert,S.; Hansen,A.; Neugebauer,H.; Spicher,S.; Bannwarth,C.; Grimme,S.
     A generally applicable atomic-charge dependent London dispersion correction
     J. Chem. Phys., 2019 150 154122-XXXX
     doi.org/10.1063/1.5090222
  5. Caldeweyher,E.; Mewes,J.; Ehlert,S.; Grimme,S.
     Extension and evaluation of the D4 London-dispersion model for periodic systems
     Phys. Chem. Chem. Phys., 2020 22(16)8499-8512
     doi.org/10.1039/D0CP00502A

List of suggested additional citations. These are papers that are important in the 'surrounding' of 
of this run, or papers that preceded the highly important papers. If you like your results we are grateful for a citation.

  1. Neese,F.
     The ORCA program system
     WIRES Comput. Molec. Sci., 2012 2(1)73-78
     doi.org/10.1002/wcms.81
  2. Neese,F.
     Software update: the ORCA program system, version 4.0
     WIRES Comput. Molec. Sci., 2018 8(1)1-6
     doi.org/10.1002/wcms.1327
  3. Neese,F.; Wennmohs,F.; Becker,U.; Riplinger,C.
     The ORCA quantum chemistry program package
     J. Chem. Phys., 2020 152 Art. No. L224108
     doi.org/10.1063/5.0004608

List of optional additional citations

  1. Neese,F.
     Approximate second-order SCF convergence for spin unrestricted wavefunctions
     Chem. Phys. Lett., 2000 325(1-3)93-98
     doi.org/10.1016/s0009-2614(00)00662-x

Timings for individual modules:

Sum of individual times          ...       22.839 sec (=   0.381 min)
Startup calculation              ...        1.447 sec (=   0.024 min)   6.3 %
SCF iterations                   ...       21.273 sec (=   0.355 min)  93.1 %
Property calculations            ...        0.118 sec (=   0.002 min)   0.5 %
                             ****ORCA TERMINATED NORMALLY****
TOTAL RUN TIME: 0 days 0 hours 0 minutes 23 seconds 644 msec
