      -----------------------------------------------------------      
     |                   =====================                   |     
     |                           x T B                           |     
     |                   =====================                   |     
     |                         S. Grimme                         |     
     |          Mulliken Center for Theoretical Chemistry        |     
     |                    University of Bonn                     |     
      -----------------------------------------------------------      

   * xtb version 6.7.1 (edcfbbe) compiled by 'albert@albert-system' on 2024-07-22

   xtb is free software: you can redistribute it and/or modify it under
   the terms of the GNU Lesser General Public License as published by
   the Free Software Foundation, either version 3 of the License, or
   (at your option) any later version.
   
   xtb is distributed in the hope that it will be useful,
   but WITHOUT ANY WARRANTY; without even the implied warranty of
   MERCHANTABILITY or FITNESS FOR A PARTICULAR PURPOSE.  See the
   GNU Lesser General Public License for more details.
   
   Cite this work as:
   * C. Bannwarth, E. Caldeweyher, S. Ehlert, A. Hansen, P. Pracht,
     J. Seibert, S. Spicher, S. Grimme, WIREs Comput. Mol. Sci., 2020, 11,
     e01493. DOI: 10.1002/wcms.1493
   
   for GFN2-xTB:
   * C. Bannwarth, S. Ehlert and S. Grimme., J. Chem. Theory Comput., 2019,
     15, 1652-1671. DOI: 10.1021/acs.jctc.8b01176
   for GFN1-xTB:
   * S. Grimme, C. Bannwarth, P. Shushkov, J. Chem. Theory Comput., 2017,
     13, 1989-2009. DOI: 10.1021/acs.jctc.7b00118
   for GFN0-xTB:
   * P. Pracht, E. Caldeweyher, S. Ehlert, S. Grimme, ChemRxiv, 2019, preprint.
     DOI: 10.26434/chemrxiv.8326202.v1
   for GFN-FF:
   * S. Spicher and S. Grimme, Angew. Chem. Int. Ed., 2020, 59, 15665-15673.
     DOI: 10.1002/anie.202004239
   
   for ALPB and GBSA implicit solvation:
   * S. Ehlert, M. Stahn, S. Spicher, S. Grimme, J. Chem. Theory Comput.,
     2021, 17, 4250-4261. DOI: 10.1021/acs.jctc.1c00471
   
   for ddCOSMO and CPCM-X implicit solvation:
   * M. Stahn, S. Ehlert, S. Grimme, J. Phys. Chem. A,
     2023, XX, XXXX-XXXX. DOI: 10.1021/acs.jpca.3c04382
   
   for DFT-D4:
   * E. Caldeweyher, C. Bannwarth and S. Grimme, J. Chem. Phys., 2017,
     147, 034112. DOI: 10.1063/1.4993215
   * E. Caldeweyher, S. Ehlert, A. Hansen, H. Neugebauer, S. Spicher,
     C. Bannwarth and S. Grimme, J. Chem. Phys., 2019, 150, 154122.
     DOI: 10.1063/1.5090222
   * E. Caldeweyher, J.-M. Mewes, S. Ehlert and S. Grimme, Phys. Chem. Chem. Phys.
     2020, 22, 8499-8512. DOI: 10.1039/D0CP00502A
   
   for sTDA-xTB:
   * S. Grimme and C. Bannwarth, J. Chem. Phys., 2016, 145, 054103.
     DOI: 10.1063/1.4959605
   
   in the mass-spec context:
   * V. Asgeirsson, C. Bauer and S. Grimme, Chem. Sci., 2017, 8, 4879.
     DOI: 10.1039/c7sc00601b
   * J. Koopman and S. Grimme, ACS Omega 2019, 4, 12, 15120-15133.
     DOI: 10.1021/acsomega.9b02011
   
   for metadynamics refer to:
   * S. Grimme, J. Chem. Theory Comput., 2019, 155, 2847-2862
     DOI: 10.1021/acs.jctc.9b00143
   
   for SPH calculations refer to:
   * S. Spicher and S. Grimme, J. Chem. Theory Comput., 2021, 17, 1701-1714
     DOI: 10.1021/acs.jctc.0c01306
   
   for ONIOM refer to:
   * C. Plett, A. Katbashev, S. Ehlert, S. Grimme, M. Bursch,
     Phys. Chem. Chem. Phys., 2023, 25, 17860-17868. DOI: 10.1039/D3CP02178E
   
   for DIPRO refer to:
   * J. Kohn, N. Gildemeister, S. Grimme, D. Fazzi, A. Hansen,
     J. Chem. Phys., 2023, just accepted.
   
   for PTB refer to:
   * S. Grimme, M. Mueller, A. Hansen, J. Chem. Phys., 2023, 158, 124111.
     DOI: 10.1063/5.0137838
   
   with help from (in alphabetical order)
   P. Atkinson, C. Bannwarth, F. Bohle, G. Brandenburg, E. Caldeweyher
   M. Checinski, S. Dohm, S. Ehlert, S. Ehrlich, I. Gerasimov, C. Hölzer
   A. Katbashev, J. Kohn, J. Koopman, C. Lavigne, S. Lehtola, F. März, M. Müller,
   F. Musil, H. Neugebauer, J. Pisarek, C. Plett, P. Pracht, F. Pultar,
   J. Seibert, P. Shushkov, S. Spicher, M. Stahn, M. Steiner, T. Strunk,
   J. Stückrath, T. Rose, and J. Unsleber
   
 * started run on 2025/04/11 at 12:00:26.498     
   ID    Z sym.   atoms
    1    6 C      1-5
    2    8 O      6
    3    1 H      7-18

           -------------------------------------------------
          |                Calculation Setup                |
           -------------------------------------------------

          program call               : /srv/scratch/z5358697/.xtb/bin/xtb xtb_opt.coord --opt normal --orca -I xtb_opt-xcontrol-inp
          hostname                   : k071
          coordinate file            : xtb_opt.coord
          omp threads                :                    16

           -------------------------------------------------
          |                   Orca driver                   |
           -------------------------------------------------
orca executable           : /apps/z_install_tree/linux-rocky8-ivybridge/gcc-12.2.0/orca-6.0.0-srtngmq3qlimg2qxbl6avaaiffipurdx/bin/orca
orca input file           : xtb_opt.inp
orca input line           : 
orca parallel             : true
orca number of threads    : 16
                         * ORCA takes the control...
  ------------------------------------------------------------------------

                                 *****************
                                 * O   R   C   A *
                                 *****************

                                            #,                                       
                                            ###                                      
                                            ####                                     
                                            #####                                    
                                            ######                                   
                                           ########,                                 
                                     ,,################,,,,,                         
                               ,,#################################,,                 
                          ,,##########################################,,             
                       ,#########################################, ''#####,          
                    ,#############################################,,   '####,        
                  ,##################################################,,,,####,       
                ,###########''''           ''''###############################       
              ,#####''   ,,,,##########,,,,          '''####'''          '####       
            ,##' ,,,,###########################,,,                        '##       
           ' ,,###''''                  '''############,,,                           
         ,,##''                                '''############,,,,        ,,,,,,###''
      ,#''                                            '''#######################'''  
     '                                                          ''''####''''         
             ,#######,   #######,   ,#######,      ##                                
            ,#'     '#,  ##    ##  ,#'     '#,    #''#        ,####,   ,####,        
            ##       ##  ##   ,#'  ##            #'  '#       #'       #'  '#        
            ##       ##  #######   ##           ,######,      #####,   #    #        
            '#,     ,#'  ##    ##  '#,     ,#' ,#      #,     #,   #   #,  ,#        
             '#######'   ##     ##  '#######'  #'      '#     '####' # '####'        



                #########################################################
                #                        -***-                          #
                #          Department of theory and spectroscopy        #
                #                                                       #
                #                      Frank Neese                      #
                #                                                       #
                #     Directorship, Architecture, Infrastructure        #
                #                    SHARK, DRIVERS                     #
                #        Core code/Algorithms in most modules           #
                #                                                       #
                #        Max Planck Institute fuer Kohlenforschung      #
                #                Kaiser Wilhelm Platz 1                 #
                #                 D-45470 Muelheim/Ruhr                 #
                #                      Germany                          #
                #                                                       #
                #                  All rights reserved                  #
                #                        -***-                          #
                #########################################################


                         Program Version 6.0.0  -   RELEASE  -


 With contributions from (in alphabetic order):
   Daniel Aravena         : Magnetic Suceptibility
   Michael Atanasov       : Ab Initio Ligand Field Theory (pilot matlab implementation)
   Alexander A. Auer      : GIAO ZORA, VPT2 properties, NMR spectrum
   Ute Becker             : All parallelization in ORCA, NUMFREQ, NUMCALC
   Giovanni Bistoni       : ED, misc. LED, open-shell LED, HFLD
   Martin Brehm           : Molecular dynamics
   Dmytro Bykov           : pre 5.0 version of the SCF Hessian
   Marcos Casanova-Páez   : Triplet and SCS-CIS(D). UHF-(DLPNO)-IP/EA/STEOM-CCSD. UHF-CVS-IP/STEOM-CCSD
   Vijay G. Chilkuri      : MRCI spin determinant printing, contributions to CSF-ICE
   Pauline Colinet        : FMM embedding
   Dipayan Datta          : RHF DLPNO-CCSD density
   Achintya Kumar Dutta   : EOM-CC, STEOM-CC
   Nicolas Foglia         : Exact transition moments, OPA infrastructure, MCD improvements
   Dmitry Ganyushin       : Spin-Orbit,Spin-Spin,Magnetic field MRCI
   Miquel Garcia          : C-PCM and meta-GGA Hessian, CCSD/C-PCM, Gaussian charge scheme
   Tiago L. C. Gouveia    : GS-ROHF, GS-ROCIS
   Yang Guo               : DLPNO-NEVPT2, F12-NEVPT2, CIM, IAO-localization
   Andreas Hansen         : Spin unrestricted coupled pair/coupled cluster methods
   Ingolf Harden          : AUTO-CI MPn and infrastructure 
   Benjamin Helmich-Paris : MC-RPA, TRAH-(SCF,CASSCF), AVAS, COSX integrals, SCF dyn. polar.
   Lee Huntington         : MR-EOM, pCC
   Robert Izsak           : Overlap fitted RIJCOSX, COSX-SCS-MP3, EOM
   Riya Kayal             : Wick's Theorem for AUTO-CI, AUTO-CI UHF-CCSDT
   Emily Kempfer          : AUTO-CI, RHF CISDT and CCSDT
   Christian Kollmar      : KDIIS, OOCD, Brueckner-CCSD(T), CCSD density, CASPT2, CASPT2-K, improved NEVPT2
   Axel Koslowski         : Symmetry handling
   Simone Kossmann        : Meta GGA functionals, TD-DFT gradient, OOMP2, (MP2 Hessian; deprecated post 5.0)
   Lucas Lang             : DCDCAS
   Marvin Lechner         : AUTO-CI (C++ implementation), FIC-MRCC
   Spencer Leger          : CASSCF response
   Dagmar Lenk            : GEPOL surface, SMD, ORCA-2-JSON
   Dimitrios Liakos       : Extrapolation schemes; Compound Job, initial MDCI parallelization
   Dimitrios Manganas     : Further ROCIS development; embedding schemes. LFT, Crystal Embedding
   Dimitrios Pantazis     : SARC Basis sets
   Anastasios Papadopoulos: AUTO-CI, single reference methods and gradients
   Taras Petrenko         : pre 6.0 DFT Hessian and TD-DFT gradient, (ASA, deprecated), ECA, 1-Electron XAS/XES, NRVS
   Peter Pinski           : DLPNO-MP2, DLPNO-MP2 Gradient
   Christoph Reimann      : Effective Core Potentials
   Marius Retegan         : Local ZFS, SOC
   Christoph Riplinger    : Optimizer, TS searches, QM/MM, DLPNO-CCSD(T), (RO)-DLPNO pert. Triples
   Michael Roemelt        : Original ROCIS implementation
   Masaaki Saitow         : Open-shell DLPNO-CCSD energy and density
   Barbara Sandhoefer     : DKH picture change effects
   Kantharuban Sivalingam : CASSCF convergence/infrastructure, NEVPT2 and variants, FIC-MRCI
   Bernardo de Souza      : ESD, SOC TD-DFT
   Georgi Stoychev        : AutoAux, RI-MP2 NMR, DLPNO-MP2 response, X2C
   Van Anh Tran           : RI-MP2 g-tensors
   Willem Van den Heuvel  : Paramagnetic NMR
   Zikuan Wang            : NOTCH, Electric field optimization 
   Frank Wennmohs         : Technical directorship and infrastructure
   Hang Xu                : AUTO-CI-Response properties 


 We gratefully acknowledge several colleagues who have allowed us to
 interface, adapt or use parts of their codes:
   Stefan Grimme, W. Hujo, H. Kruse, P. Pracht,  : VdW corrections, initial TS optimization,
                  C. Bannwarth, S. Ehlert,         DFT functionals, gCP, sTDA/sTD-DF
                  L. Wittmann, M. Mueller
   Ed Valeev, F. Pavosevic, A. Kumar             : LibInt (2-el integral package), F12 methods
   Garnet Chan, S. Sharma, J. Yang, R. Olivares  : DMRG
   Ulf Ekstrom                                   : XCFun DFT Library
   Mihaly Kallay                                 : mrcc  (arbitrary order and MRCC methods)
   Frank Weinhold                                : gennbo (NPA and NBO analysis)
   Simon Mueller                                 : openCOSMO-RS
   Christopher J. Cramer and Donald G. Truhlar   : smd solvation model
   Lars Goerigk                                  : TD-DFT with DH, B97 family of functionals
   V. Asgeirsson, H. Jonsson                     : NEB implementation
   FAccTs GmbH                                   : IRC, NEB, NEB-TS, DLPNO-Multilevel, CI-OPT
                                                   MM, QMMM, 2- and 3-layer-ONIOM, Crystal-QMMM,
                                                   LR-CPCM, SF, NACMEs, symmetry and pop. for TD-DFT,
                                                   nearIR, NL-DFT gradient (VV10), updates on ESD,
                                                   ML-optimized integration grids, MBIS, APM,
                                                   GOAT, DOCKER, SOLVATOR, interface openCOSMO-RS
   S Lehtola, MJT Oliveira, MAL Marques          : LibXC Library
   Liviu Ungur et al                             : ANISO software


 Your calculation uses the libint2 library for the computation of 2-el integrals
 For citations please refer to: http://libint.valeyev.net

 Your ORCA version has been built with support for libXC version: 6.2.2
 For citations please refer to: https://libxc.gitlab.io

 This ORCA versions uses:
   CBLAS   interface :  Fast vector & matrix operations
   LAPACKE interface :  Fast linear algebra routines
   SCALAPACK package :  Parallel linear algebra routines
   Shared memory     :  Shared parallel matrices
   BLAS/LAPACK       :  OpenBLAS 0.3.27  USE64BITINT DYNAMIC_ARCH NO_AFFINITY SkylakeX SINGLE_THREADED
        Core in use  :  SkylakeX
   Copyright (c) 2011-2014, The OpenBLAS Project




***************************************
The coordinates will be read from file: xtb_opt.xyz
***************************************


Your calculation utilizes the geometrical counterpoise correction gCP
Please cite in your paper:
H.Kruse, S. Grimme J.Chem.Phys., 136, (2012), 154101 
   

Your calculation utilizes the atom-pairwise dispersion correction
based on EEQ partial charges (D4)


Your calculation utilizes the SMD solvation module
Please cite in your paper:
A.V. Marenich, C.J. Cramer, D.G. Truhlar J. Phys. Chem. B, 113, (2009), 6378 

================================================================================

----- Orbital basis set information -----
Your calculation utilizes the basis: def2-mTZVPP
   Stefan Grimme, Andreas Hansen, Sebastian Ehlert, and Jan-Michael Mewes 
   J. Chem. Phys. 154, 064103 (2021). DOI: 10.1063/5.0040021

----- AuxJ basis set information -----
Your calculation utilizes the auxiliary basis: def2/J
   F. Weigend, Phys. Chem. Chem. Phys. 8, 1057 (2006).

================================================================================
                                        WARNINGS
                       Please study these warnings very carefully!
================================================================================

Using LibXC functional ID 497 : Re-regularized SCAN exchange by Furness et al
[ 1]  J. W. Furness, A. D. Kaplan, J. Ning, J. P. Perdew, and J. Sun.,  J. Phys. Chem. Lett. 11, 8208-8215 (2020)
[ 2]  J. W. Furness, A. D. Kaplan, J. Ning, J. P. Perdew, and J. Sun.,  J. Phys. Chem. Lett. 11, 9248-9248 (2020)
Using LibXC functional ID 498 : Re-regularized SCAN correlation by Furness et al
[ 1]  J. W. Furness, A. D. Kaplan, J. Ning, J. P. Perdew, and J. Sun.,  J. Phys. Chem. Lett. 11, 8208-8215 (2020)
[ 2]  J. W. Furness, A. D. Kaplan, J. Ning, J. P. Perdew, and J. Sun.,  J. Phys. Chem. Lett. 11, 9248-9248 (2020)
Using LibXC functional ID 497 : Re-regularized SCAN exchange by Furness et al
[ 1]  J. W. Furness, A. D. Kaplan, J. Ning, J. P. Perdew, and J. Sun.,  J. Phys. Chem. Lett. 11, 8208-8215 (2020)
[ 2]  J. W. Furness, A. D. Kaplan, J. Ning, J. P. Perdew, and J. Sun.,  J. Phys. Chem. Lett. 11, 9248-9248 (2020)
Using LibXC functional ID 498 : Re-regularized SCAN correlation by Furness et al
[ 1]  J. W. Furness, A. D. Kaplan, J. Ning, J. P. Perdew, and J. Sun.,  J. Phys. Chem. Lett. 11, 8208-8215 (2020)
[ 2]  J. W. Furness, A. D. Kaplan, J. Ning, J. P. Perdew, and J. Sun.,  J. Phys. Chem. Lett. 11, 9248-9248 (2020)

================================================================================
                                       INPUT FILE
================================================================================
NAME = xtb_opt.inp
|  1> ! r2scan-3c def2/J RI DEFGRID2 scfconv7 ENGRAD tightSCF miniprint
|  2> %cpcm
|  3>     smd true
|  4>     smdsolvent "water"
|  5> end
|  6> * xyzfile 0 1 xtb_opt.xyz
|  7> 
|  8>                          ****END OF INPUT****
================================================================================

                     *******************************
                     * Energy+Gradient Calculation *
                     *******************************

---------------------------------
CARTESIAN COORDINATES (ANGSTROEM)
---------------------------------
  C     -1.655945    1.205752    0.707329
  C     -1.387530    0.037590   -0.232303
  C     -0.008883   -0.608554   -0.040917
  C      1.160305    0.331325   -0.393938
  C      1.815261    0.966647    0.827645
  O      0.064537   -1.815930   -0.787678
  H     -0.990531    2.037559    0.494411
  H     -2.679876    1.550003    0.584852
  H     -1.516920    0.901996    1.742067
  H     -2.138600   -0.739003   -0.067543
  H     -1.478149    0.375185   -1.268389
  H      0.093624   -0.938582    0.999158
  H      1.913269   -0.262036   -0.918242
  H      0.813753    1.110956   -1.075330
  H      1.103468    1.562357    1.391338
  H      2.213794    0.197030    1.484614
  H      2.634733    1.610719    0.517622
  H     -0.077918   -1.612536   -1.722600

----------------------------
CARTESIAN COORDINATES (A.U.)
----------------------------
  NO LB      ZA    FRAG     MASS         X           Y           Z
   0 C     6.0000    0    12.011   -3.129283    2.278540    1.336658
   1 C     6.0000    0    12.011   -2.622052    0.071034   -0.438988
   2 C     6.0000    0    12.011   -0.016786   -1.150001   -0.077321
   3 C     6.0000    0    12.011    2.192659    0.626114   -0.744436
   4 C     6.0000    0    12.011    3.430347    1.826698    1.564022
   5 O     8.0000    0    15.999    0.121958   -3.431610   -1.488496
   6 H     1.0000    0     1.008   -1.871832    3.850429    0.934301
   7 H     1.0000    0     1.008   -5.064232    2.929081    1.105211
   8 H     1.0000    0     1.008   -2.866564    1.704526    3.292030
   9 H     1.0000    0     1.008   -4.041368   -1.396514   -0.127638
  10 H     1.0000    0     1.008   -2.793297    0.708997   -2.396908
  11 H     1.0000    0     1.008    0.176924   -1.773662    1.888135
  12 H     1.0000    0     1.008    3.615554   -0.495176   -1.735226
  13 H     1.0000    0     1.008    1.537769    2.099403   -2.032080
  14 H     1.0000    0     1.008    2.085253    2.952428    2.629249
  15 H     1.0000    0     1.008    4.183465    0.372332    2.805513
  16 H     1.0000    0     1.008    4.978924    3.043818    0.978163
  17 H     1.0000    0     1.008   -0.147243   -3.047252   -3.255243

------------------------------------------------------------------------------
                   ___                                                        
                  /   \      - P O W E R E D   B Y -                         
                 /     \                                                     
                 |  |  |   _    _      __       _____    __    __             
                 |  |  |  | |  | |    /  \     |  _  \  |  |  /  |          
                  \  \/   | |  | |   /    \    | | | |  |  | /  /          
                 / \  \   | |__| |  /  /\  \   | |_| |  |  |/  /          
                |  |  |   |  __  | /  /__\  \  |    /   |      \           
                |  |  |   | |  | | |   __   |  |    \   |  |\   \          
                \     /   | |  | | |  |  |  |  | |\  \  |  | \   \       
                 \___/    |_|  |_| |__|  |__|  |_| \__\ |__|  \__/        
                                                                              
                      - O R C A' S   B I G   F R I E N D -                    
                                      &                                       
                       - I N T E G R A L  F E E D E R -                       
                                                                              
 v1 FN, 2020, v2 2021, v3 2022-2024                                           
------------------------------------------------------------------------------


----------------------
SHARK INTEGRAL PACKAGE
----------------------

Number of atoms                             ...     18
Number of basis functions                   ...    179
Number of shells                            ...     91
Maximum angular momentum                    ...      2
Integral batch strategy                     ... SHARK/LIBINT Hybrid
RI-J (if used) integral strategy            ... SPLIT-RIJ (Revised 2003 algorithm where possible)
Printlevel                                  ...      1
Contraction scheme used                     ... SEGMENTED contraction
Prescreening option                         ... SCHWARTZ
   Thresh                                   ... 3.000e-11
   Tcut                                     ... 1.000e-12
   Tpresel                                  ... 1.000e-12 
Coulomb Range Separation                    ... NOT USED
Exchange Range Separation                   ... NOT USED
Multipole approximations                    ... NOT USED
Finite Nucleus Model                        ... NOT USED
CABS basis                                  ... NOT available
Auxiliary Coulomb fitting basis             ... AVAILABLE
   # of basis functions in Aux-J            ...    426
   # of shells in Aux-J                     ...    150
   Maximum angular momentum in Aux-J        ...      4
Auxiliary J/K fitting basis                 ... NOT available
Auxiliary Correlation fitting basis         ... NOT available
Auxiliary 'external' fitting basis          ... NOT available

Checking pre-screening integrals            ... done (  0.0 sec) Dimension = 91
Check shell pair data                       ... done (  0.0 sec)
Shell pair information
Shell pair cut-off parameter TPreSel        ...   1.0e-12
Total number of shell pairs                 ...      4186
Shell pairs after pre-screening             ...      3958
Total number of primitive shell pairs       ...     14533
Primitive shell pairs kept                  ...     10210
          la=0 lb=0:   1388 shell pairs
          la=1 lb=0:   1528 shell pairs
          la=1 lb=1:    443 shell pairs
          la=2 lb=0:    365 shell pairs
          la=2 lb=1:    206 shell pairs
          la=2 lb=2:     28 shell pairs

Calculating one electron integrals          ... done (  0.0 sec)
Calculating RI/J V-Matrix + Cholesky decomp.... done (  0.1 sec)
Calculating Nuclear repulsion               ... done (  0.0 sec) ENN=    260.194932137025 Eh

Diagonalization of the overlap matrix:
Smallest eigenvalue                        ... 2.250e-04
Time for diagonalization                   ...    0.003 sec
Threshold for overlap eigenvalues          ... 1.000e-07
Number of eigenvalues below threshold      ... 0
Time for construction of square roots      ...    0.026 sec
Total time needed                          ...    0.038 sec

-------------------
DFT GRID GENERATION
-------------------

General Integration Accuracy     IntAcc      ... 4.388
Radial Grid Type                 RadialGrid  ... OptM3 with GC (2021)
Angular Grid (max. ang.)         AngularGrid ... 4 (Lebedev-302)
Angular grid pruning method      GridPruning ... 4 (adaptive)
Weight generation scheme         WeightScheme... mBecke (2022)
Basis function cutoff            BFCut       ... 1.0000e-11
Integration weight cutoff        WCut        ... 1.0000e-14
Partially contracted basis set               ... off
Rotationally invariant grid construction     ... off
Angular grids for H and He will be reduced by one unit
Diffuse basis detected: some atoms will have their outermost
                        angular grid increased by 1.

Total number of grid points                  ...    74860
Total number of batches                      ...     1176
Average number of points per batch           ...       63
Average number of grid points per atom       ...     4159
Initializing property integral containers    ... done (  0.0 sec)

SHARK setup successfully completed in   1.1 seconds

Maximum memory used throughout the entire STARTUP-calculation: 32.5 MB
Occupation numbers will be reassigned to an Aufbau configuration
             **** ENERGY FILE WAS UPDATED (xtb_opt.en.tmp) ****
Finished Guess after   0.3 sec
Maximum memory used throughout the entire GUESS-calculation: 12.3 MB
--------------------
CPCM SOLVATION MODEL
--------------------
CPCM parameters:
  Epsilon                                         ...      78.3550
  Refrac                                          ...       1.3328
  Rsolv                                           ...       1.3000
  Surface type                                    ... GAUSSIAN VDW
  Discretization scheme                           ... Constant charge density
    Threshold for H atoms                         ...       5.0000 (charges/Ang^2)
    Threshold for non-H atoms                     ...       5.0000 (charges/Ang^2)
  Epsilon function type                           ...         CPCM
Solvent:                                          ... WATER
SMD-CDS solvent descriptors:
  Soln                                            ...       1.3328
  Soln25                                          ...       1.3323
  Sola                                            ...       0.0000
  Solb                                            ...       0.0000
  Solg                                            ...       0.0000
  Solc                                            ...       0.0000
  Solh                                            ...       0.0000
Radii:
  Scheme                                          ... Element-dependent radii
  Radius for C  used is    3.4960 Bohr (=   1.8500 Ang.)
  Radius for O  used is    2.8724 Bohr (=   1.5200 Ang.)
  Radius for H  used is    2.2677 Bohr (=   1.2000 Ang.)
Calculating surface                               ...        done! (  0.0s)
Cavity surface points                             ...         1322
Cavity Volume                                     ...     734.8691
Cavity Surface-area                               ...     493.5891
Calculating surface distance matrix               ...        done! (  0.0s)
Performing Cholesky decomposition & store         ...        done! (  0.1s)
Overall time for CPCM initialization              ...                 0.1s

----------------------------------------D-I-I-S--------------------------------------------
Iteration    Energy (Eh)           Delta-E    RMSDP     MaxDP     DIISErr   Damp  Time(sec)
-------------------------------------------------------------------------------------------
               ***  Starting incremental Fock matrix formation  ***
                              *** Initializing SOSCF ***
---------------------------------------S-O-S-C-F--------------------------------------
Iteration    Energy (Eh)           Delta-E    RMSDP     MaxDP     MaxGrad    Time(sec)
--------------------------------------------------------------------------------------
    1    -272.9152361870006871     0.00e+00  4.16e-06  1.19e-04  8.52e-06     2.6
               *** Restarting incremental Fock matrix formation ***
    2    -272.9152361822378907     4.76e-09  5.96e-06  1.72e-04  5.23e-05     2.6
    3    -272.9152360649657112     1.17e-07  4.39e-06  1.10e-04  8.96e-05     2.5
    4    -272.9152362420196596    -1.77e-07  5.65e-07  1.31e-05  3.77e-06     2.1
                  *** Gradient check signals convergence ***

               *****************************************************
               *                     SUCCESS                       *
               *           SCF CONVERGED AFTER   4 CYCLES          *
               *****************************************************


SMD CDS free energy correction energy :                 3.25760     Kcal/mol
Total Energy after SMD CDS correction =              -272.910044934 Eh
             **** ENERGY FILE WAS UPDATED (xtb_opt.en.tmp) ****

----------------
TOTAL SCF ENERGY
----------------

Total Energy       :       -272.91004493391858 Eh           -7426.25987 eV

Components:
Nuclear Repulsion  :        260.19493213702538 Eh            7080.26406 eV
Electronic Energy  :       -533.09636654405813 Eh          -14506.28962 eV
One Electron Energy:       -884.19860133567681 Eh          -24060.26714 eV
Two Electron Energy:        351.10223479161868 Eh            9553.97752 eV
CPCM Dielectric    :         -0.01380183498690 Eh              -0.37557 eV
SMD CDS (Gcds)     :          0.00519130810106 Eh               0.14126 eV

Virial components:
Potential Energy   :       -544.59446229277421 Eh          -14819.16871 eV
Kinetic Energy     :        271.68441735885563 Eh            7392.90884 eV
Virial Ratio       :          2.00451121778340

DFT components:
N(Alpha)           :       25.000007761319 electrons
N(Beta)            :       25.000007761319 electrons
N(Total)           :       50.000015522639 electrons
E(X)               :      -38.584300818117 Eh       
E(C)               :       -1.562493418697 Eh       
E(XC)              :      -40.146794236814 Eh       

CPCM Solvation Model Properties:
Surface-charge          :         -0.04642434960430
Corrected charge        :         -0.00000000000000
Outlying charge corr.   :          0.00017892834201 Eh               0.00487 eV
Free-energy (cav+disp)  :          0.00519130810106 Eh               0.14126 eV

---------------
SCF CONVERGENCE
---------------

  Last Energy change         ...    1.7705e-07  Tolerance :   1.0000e-07
  Last MAX-Density change    ...    1.3081e-05  Tolerance :   1.0000e-07
  Last RMS-Density change    ...    5.6525e-07  Tolerance :   5.0000e-09
  Last DIIS Error            ...    1.9784e-04  Tolerance :   1.0000e-07
  Last Orbital Gradient      ...    3.7749e-06  Tolerance :   1.0000e-04
  Last Orbital Rotation      ...    6.6885e-06  Tolerance :   1.0000e-04


----------------
ORBITAL ENERGIES
----------------

  NO   OCC          E(Eh)            E(eV) 
   0   2.0000     -18.945425      -515.5312 
   1   2.0000     -10.071429      -274.0575 
   2   2.0000     -10.017268      -272.5837 
   3   2.0000     -10.015839      -272.5448 
   4   2.0000     -10.010188      -272.3911 
   5   2.0000     -10.009305      -272.3670 
   6   2.0000      -0.982700       -26.7406 
   7   2.0000      -0.753365       -20.5001 
   8   2.0000      -0.710294       -19.3281 
   9   2.0000      -0.632529       -17.2120 
  10   2.0000      -0.573022       -15.5927 
  11   2.0000      -0.547440       -14.8966 
  12   2.0000      -0.454560       -12.3692 
  13   2.0000      -0.424898       -11.5621 
  14   2.0000      -0.410693       -11.1755 
  15   2.0000      -0.393568       -10.7095 
  16   2.0000      -0.370197       -10.0736 
  17   2.0000      -0.351735        -9.5712 
  18   2.0000      -0.345197        -9.3933 
  19   2.0000      -0.321509        -8.7487 
  20   2.0000      -0.314468        -8.5571 
  21   2.0000      -0.309484        -8.4215 
  22   2.0000      -0.283677        -7.7192 
  23   2.0000      -0.275750        -7.5035 
  24   2.0000      -0.232770        -6.3340 
  25   0.0000       0.076525         2.0824 
  26   0.0000       0.098231         2.6730 
  27   0.0000       0.119365         3.2481 
  28   0.0000       0.126853         3.4519 
  29   0.0000       0.133355         3.6288 
  30   0.0000       0.149526         4.0688 
  31   0.0000       0.152745         4.1564 
  32   0.0000       0.167711         4.5636 
  33   0.0000       0.172444         4.6924 
  34   0.0000       0.175353         4.7716 
  35   0.0000       0.191646         5.2150 
*Only the first 10 virtual orbitals were printed.
Total SCF time: 0 days 0 hours 0 min 10 sec 
Finished LeanSCF after  10.6 sec

Maximum memory used throughout the entire LEANSCF-calculation: 23.9 MB


-------------------------------------------------------------------------------
                          DFT DISPERSION CORRECTION                            
                                                                               
                                DFTD4 V3.4.0                                   
-------------------------------------------------------------------------------
-------------------------   ----------------
Dispersion correction           -0.004376795
-------------------------   ----------------

------------------   -----------------
gCP correction             0.009655895
------------------   -----------------

-------------------------   --------------------
FINAL SINGLE POINT ENERGY      -272.904765833776
-------------------------   --------------------

------------------------------------------------------------------------------
                         ORCA SCF GRADIENT CALCULATION
------------------------------------------------------------------------------

Nuc. rep. gradient        (SHARK) ... done (  0.0 sec)
HCore & Overlap gradient  (SHARK) ... done (  0.2 sec)
Split-RIJ-J gradient      (SHARK) ... done (  1.1 sec)
XC gradient                       ... done (  5.7 sec)
CPCM gradient                     ... done (  0.7 sec)
SMD gradient                      ... done (  0.0 sec)
Dispersion correction             ... done (  0.0 sec)

-------------------
DISPERSION GRADIENT
-------------------

   1   C   :   -0.000076346    0.000045827    0.000029221
   2   C   :   -0.000060906   -0.000009578   -0.000016118
   3   C   :   -0.000000999   -0.000028583   -0.000007800
   4   C   :    0.000051613    0.000002957   -0.000022250
   5   C   :    0.000084816    0.000033786    0.000035071
   6   O   :   -0.000002750   -0.000076424   -0.000055368
   7   H   :   -0.000031037    0.000026604    0.000008144
   8   H   :   -0.000036349    0.000018534    0.000008371
   9   H   :   -0.000037155    0.000014231    0.000022550
  10   H   :   -0.000029316   -0.000011695   -0.000001462
  11   H   :   -0.000027489   -0.000000853   -0.000014941
  12   H   :    0.000001817   -0.000024754   -0.000000935
  13   H   :    0.000028831   -0.000007432   -0.000010724
  14   H   :    0.000022525    0.000009874   -0.000015437
  15   H   :    0.000032637    0.000019353    0.000018622
  16   H   :    0.000039889    0.000005626    0.000019095
  17   H   :    0.000037603    0.000017235    0.000007472
  18   H   :    0.000002615   -0.000034708   -0.000003511

Difference to translation invariance:
           :   -0.0000000000    0.0000000000   -0.0000000000

Difference to rotation invariance:
           :    0.0000000000    0.0000000000    0.0000000000

Norm of the Dispersion gradient    ...    0.0002283356
RMS gradient                       ...    0.0000310725
MAX gradient                       ...    0.0000848164
gCP correction                   ... done

------------------
CARTESIAN GRADIENT
------------------

   1   C   :   -0.000941900    0.003940806    0.004374662
   2   C   :   -0.004052470    0.002462470   -0.004881837
   3   C   :    0.002592843   -0.011673752   -0.001005674
   4   C   :    0.001268621    0.002246652   -0.005102571
   5   C   :    0.001803936    0.001154174    0.004913030
   6   O   :    0.000259705    0.015180137    0.009137164
   7   H   :   -0.002510202   -0.004882691   -0.000210386
   8   H   :    0.004066397   -0.002665306   -0.000466982
   9   H   :   -0.000405709    0.000042638   -0.005432967
  10   H   :    0.002111652    0.001650359    0.000295758
  11   H   :   -0.000173652    0.000700071    0.003692160
  12   H   :    0.000105383   -0.001320390   -0.002166633
  13   H   :   -0.000913547    0.000421285    0.002139921
  14   H   :    0.000634729   -0.001622901    0.003449095
  15   H   :    0.002255826   -0.003261030   -0.003758054
  16   H   :   -0.002119963    0.002797781   -0.003624502
  17   H   :   -0.003787367   -0.003470118   -0.000453046
  18   H   :   -0.000194284   -0.001700185   -0.000899137

Difference to translation invariance:
           :    0.0000000000   -0.0000000000   -0.0000000000

Difference to rotation invariance:
           :    0.0000492770   -0.0000905550   -0.0000921497

Norm of the Cartesian gradient     ...    0.0286190263
RMS gradient                       ...    0.0038945562
MAX gradient                       ...    0.0151801374

-------
TIMINGS
-------

Total SCF gradient time     ....        8.326 sec

Densities                   ....       0.000 sec  (  0.0%)
One electron gradient       ....       0.213 sec  (  2.6%)
RI-J Coulomb gradient       ....       1.121 sec  ( 13.5%)
XC gradient                 ....       5.654 sec  ( 67.9%)
CPCM gradient               ....       0.673 sec  (  8.1%)
   A-Matrix (El+Nuc)        ....       0.059 sec  (  0.7%)
   Potential                ....       0.614 sec  (  7.4%)
SMD gradient                ....       0.026 sec  (  0.3%)

Maximum memory used throughout the entire SCFGRAD-calculation: 32.4 MB

------------------------------------------------------------------------------
                              ORCA PROPERTY CALCULATIONS
------------------------------------------------------------------------------

GBWName                                 ... xtb_opt.gbw
Number of atoms                         ...     18
Number of basis functions               ...    179
Max core memory                         ...   1024 MB

Electric properties:
Dipole moment                           ... YES
Quadrupole moment                       ...  NO
Static polarizability (Dipole/Dipole)   ...  NO
Static polarizability (Dipole/Quad.)    ...  NO
Static polarizability (Quad./Quad.)     ...  NO
Static polarizability (Velocity)        ...  NO

Atomic electric properties:
Dipole moment                           ...  NO
Quadrupole moment                       ...  NO
Static polarizability                   ...  NO

Choice of electric origin               ... Center of mass
Position of electric origin             ...    -0.000001     0.000028     0.000011

General magnetic properties:
Magnetizability                         ...  NO

EPR properties:
g-Tensor (aka g-matrix)                 ...  NO
Zero-Field splitting spin-orbit         ...  NO
Zero-field splitting spin-spin          ...  NO
Hyperfine couplings                     ...  NO (   0 nuclei)
Quadrupole couplings                    ...  NO (   0 nuclei)
Contact density                         ...  NO (   0 nuclei)

NMR properties:
Chemical shifts                         ...  NO (   0 nuclei)
Spin-rotation constants                 ...  NO (   0 nuclei)
Spin-spin couplings                     ...  NO (   0 nuclei,    0 pairs)

Choice of magnetic origin               ... GIAO
Position of magnetic origin             ...     0.000000     0.000000     0.000000

Properties with geometric perturbations:
SCF Hessian                             ...  NO
IR spectrum                             ...  NO
VCD spectrum                            ...  NO
X-ray spectroscopy properties:
SCF XES/XAS/RIXS spectra                ...  NO


-------------
DIPOLE MOMENT
-------------

Method             : SCF
Type of density    : Electron Density
Multiplicity       :   1
Irrep              :   0
Energy             :  -272.9100449339185843 Eh
Relativity type    : 
Basis              : AO
                                X                 Y                 Z
Electronic contribution:     -0.053900091      -4.556898135      -2.343667979
Nuclear contribution   :     -0.101632551       5.408441697       2.016579672
                        -----------------------------------------
Total Dipole Moment    :     -0.155532642       0.851543561      -0.327088308
                        -----------------------------------------
Magnitude (a.u.)       :      0.925366739
Magnitude (Debye)      :      2.352095325



--------------------
Rotational spectrum 
--------------------
 
Rotational constants in cm-1:             0.114207             0.103578             0.060506 
Rotational constants in MHz :          3423.848850          3105.177916          1813.926050 

Dipole components along the rotational axes: 
x,y,z [a.u.] :    -0.132301     0.600738    -0.691313 
x,y,z [Debye]:    -0.336281     1.526955    -1.757179 

 

Dipole moment calculation done in   0.0 sec 

Maximum memory used throughout the entire PROP-calculation: 10.7 MB

--------------------------------
SUGGESTED CITATIONS FOR THIS RUN
--------------------------------

Below you find a list of papers that are relevant to this ORCA run
We neither can nor want to force you to cite these papers, but we appreciate if you do
You receive ORCA, which is the product of decades of hard work by many enthusiastic individuals, for free
The only thing we kindly ask in return is that you cite our papers,
We deeply appreciate it, if you show your appreciation for ORCA by not just citing the generic ORCA reference.

Please note that relegating all ORCA citations to the supporting information does *not* help us.
SI sections are not indexed - citations you put there will not count into any citation statistics
But we need these citations in order to attract the funding resources that allow us to do what we are doing

Therefore, if you are a happy ORCA user, please consider citing a few of the papers listed below in the main body of your paper

In addition to the list printed below, the program has created the file xtb_opt.bibtex that contains the list in bibtex format
You can import this file easily into all common literature databanks and citation aid programs


List of essential papers. We consider these as the minimum necessary citations

  1. Neese,F.
     Software update: the ORCA program system, version 5.0
     WIRES Comput. Molec. Sci., 2022 12(1)e1606
     doi.org/10.1002/wcms.1606
  2. Grimme,S.; Hansen,A.; Ehlert,S.; Mewes,J.
     r2SCAN-3c: A 'Swiss army knife' composite electronic-structure method
     J. Chem. Phys., 2021 154 064103
     doi.org/10.1063/5.0040021

List of papers to cite with high priority. The work reported in these papers was absolutely
necessary for this run to complete.
Our perspective: the developers of density functionals and basis sets usually get cited in chemistry papers
Good! But without the algorithms to do something with them, the functionals or basis sets would not do anything.
Hence, in our opinion, the algorithm design and method developments papers are equally worthy of getting cited

  1. Neese,F.
     An improvement of the resolution of the identity approximation for the formation of the Coulomb matrix
     J. Comp. Chem., 2003 24(14)1740-1747
     doi.org/10.1002/jcc.10318
  2. Garcia-Rates,M.; Neese,F.
     Effect of the Solute Cavity on the Solvation Energy and its Derivatives within the Framework of the Gaussian Charge Scheme
     J. Comput. Chem., 2020 41 922-939
     doi.org/10.1002/jcc.26139
  3. Neese,F.
     The SHARK Integral Generation and Digestion System
     J. Comp. Chem., 2022  1-16
     doi.org/10.1002/jcc.26942
  4. Lehtola,S.; Steigemann,C.; Oliveira,M.; Marques,M.
     Recent developments in Libxc - A comprehensive library of functionals for density functional theory
     Software X, 2018 7 
     doi.org/10.1016/j.softx.2017.11.002
  5. Caldeweyher,E.; Bannwarth,C.; Grimme,S.
     Extension of the D3 dispersion coefficient model
     J. Chem. Phys., 2017 147 034112-XXXX
     doi.org/10.1063/1.4993215
  6. Caldeweyher,E.; Ehlert,S.; Hansen,A.; Neugebauer,H.; Spicher,S.; Bannwarth,C.; Grimme,S.
     A generally applicable atomic-charge dependent London dispersion correction
     J. Chem. Phys., 2019 150 154122-XXXX
     doi.org/10.1063/1.5090222
  7. Caldeweyher,E.; Mewes,J.; Ehlert,S.; Grimme,S.
     Extension and evaluation of the D4 London-dispersion model for periodic systems
     Phys. Chem. Chem. Phys., 2020 22(16)8499-8512
     doi.org/10.1039/D0CP00502A

List of suggested additional citations. These are papers that are important in the 'surrounding' of 
of this run, or papers that preceded the highly important papers. If you like your results we are grateful for a citation.

  1. Neese,F.
     The ORCA program system
     WIRES Comput. Molec. Sci., 2012 2(1)73-78
     doi.org/10.1002/wcms.81
  2. Neese,F.
     Software update: the ORCA program system, version 4.0
     WIRES Comput. Molec. Sci., 2018 8(1)1-6
     doi.org/10.1002/wcms.1327
  3. Neese,F.; Wennmohs,F.; Becker,U.; Riplinger,C.
     The ORCA quantum chemistry program package
     J. Chem. Phys., 2020 152 Art. No. L224108
     doi.org/10.1063/5.0004608

List of optional additional citations

  1. Neese,F.
     Approximate second-order SCF convergence for spin unrestricted wavefunctions
     Chem. Phys. Lett., 2000 325(1-3)93-98
     doi.org/10.1016/s0009-2614(00)00662-x

Timings for individual modules:

Sum of individual times          ...       20.670 sec (=   0.345 min)
Startup calculation              ...        1.172 sec (=   0.020 min)   5.7 %
SCF iterations                   ...       10.968 sec (=   0.183 min)  53.1 %
Property calculations            ...        0.098 sec (=   0.002 min)   0.5 %
SCF Gradient evaluation          ...        8.433 sec (=   0.141 min)  40.8 %
                             ****ORCA TERMINATED NORMALLY****
TOTAL RUN TIME: 0 days 0 hours 0 minutes 21 seconds 722 msec
  ------------------------------------------------------------------------
          * successful ORCA run, taking over control again...

         :::::::::::::::::::::::::::::::::::::::::::::::::::::
         ::                  ORCA SUMMARY                   ::
         :::::::::::::::::::::::::::::::::::::::::::::::::::::
         :: total energy            -272.904765833776 Eh    ::
         :: gradient norm              0.028619026271 Eh/a0 ::
         :: HOMO-LUMO gap              0.000000000000 eV    ::
         :::::::::::::::::::::::::::::::::::::::::::::::::::::

      ----------------------------------------------------------- 
     |                       L-ANC optimizer                     |
      ----------------------------------------------------------- 
          low memory version by Sebastian Ehlert

          ...................................................
          :                      SETUP                      :
          :.................................................:
          :   energy convergence        0.5000000E-05 Eh    :
          :   grad. convergence         0.1000000E-02 Eh/a0 :
          :   optimization log               true           :
          :   writing optlog all                1     steps :
          :   Hessian reset                     8     steps :
          :   maximium step len.        1.0000000     a0    :
          :   LBFGS images                      8           :
          ...................................................
 * calculating model hessian...
Using Lindh-Hessian (1995)
 Shifting diagonal of input Hessian by   1.000000000000000E-002
 Lowest  eigenvalues of input Hessian
    0.000000    0.000000    0.000000    0.000000    0.000000    0.000000
    0.013602    0.013910    0.016764    0.020721    0.021414    0.022368
    0.024782    0.029959    0.042276    0.053695    0.055667    0.062980
 Highest eigenvalues
    1.176907    1.208666    1.229483    1.269114    1.287998    1.459097
 

........................................................................
.............................. CYCLE    1 ..............................
........................................................................
                         * ORCA takes the control...
  ------------------------------------------------------------------------

                                 *****************
                                 * O   R   C   A *
                                 *****************

                                            #,                                       
                                            ###                                      
                                            ####                                     
                                            #####                                    
                                            ######                                   
                                           ########,                                 
                                     ,,################,,,,,                         
                               ,,#################################,,                 
                          ,,##########################################,,             
                       ,#########################################, ''#####,          
                    ,#############################################,,   '####,        
                  ,##################################################,,,,####,       
                ,###########''''           ''''###############################       
              ,#####''   ,,,,##########,,,,          '''####'''          '####       
            ,##' ,,,,###########################,,,                        '##       
           ' ,,###''''                  '''############,,,                           
         ,,##''                                '''############,,,,        ,,,,,,###''
      ,#''                                            '''#######################'''  
     '                                                          ''''####''''         
             ,#######,   #######,   ,#######,      ##                                
            ,#'     '#,  ##    ##  ,#'     '#,    #''#        ,####,   ,####,        
            ##       ##  ##   ,#'  ##            #'  '#       #'       #'  '#        
            ##       ##  #######   ##           ,######,      #####,   #    #        
            '#,     ,#'  ##    ##  '#,     ,#' ,#      #,     #,   #   #,  ,#        
             '#######'   ##     ##  '#######'  #'      '#     '####' # '####'        



                #########################################################
                #                        -***-                          #
                #          Department of theory and spectroscopy        #
                #                                                       #
                #                      Frank Neese                      #
                #                                                       #
                #     Directorship, Architecture, Infrastructure        #
                #                    SHARK, DRIVERS                     #
                #        Core code/Algorithms in most modules           #
                #                                                       #
                #        Max Planck Institute fuer Kohlenforschung      #
                #                Kaiser Wilhelm Platz 1                 #
                #                 D-45470 Muelheim/Ruhr                 #
                #                      Germany                          #
                #                                                       #
                #                  All rights reserved                  #
                #                        -***-                          #
                #########################################################


                         Program Version 6.0.0  -   RELEASE  -


 With contributions from (in alphabetic order):
   Daniel Aravena         : Magnetic Suceptibility
   Michael Atanasov       : Ab Initio Ligand Field Theory (pilot matlab implementation)
   Alexander A. Auer      : GIAO ZORA, VPT2 properties, NMR spectrum
   Ute Becker             : All parallelization in ORCA, NUMFREQ, NUMCALC
   Giovanni Bistoni       : ED, misc. LED, open-shell LED, HFLD
   Martin Brehm           : Molecular dynamics
   Dmytro Bykov           : pre 5.0 version of the SCF Hessian
   Marcos Casanova-Páez   : Triplet and SCS-CIS(D). UHF-(DLPNO)-IP/EA/STEOM-CCSD. UHF-CVS-IP/STEOM-CCSD
   Vijay G. Chilkuri      : MRCI spin determinant printing, contributions to CSF-ICE
   Pauline Colinet        : FMM embedding
   Dipayan Datta          : RHF DLPNO-CCSD density
   Achintya Kumar Dutta   : EOM-CC, STEOM-CC
   Nicolas Foglia         : Exact transition moments, OPA infrastructure, MCD improvements
   Dmitry Ganyushin       : Spin-Orbit,Spin-Spin,Magnetic field MRCI
   Miquel Garcia          : C-PCM and meta-GGA Hessian, CCSD/C-PCM, Gaussian charge scheme
   Tiago L. C. Gouveia    : GS-ROHF, GS-ROCIS
   Yang Guo               : DLPNO-NEVPT2, F12-NEVPT2, CIM, IAO-localization
   Andreas Hansen         : Spin unrestricted coupled pair/coupled cluster methods
   Ingolf Harden          : AUTO-CI MPn and infrastructure 
   Benjamin Helmich-Paris : MC-RPA, TRAH-(SCF,CASSCF), AVAS, COSX integrals, SCF dyn. polar.
   Lee Huntington         : MR-EOM, pCC
   Robert Izsak           : Overlap fitted RIJCOSX, COSX-SCS-MP3, EOM
   Riya Kayal             : Wick's Theorem for AUTO-CI, AUTO-CI UHF-CCSDT
   Emily Kempfer          : AUTO-CI, RHF CISDT and CCSDT
   Christian Kollmar      : KDIIS, OOCD, Brueckner-CCSD(T), CCSD density, CASPT2, CASPT2-K, improved NEVPT2
   Axel Koslowski         : Symmetry handling
   Simone Kossmann        : Meta GGA functionals, TD-DFT gradient, OOMP2, (MP2 Hessian; deprecated post 5.0)
   Lucas Lang             : DCDCAS
   Marvin Lechner         : AUTO-CI (C++ implementation), FIC-MRCC
   Spencer Leger          : CASSCF response
   Dagmar Lenk            : GEPOL surface, SMD, ORCA-2-JSON
   Dimitrios Liakos       : Extrapolation schemes; Compound Job, initial MDCI parallelization
   Dimitrios Manganas     : Further ROCIS development; embedding schemes. LFT, Crystal Embedding
   Dimitrios Pantazis     : SARC Basis sets
   Anastasios Papadopoulos: AUTO-CI, single reference methods and gradients
   Taras Petrenko         : pre 6.0 DFT Hessian and TD-DFT gradient, (ASA, deprecated), ECA, 1-Electron XAS/XES, NRVS
   Peter Pinski           : DLPNO-MP2, DLPNO-MP2 Gradient
   Christoph Reimann      : Effective Core Potentials
   Marius Retegan         : Local ZFS, SOC
   Christoph Riplinger    : Optimizer, TS searches, QM/MM, DLPNO-CCSD(T), (RO)-DLPNO pert. Triples
   Michael Roemelt        : Original ROCIS implementation
   Masaaki Saitow         : Open-shell DLPNO-CCSD energy and density
   Barbara Sandhoefer     : DKH picture change effects
   Kantharuban Sivalingam : CASSCF convergence/infrastructure, NEVPT2 and variants, FIC-MRCI
   Bernardo de Souza      : ESD, SOC TD-DFT
   Georgi Stoychev        : AutoAux, RI-MP2 NMR, DLPNO-MP2 response, X2C
   Van Anh Tran           : RI-MP2 g-tensors
   Willem Van den Heuvel  : Paramagnetic NMR
   Zikuan Wang            : NOTCH, Electric field optimization 
   Frank Wennmohs         : Technical directorship and infrastructure
   Hang Xu                : AUTO-CI-Response properties 


 We gratefully acknowledge several colleagues who have allowed us to
 interface, adapt or use parts of their codes:
   Stefan Grimme, W. Hujo, H. Kruse, P. Pracht,  : VdW corrections, initial TS optimization,
                  C. Bannwarth, S. Ehlert,         DFT functionals, gCP, sTDA/sTD-DF
                  L. Wittmann, M. Mueller
   Ed Valeev, F. Pavosevic, A. Kumar             : LibInt (2-el integral package), F12 methods
   Garnet Chan, S. Sharma, J. Yang, R. Olivares  : DMRG
   Ulf Ekstrom                                   : XCFun DFT Library
   Mihaly Kallay                                 : mrcc  (arbitrary order and MRCC methods)
   Frank Weinhold                                : gennbo (NPA and NBO analysis)
   Simon Mueller                                 : openCOSMO-RS
   Christopher J. Cramer and Donald G. Truhlar   : smd solvation model
   Lars Goerigk                                  : TD-DFT with DH, B97 family of functionals
   V. Asgeirsson, H. Jonsson                     : NEB implementation
   FAccTs GmbH                                   : IRC, NEB, NEB-TS, DLPNO-Multilevel, CI-OPT
                                                   MM, QMMM, 2- and 3-layer-ONIOM, Crystal-QMMM,
                                                   LR-CPCM, SF, NACMEs, symmetry and pop. for TD-DFT,
                                                   nearIR, NL-DFT gradient (VV10), updates on ESD,
                                                   ML-optimized integration grids, MBIS, APM,
                                                   GOAT, DOCKER, SOLVATOR, interface openCOSMO-RS
   S Lehtola, MJT Oliveira, MAL Marques          : LibXC Library
   Liviu Ungur et al                             : ANISO software


 Your calculation uses the libint2 library for the computation of 2-el integrals
 For citations please refer to: http://libint.valeyev.net

 Your ORCA version has been built with support for libXC version: 6.2.2
 For citations please refer to: https://libxc.gitlab.io

 This ORCA versions uses:
   CBLAS   interface :  Fast vector & matrix operations
   LAPACKE interface :  Fast linear algebra routines
   SCALAPACK package :  Parallel linear algebra routines
   Shared memory     :  Shared parallel matrices
   BLAS/LAPACK       :  OpenBLAS 0.3.27  USE64BITINT DYNAMIC_ARCH NO_AFFINITY SkylakeX SINGLE_THREADED
        Core in use  :  SkylakeX
   Copyright (c) 2011-2014, The OpenBLAS Project




***************************************
The coordinates will be read from file: xtb_opt.xyz
***************************************


Your calculation utilizes the geometrical counterpoise correction gCP
Please cite in your paper:
H.Kruse, S. Grimme J.Chem.Phys., 136, (2012), 154101 
   

Your calculation utilizes the atom-pairwise dispersion correction
based on EEQ partial charges (D4)


Your calculation utilizes the SMD solvation module
Please cite in your paper:
A.V. Marenich, C.J. Cramer, D.G. Truhlar J. Phys. Chem. B, 113, (2009), 6378 

================================================================================

----- Orbital basis set information -----
Your calculation utilizes the basis: def2-mTZVPP
   Stefan Grimme, Andreas Hansen, Sebastian Ehlert, and Jan-Michael Mewes 
   J. Chem. Phys. 154, 064103 (2021). DOI: 10.1063/5.0040021

----- AuxJ basis set information -----
Your calculation utilizes the auxiliary basis: def2/J
   F. Weigend, Phys. Chem. Chem. Phys. 8, 1057 (2006).

================================================================================
                                        WARNINGS
                       Please study these warnings very carefully!
================================================================================

WARNING: Old DensityContainer found on disk!
         Will remove this file - 
         If you want to keep old densities, please start your calculation with a different basename. 

Using LibXC functional ID 497 : Re-regularized SCAN exchange by Furness et al
[ 1]  J. W. Furness, A. D. Kaplan, J. Ning, J. P. Perdew, and J. Sun.,  J. Phys. Chem. Lett. 11, 8208-8215 (2020)
[ 2]  J. W. Furness, A. D. Kaplan, J. Ning, J. P. Perdew, and J. Sun.,  J. Phys. Chem. Lett. 11, 9248-9248 (2020)
Using LibXC functional ID 498 : Re-regularized SCAN correlation by Furness et al
[ 1]  J. W. Furness, A. D. Kaplan, J. Ning, J. P. Perdew, and J. Sun.,  J. Phys. Chem. Lett. 11, 8208-8215 (2020)
[ 2]  J. W. Furness, A. D. Kaplan, J. Ning, J. P. Perdew, and J. Sun.,  J. Phys. Chem. Lett. 11, 9248-9248 (2020)
Using LibXC functional ID 497 : Re-regularized SCAN exchange by Furness et al
[ 1]  J. W. Furness, A. D. Kaplan, J. Ning, J. P. Perdew, and J. Sun.,  J. Phys. Chem. Lett. 11, 8208-8215 (2020)
[ 2]  J. W. Furness, A. D. Kaplan, J. Ning, J. P. Perdew, and J. Sun.,  J. Phys. Chem. Lett. 11, 9248-9248 (2020)
Using LibXC functional ID 498 : Re-regularized SCAN correlation by Furness et al
[ 1]  J. W. Furness, A. D. Kaplan, J. Ning, J. P. Perdew, and J. Sun.,  J. Phys. Chem. Lett. 11, 8208-8215 (2020)
[ 2]  J. W. Furness, A. D. Kaplan, J. Ning, J. P. Perdew, and J. Sun.,  J. Phys. Chem. Lett. 11, 9248-9248 (2020)

================================================================================
                                       INPUT FILE
================================================================================
NAME = xtb_opt.inp
|  1> ! r2scan-3c def2/J RI DEFGRID2 scfconv7 ENGRAD tightSCF miniprint
|  2> %cpcm
|  3>     smd true
|  4>     smdsolvent "water"
|  5> end
|  6> * xyzfile 0 1 xtb_opt.xyz
|  7> 
|  8>                          ****END OF INPUT****
================================================================================

                     *******************************
                     * Energy+Gradient Calculation *
                     *******************************

---------------------------------
CARTESIAN COORDINATES (ANGSTROEM)
---------------------------------
  C     -1.651708    1.208480    0.705320
  C     -1.387708    0.028514   -0.226965
  C     -0.010647   -0.616703   -0.049687
  C      1.158382    0.328858   -0.390336
  C      1.814729    0.971836    0.831275
  O      0.056641   -1.833548   -0.808433
  H     -0.985230    2.047730    0.493498
  H     -2.678901    1.562402    0.587776
  H     -1.513896    0.916547    1.750332
  H     -2.143848   -0.746756   -0.060114
  H     -1.478256    0.354101   -1.271354
  H      0.091685   -0.940062    0.994504
  H      1.913045   -0.260148   -0.921787
  H      0.812043    1.105660   -1.081913
  H      1.104242    1.570548    1.405204
  H      2.218891    0.202285    1.494803
  H      2.638755    1.623691    0.529630
  H     -0.079825   -1.612958   -1.739658

----------------------------
CARTESIAN COORDINATES (A.U.)
----------------------------
  NO LB      ZA    FRAG     MASS         X           Y           Z
   0 C     6.0000    0    12.011   -3.121276    2.283696    1.332862
   1 C     6.0000    0    12.011   -2.622387    0.053884   -0.428902
   2 C     6.0000    0    12.011   -0.020119   -1.165399   -0.093896
   3 C     6.0000    0    12.011    2.189024    0.621452   -0.737629
   4 C     6.0000    0    12.011    3.429341    1.836504    1.570882
   5 O     8.0000    0    15.999    0.107037   -3.464904   -1.527717
   6 H     1.0000    0     1.008   -1.861816    3.869649    0.932576
   7 H     1.0000    0     1.008   -5.062389    2.952512    1.110736
   8 H     1.0000    0     1.008   -2.860848    1.732023    3.307648
   9 H     1.0000    0     1.008   -4.051285   -1.411164   -0.113600
  10 H     1.0000    0     1.008   -2.793500    0.669154   -2.402512
  11 H     1.0000    0     1.008    0.173259   -1.776460    1.879341
  12 H     1.0000    0     1.008    3.615131   -0.491609   -1.741924
  13 H     1.0000    0     1.008    1.534538    2.089394   -2.044519
  14 H     1.0000    0     1.008    2.086715    2.967906    2.655452
  15 H     1.0000    0     1.008    4.193097    0.382263    2.824768
  16 H     1.0000    0     1.008    4.986524    3.068332    1.000856
  17 H     1.0000    0     1.008   -0.150846   -3.048050   -3.287478

------------------------------------------------------------------------------
                   ___                                                        
                  /   \      - P O W E R E D   B Y -                         
                 /     \                                                     
                 |  |  |   _    _      __       _____    __    __             
                 |  |  |  | |  | |    /  \     |  _  \  |  |  /  |          
                  \  \/   | |  | |   /    \    | | | |  |  | /  /          
                 / \  \   | |__| |  /  /\  \   | |_| |  |  |/  /          
                |  |  |   |  __  | /  /__\  \  |    /   |      \           
                |  |  |   | |  | | |   __   |  |    \   |  |\   \          
                \     /   | |  | | |  |  |  |  | |\  \  |  | \   \       
                 \___/    |_|  |_| |__|  |__|  |_| \__\ |__|  \__/        
                                                                              
                      - O R C A' S   B I G   F R I E N D -                    
                                      &                                       
                       - I N T E G R A L  F E E D E R -                       
                                                                              
 v1 FN, 2020, v2 2021, v3 2022-2024                                           
------------------------------------------------------------------------------


----------------------
SHARK INTEGRAL PACKAGE
----------------------

Number of atoms                             ...     18
Number of basis functions                   ...    179
Number of shells                            ...     91
Maximum angular momentum                    ...      2
Integral batch strategy                     ... SHARK/LIBINT Hybrid
RI-J (if used) integral strategy            ... SPLIT-RIJ (Revised 2003 algorithm where possible)
Printlevel                                  ...      1
Contraction scheme used                     ... SEGMENTED contraction
Prescreening option                         ... SCHWARTZ
   Thresh                                   ... 3.000e-11
   Tcut                                     ... 1.000e-12
   Tpresel                                  ... 1.000e-12 
Coulomb Range Separation                    ... NOT USED
Exchange Range Separation                   ... NOT USED
Multipole approximations                    ... NOT USED
Finite Nucleus Model                        ... NOT USED
CABS basis                                  ... NOT available
Auxiliary Coulomb fitting basis             ... AVAILABLE
   # of basis functions in Aux-J            ...    426
   # of shells in Aux-J                     ...    150
   Maximum angular momentum in Aux-J        ...      4
Auxiliary J/K fitting basis                 ... NOT available
Auxiliary Correlation fitting basis         ... NOT available
Auxiliary 'external' fitting basis          ... NOT available

Checking pre-screening integrals            ... done (  0.0 sec) Dimension = 91
Check shell pair data                       ... done (  0.0 sec)
Shell pair information
Shell pair cut-off parameter TPreSel        ...   1.0e-12
Total number of shell pairs                 ...      4186
Shell pairs after pre-screening             ...      3955
Total number of primitive shell pairs       ...     14533
Primitive shell pairs kept                  ...     10202
          la=0 lb=0:   1388 shell pairs
          la=1 lb=0:   1527 shell pairs
          la=1 lb=1:    442 shell pairs
          la=2 lb=0:    364 shell pairs
          la=2 lb=1:    206 shell pairs
          la=2 lb=2:     28 shell pairs

Calculating one electron integrals          ... done (  0.0 sec)
Calculating RI/J V-Matrix + Cholesky decomp.... done (  0.1 sec)
Calculating Nuclear repulsion               ... done (  0.0 sec) ENN=    259.336354448754 Eh

Diagonalization of the overlap matrix:
Smallest eigenvalue                        ... 2.262e-04
Time for diagonalization                   ...    0.003 sec
Threshold for overlap eigenvalues          ... 1.000e-07
Number of eigenvalues below threshold      ... 0
Time for construction of square roots      ...    0.014 sec
Total time needed                          ...    0.031 sec

-------------------
DFT GRID GENERATION
-------------------

General Integration Accuracy     IntAcc      ... 4.388
Radial Grid Type                 RadialGrid  ... OptM3 with GC (2021)
Angular Grid (max. ang.)         AngularGrid ... 4 (Lebedev-302)
Angular grid pruning method      GridPruning ... 4 (adaptive)
Weight generation scheme         WeightScheme... mBecke (2022)
Basis function cutoff            BFCut       ... 1.0000e-11
Integration weight cutoff        WCut        ... 1.0000e-14
Partially contracted basis set               ... off
Rotationally invariant grid construction     ... off
Angular grids for H and He will be reduced by one unit
Diffuse basis detected: some atoms will have their outermost
                        angular grid increased by 1.

Total number of grid points                  ...    74870
Total number of batches                      ...     1178
Average number of points per batch           ...       63
Average number of grid points per atom       ...     4159
Initializing property integral containers    ... done (  0.0 sec)

SHARK setup successfully completed in   1.1 seconds

Maximum memory used throughout the entire STARTUP-calculation: 32.5 MB
Occupation numbers will be reassigned to an Aufbau configuration
             **** ENERGY FILE WAS UPDATED (xtb_opt.en.tmp) ****
Finished Guess after   0.4 sec
Maximum memory used throughout the entire GUESS-calculation: 12.3 MB
--------------------
CPCM SOLVATION MODEL
--------------------
CPCM parameters:
  Epsilon                                         ...      78.3550
  Refrac                                          ...       1.3328
  Rsolv                                           ...       1.3000
  Surface type                                    ... GAUSSIAN VDW
  Discretization scheme                           ... Constant charge density
    Threshold for H atoms                         ...       5.0000 (charges/Ang^2)
    Threshold for non-H atoms                     ...       5.0000 (charges/Ang^2)
  Epsilon function type                           ...         CPCM
Solvent:                                          ... WATER
SMD-CDS solvent descriptors:
  Soln                                            ...       1.3328
  Soln25                                          ...       1.3323
  Sola                                            ...       0.0000
  Solb                                            ...       0.0000
  Solg                                            ...       0.0000
  Solc                                            ...       0.0000
  Solh                                            ...       0.0000
Radii:
  Scheme                                          ... Element-dependent radii
  Radius for C  used is    3.4960 Bohr (=   1.8500 Ang.)
  Radius for O  used is    2.8724 Bohr (=   1.5200 Ang.)
  Radius for H  used is    2.2677 Bohr (=   1.2000 Ang.)
Calculating surface                               ...        done! (  0.0s)
Cavity surface points                             ...         1322
Cavity Volume                                     ...     737.1819
Cavity Surface-area                               ...     495.4818
Calculating surface distance matrix               ...        done! (  0.0s)
Performing Cholesky decomposition & store         ...        done! (  0.1s)
Overall time for CPCM initialization              ...                 0.1s

----------------------------------------D-I-I-S--------------------------------------------
Iteration    Energy (Eh)           Delta-E    RMSDP     MaxDP     DIISErr   Damp  Time(sec)
-------------------------------------------------------------------------------------------
               ***  Starting incremental Fock matrix formation  ***
    1    -272.9157721920274753     0.00e+00  7.08e-05  1.15e-03  4.52e-03  0.700   2.6
    2    -272.9158476564610964    -7.55e-05  6.43e-05  1.10e-03  3.40e-03  0.700   2.3
                               ***Turning on AO-DIIS***
                              *** Initializing SOSCF ***
---------------------------------------S-O-S-C-F--------------------------------------
Iteration    Energy (Eh)           Delta-E    RMSDP     MaxDP     MaxGrad    Time(sec)
--------------------------------------------------------------------------------------
    3    -272.9159013370750699    -5.37e-05  1.64e-04  3.07e-03  2.44e-03     2.4
               *** Restarting incremental Fock matrix formation ***
    4    -272.9160241843742369    -1.23e-04  2.76e-05  5.10e-04  1.50e-04     2.5
    5    -272.9160233714997048     8.13e-07  1.44e-05  2.33e-04  2.19e-04     2.3
    6    -272.9160254284229268    -2.06e-06  3.80e-06  8.46e-05  2.76e-05     2.2
    7    -272.9160253985612599     2.99e-08  2.31e-06  5.38e-05  4.53e-05     2.1
                 **** Energy Check signals convergence ****

               *****************************************************
               *                     SUCCESS                       *
               *           SCF CONVERGED AFTER   7 CYCLES          *
               *****************************************************


SMD CDS free energy correction energy :                 3.25377     Kcal/mol
Total Energy after SMD CDS correction =              -272.910840183 Eh
             **** ENERGY FILE WAS UPDATED (xtb_opt.en.tmp) ****

----------------
TOTAL SCF ENERGY
----------------

Total Energy       :       -272.91084018267719 Eh           -7426.28151 eV

Components:
Nuclear Repulsion  :        259.33635444875438 Eh            7056.90097 eV
Electronic Energy  :       -532.23841202544202 Eh          -14482.94349 eV
One Electron Energy:       -882.50399492512395 Eh          -24014.15456 eV
Two Electron Energy:        350.26558289968193 Eh            9531.21107 eV
CPCM Dielectric    :         -0.01396782187364 Eh              -0.38008 eV
SMD CDS (Gcds)     :          0.00518521588406 Eh               0.14110 eV

Virial components:
Potential Energy   :       -544.48612988936884 Eh          -14816.22084 eV
Kinetic Energy     :        271.57528970669159 Eh            7389.93933 eV
Virial Ratio       :          2.00491779085434

DFT components:
N(Alpha)           :       25.000004817785 electrons
N(Beta)            :       25.000004817785 electrons
N(Total)           :       50.000009635571 electrons
E(X)               :      -38.556642519654 Eh       
E(C)               :       -1.561183952117 Eh       
E(XC)              :      -40.117826471772 Eh       

CPCM Solvation Model Properties:
Surface-charge          :         -0.04664331988711
Corrected charge        :         -0.00000000000000
Outlying charge corr.   :          0.00018032950473 Eh               0.00491 eV
Free-energy (cav+disp)  :          0.00518521588406 Eh               0.14110 eV

---------------
SCF CONVERGENCE
---------------

  Last Energy change         ...   -2.9862e-08  Tolerance :   1.0000e-07
  Last MAX-Density change    ...    5.3834e-05  Tolerance :   1.0000e-07
  Last RMS-Density change    ...    2.3080e-06  Tolerance :   5.0000e-09
  Last DIIS Error            ...    2.4401e-03  Tolerance :   1.0000e-07
  Last Orbital Gradient      ...    4.5311e-05  Tolerance :   1.0000e-04
  Last Orbital Rotation      ...    1.5661e-05  Tolerance :   1.0000e-04


----------------
ORBITAL ENERGIES
----------------

  NO   OCC          E(Eh)            E(eV) 
   0   2.0000     -18.946338      -515.5561 
   1   2.0000     -10.073186      -274.1053 
   2   2.0000     -10.019139      -272.6346 
   3   2.0000     -10.018177      -272.6084 
   4   2.0000     -10.012867      -272.4640 
   5   2.0000     -10.012092      -272.4429 
   6   2.0000      -0.979608       -26.6565 
   7   2.0000      -0.753389       -20.5008 
   8   2.0000      -0.708831       -19.2883 
   9   2.0000      -0.632641       -17.2150 
  10   2.0000      -0.573440       -15.6041 
  11   2.0000      -0.545374       -14.8404 
  12   2.0000      -0.453667       -12.3449 
  13   2.0000      -0.424286       -11.5454 
  14   2.0000      -0.408916       -11.1272 
  15   2.0000      -0.392229       -10.6731 
  16   2.0000      -0.368444       -10.0259 
  17   2.0000      -0.351635        -9.5685 
  18   2.0000      -0.345461        -9.4005 
  19   2.0000      -0.321326        -8.7437 
  20   2.0000      -0.315136        -8.5753 
  21   2.0000      -0.309043        -8.4095 
  22   2.0000      -0.283414        -7.7121 
  23   2.0000      -0.275902        -7.5077 
  24   2.0000      -0.235157        -6.3989 
  25   0.0000       0.075237         2.0473 
  26   0.0000       0.097095         2.6421 
  27   0.0000       0.118531         3.2254 
  28   0.0000       0.126212         3.4344 
  29   0.0000       0.132707         3.6111 
  30   0.0000       0.148392         4.0379 
  31   0.0000       0.151665         4.1270 
  32   0.0000       0.165146         4.4938 
  33   0.0000       0.171014         4.6535 
  34   0.0000       0.174600         4.7511 
  35   0.0000       0.190298         5.1783 
*Only the first 10 virtual orbitals were printed.
Total SCF time: 0 days 0 hours 0 min 16 sec 
Finished LeanSCF after  17.3 sec

Maximum memory used throughout the entire LEANSCF-calculation: 23.9 MB


-------------------------------------------------------------------------------
                          DFT DISPERSION CORRECTION                            
                                                                               
                                DFTD4 V3.4.0                                   
-------------------------------------------------------------------------------
-------------------------   ----------------
Dispersion correction           -0.004367297
-------------------------   ----------------

------------------   -----------------
gCP correction             0.009536961
------------------   -----------------

-------------------------   --------------------
FINAL SINGLE POINT ENERGY      -272.905670518708
-------------------------   --------------------

------------------------------------------------------------------------------
                         ORCA SCF GRADIENT CALCULATION
------------------------------------------------------------------------------

Nuc. rep. gradient        (SHARK) ... done (  0.0 sec)
HCore & Overlap gradient  (SHARK) ... done (  0.2 sec)
Split-RIJ-J gradient      (SHARK) ... done (  1.1 sec)
XC gradient                       ... done (  5.4 sec)
CPCM gradient                     ... done (  0.7 sec)
SMD gradient                      ... done (  0.0 sec)
Dispersion correction             ... done (  0.0 sec)

-------------------
DISPERSION GRADIENT
-------------------

   1   C   :   -0.000076135    0.000046245    0.000029416
   2   C   :   -0.000060967   -0.000009892   -0.000016092
   3   C   :   -0.000001030   -0.000030029   -0.000008528
   4   C   :    0.000051476    0.000002941   -0.000022320
   5   C   :    0.000084945    0.000034171    0.000035547
   6   O   :   -0.000002991   -0.000075152   -0.000055319
[...]
E(X)               :      -38.547578556608 Eh       
E(C)               :       -1.560942472306 Eh       
E(XC)              :      -40.108521028914 Eh       

CPCM Solvation Model Properties:
Surface-charge          :         -0.04666612029945
Corrected charge        :          0.00000000000000
Outlying charge corr.   :          0.00018070294811 Eh               0.00492 eV
Free-energy (cav+disp)  :          0.00511848567552 Eh               0.13928 eV

---------------
SCF CONVERGENCE
---------------

  Last Energy change         ...    1.5549e-09  Tolerance :   1.0000e-07
  Last MAX-Density change    ...    2.3947e-05  Tolerance :   1.0000e-07
  Last RMS-Density change    ...    9.3177e-07  Tolerance :   5.0000e-09
  Last DIIS Error            ...    2.8245e-05  Tolerance :   1.0000e-07
  Last Orbital Gradient      ...    6.5818e-06  Tolerance :   1.0000e-04
  Last Orbital Rotation      ...    7.9500e-06  Tolerance :   1.0000e-04


----------------
ORBITAL ENERGIES
----------------

  NO   OCC          E(Eh)            E(eV) 
   0   2.0000     -18.946354      -515.5565 
   1   2.0000     -10.074213      -274.1333 
   2   2.0000     -10.020055      -272.6596 
   3   2.0000     -10.019438      -272.6428 
   4   2.0000     -10.013434      -272.4794 
   5   2.0000     -10.012855      -272.4636 
   6   2.0000      -0.976140       -26.5621 
   7   2.0000      -0.754106       -20.5203 
   8   2.0000      -0.708582       -19.2815 
   9   2.0000      -0.633376       -17.2350 
  10   2.0000      -0.574580       -15.6351 
  11   2.0000      -0.542691       -14.7674 
  12   2.0000      -0.452899       -12.3240 
  13   2.0000      -0.425785       -11.5862 
  14   2.0000      -0.408189       -11.1074 
  15   2.0000      -0.389309       -10.5936 
  16   2.0000      -0.366902        -9.9839 
  17   2.0000      -0.353040        -9.6067 
  18   2.0000      -0.346456        -9.4275 
  19   2.0000      -0.322292        -8.7700 
  20   2.0000      -0.316442        -8.6108 
  21   2.0000      -0.306730        -8.3465 
  22   2.0000      -0.283841        -7.7237 
  23   2.0000      -0.277018        -7.5380 
  24   2.0000      -0.236288        -6.4297 
  25   0.0000       0.074377         2.0239 
  26   0.0000       0.095598         2.6014 
  27   0.0000       0.118524         3.2252 
  28   0.0000       0.127298         3.4640 
  29   0.0000       0.134198         3.6517 
  30   0.0000       0.147630         4.0172 
  31   0.0000       0.151287         4.1167 
  32   0.0000       0.163396         4.4462 
  33   0.0000       0.171357         4.6628 
  34   0.0000       0.175432         4.7737 
  35   0.0000       0.188022         5.1163 
*Only the first 10 virtual orbitals were printed.
Total SCF time: 0 days 0 hours 0 min 5 sec 
Finished LeanSCF after   5.8 sec

Maximum memory used throughout the entire LEANSCF-calculation: 23.8 MB


-------------------------------------------------------------------------------
                          DFT DISPERSION CORRECTION                            
                                                                               
                                DFTD4 V3.4.0                                   
-------------------------------------------------------------------------------
-------------------------   ----------------
Dispersion correction           -0.004380841
-------------------------   ----------------

------------------   -----------------
gCP correction             0.009550476
------------------   -----------------

-------------------------   --------------------
FINAL SINGLE POINT ENERGY      -272.906130261296
-------------------------   --------------------

------------------------------------------------------------------------------
                         ORCA SCF GRADIENT CALCULATION
------------------------------------------------------------------------------

Nuc. rep. gradient        (SHARK) ... done (  0.0 sec)
HCore & Overlap gradient  (SHARK) ... done (  0.2 sec)
Split-RIJ-J gradient      (SHARK) ... done (  1.1 sec)
XC gradient                       ... done (  5.5 sec)
CPCM gradient                     ... done (  0.7 sec)
SMD gradient                      ... done (  0.0 sec)
Dispersion correction             ... done (  0.0 sec)

-------------------
DISPERSION GRADIENT
-------------------

   1   C   :   -0.000074619    0.000048071    0.000028918
   2   C   :   -0.000061342   -0.000010956   -0.000014631
   3   C   :   -0.000000594   -0.000032210   -0.000009412
   4   C   :    0.000051643    0.000002156   -0.000021920
   5   C   :    0.000083094    0.000034568    0.000036836
   6   O   :   -0.000002762   -0.000070872   -0.000057484
   7   H   :   -0.000030216    0.000027092    0.000007321
   8   H   :   -0.000036358    0.000019078    0.000008434
   9   H   :   -0.000035989    0.000015655    0.000022169
  10   H   :   -0.000030123   -0.000012214   -0.000000274
  11   H   :   -0.000027359   -0.000002667   -0.000014125
  12   H   :    0.000002000   -0.000025855   -0.000001422
  13   H   :    0.000029220   -0.000007627   -0.000010603
  14   H   :    0.000022436    0.000008883   -0.000015593
  15   H   :    0.000031176    0.000019258    0.000018899
  16   H   :    0.000039759    0.000005897    0.000019805
  17   H   :    0.000037730    0.000017488    0.000008118
  18   H   :    0.000002305   -0.000035744   -0.000005037

Difference to translation invariance:
           :    0.0000000000    0.0000000000    0.0000000000

Difference to rotation invariance:
           :   -0.0000000000    0.0000000000   -0.0000000000

Norm of the Dispersion gradient    ...    0.0002274178
RMS gradient                       ...    0.0000309476
MAX gradient                       ...    0.0000830942
gCP correction                   ... done

------------------
CARTESIAN GRADIENT
------------------

   1   C   :    0.000080761    0.000000177   -0.000007044
   2   C   :   -0.000157883   -0.000057007   -0.000066182
   3   C   :    0.000100783   -0.000391486   -0.000161365
   4   C   :   -0.000051233   -0.000095610   -0.000070046
   5   C   :    0.000056934    0.000050660    0.000074305
   6   O   :   -0.000065393    0.000406567    0.000147010
   7   H   :    0.000014680   -0.000052664    0.000011375
   8   H   :   -0.000054099    0.000063213   -0.000062698
   9   H   :   -0.000039396    0.000027818   -0.000024805
  10   H   :    0.000098726    0.000095725    0.000016087
  11   H   :   -0.000028283   -0.000048444    0.000123190
  12   H   :   -0.000005172    0.000045910   -0.000027701
  13   H   :   -0.000000695    0.000036228   -0.000030584
  14   H   :   -0.000016616    0.000057746   -0.000005260
  15   H   :   -0.000014194   -0.000033957    0.000041748
  16   H   :    0.000045793   -0.000048433    0.000007470
  17   H   :   -0.000011033    0.000023153    0.000014648
  18   H   :    0.000046319   -0.000079597    0.000019853

Difference to translation invariance:
           :    0.0000000000    0.0000000000   -0.0000000000

Difference to rotation invariance:
           :    0.0000560672   -0.0000597490   -0.0001232415

Norm of the Cartesian gradient     ...    0.0007268490
RMS gradient                       ...    0.0000989116
MAX gradient                       ...    0.0004065668

-------
TIMINGS
-------

Total SCF gradient time     ....        8.170 sec

Densities                   ....       0.000 sec  (  0.0%)
One electron gradient       ....       0.228 sec  (  2.8%)
RI-J Coulomb gradient       ....       1.143 sec  ( 14.0%)
XC gradient                 ....       5.514 sec  ( 67.5%)
CPCM gradient               ....       0.661 sec  (  8.1%)
   A-Matrix (El+Nuc)        ....       0.059 sec  (  0.7%)
   Potential                ....       0.602 sec  (  7.4%)
SMD gradient                ....       0.014 sec  (  0.2%)

Maximum memory used throughout the entire SCFGRAD-calculation: 32.4 MB

------------------------------------------------------------------------------
                              ORCA PROPERTY CALCULATIONS
------------------------------------------------------------------------------

GBWName                                 ... xtb_opt.gbw
Number of atoms                         ...     18
Number of basis functions               ...    179
Max core memory                         ...   1024 MB

Electric properties:
Dipole moment                           ... YES
Quadrupole moment                       ...  NO
Static polarizability (Dipole/Dipole)   ...  NO
Static polarizability (Dipole/Quad.)    ...  NO
Static polarizability (Quad./Quad.)     ...  NO
Static polarizability (Velocity)        ...  NO

Atomic electric properties:
Dipole moment                           ...  NO
Quadrupole moment                       ...  NO
Static polarizability                   ...  NO

Choice of electric origin               ... Center of mass
Position of electric origin             ...    -0.008627    -0.011976    -0.025597

General magnetic properties:
Magnetizability                         ...  NO

EPR properties:
g-Tensor (aka g-matrix)                 ...  NO
Zero-Field splitting spin-orbit         ...  NO
Zero-field splitting spin-spin          ...  NO
Hyperfine couplings                     ...  NO (   0 nuclei)
Quadrupole couplings                    ...  NO (   0 nuclei)
Contact density                         ...  NO (   0 nuclei)

NMR properties:
Chemical shifts                         ...  NO (   0 nuclei)
Spin-rotation constants                 ...  NO (   0 nuclei)
Spin-spin couplings                     ...  NO (   0 nuclei,    0 pairs)

Choice of magnetic origin               ... GIAO
Position of magnetic origin             ...     0.000000     0.000000     0.000000

Properties with geometric perturbations:
SCF Hessian                             ...  NO
IR spectrum                             ...  NO
VCD spectrum                            ...  NO
X-ray spectroscopy properties:
SCF XES/XAS/RIXS spectra                ...  NO


-------------
DIPOLE MOMENT
-------------

Method             : SCF
Type of density    : Electron Density
Multiplicity       :   1
Irrep              :   0
Energy             :  -272.9112998968217880 Eh
Relativity type    : 
Basis              : AO
                                X                 Y                 Z
Electronic contribution:     -0.086334539      -4.581857425      -2.459831071
Nuclear contribution   :     -0.024833418       5.526809533       2.230843398
                        -----------------------------------------
Total Dipole Moment    :     -0.111167957       0.944952108      -0.228987673
                        -----------------------------------------
Magnitude (a.u.)       :      0.978635864
Magnitude (Debye)      :      2.487494683



--------------------
Rotational spectrum 
--------------------
 
Rotational constants in cm-1:             0.110968             0.106514             0.060213 
Rotational constants in MHz :          3326.750088          3193.212201          1805.132714 

Dipole components along the rotational axes: 
x,y,z [a.u.] :     0.128823     0.703715    -0.667771 
x,y,z [Debye]:     0.327443     1.788700    -1.697340 

 

Dipole moment calculation done in   0.0 sec 

Maximum memory used throughout the entire PROP-calculation: 10.7 MB

--------------------------------
SUGGESTED CITATIONS FOR THIS RUN
--------------------------------

Below you find a list of papers that are relevant to this ORCA run
We neither can nor want to force you to cite these papers, but we appreciate if you do
You receive ORCA, which is the product of decades of hard work by many enthusiastic individuals, for free
The only thing we kindly ask in return is that you cite our papers,
We deeply appreciate it, if you show your appreciation for ORCA by not just citing the generic ORCA reference.

Please note that relegating all ORCA citations to the supporting information does *not* help us.
SI sections are not indexed - citations you put there will not count into any citation statistics
But we need these citations in order to attract the funding resources that allow us to do what we are doing

Therefore, if you are a happy ORCA user, please consider citing a few of the papers listed below in the main body of your paper

In addition to the list printed below, the program has created the file xtb_opt.bibtex that contains the list in bibtex format
You can import this file easily into all common literature databanks and citation aid programs


List of essential papers. We consider these as the minimum necessary citations

  1. Neese,F.
     Software update: the ORCA program system, version 5.0
     WIRES Comput. Molec. Sci., 2022 12(1)e1606
     doi.org/10.1002/wcms.1606
  2. Grimme,S.; Hansen,A.; Ehlert,S.; Mewes,J.
     r2SCAN-3c: A 'Swiss army knife' composite electronic-structure method
     J. Chem. Phys., 2021 154 064103
     doi.org/10.1063/5.0040021

List of papers to cite with high priority. The work reported in these papers was absolutely
necessary for this run to complete.
Our perspective: the developers of density functionals and basis sets usually get cited in chemistry papers
Good! But without the algorithms to do something with them, the functionals or basis sets would not do anything.
Hence, in our opinion, the algorithm design and method developments papers are equally worthy of getting cited

  1. Neese,F.
     An improvement of the resolution of the identity approximation for the formation of the Coulomb matrix
     J. Comp. Chem., 2003 24(14)1740-1747
     doi.org/10.1002/jcc.10318
  2. Garcia-Rates,M.; Neese,F.
     Effect of the Solute Cavity on the Solvation Energy and its Derivatives within the Framework of the Gaussian Charge Scheme
     J. Comput. Chem., 2020 41 922-939
     doi.org/10.1002/jcc.26139
  3. Neese,F.
     The SHARK Integral Generation and Digestion System
     J. Comp. Chem., 2022  1-16
     doi.org/10.1002/jcc.26942
  4. Lehtola,S.; Steigemann,C.; Oliveira,M.; Marques,M.
     Recent developments in Libxc - A comprehensive library of functionals for density functional theory
     Software X, 2018 7 
     doi.org/10.1016/j.softx.2017.11.002
  5. Caldeweyher,E.; Bannwarth,C.; Grimme,S.
     Extension of the D3 dispersion coefficient model
     J. Chem. Phys., 2017 147 034112-XXXX
     doi.org/10.1063/1.4993215
  6. Caldeweyher,E.; Ehlert,S.; Hansen,A.; Neugebauer,H.; Spicher,S.; Bannwarth,C.; Grimme,S.
     A generally applicable atomic-charge dependent London dispersion correction
     J. Chem. Phys., 2019 150 154122-XXXX
     doi.org/10.1063/1.5090222
  7. Caldeweyher,E.; Mewes,J.; Ehlert,S.; Grimme,S.
     Extension and evaluation of the D4 London-dispersion model for periodic systems
     Phys. Chem. Chem. Phys., 2020 22(16)8499-8512
     doi.org/10.1039/D0CP00502A

List of suggested additional citations. These are papers that are important in the 'surrounding' of 
of this run, or papers that preceded the highly important papers. If you like your results we are grateful for a citation.

  1. Neese,F.
     The ORCA program system
     WIRES Comput. Molec. Sci., 2012 2(1)73-78
     doi.org/10.1002/wcms.81
  2. Neese,F.
     Software update: the ORCA program system, version 4.0
     WIRES Comput. Molec. Sci., 2018 8(1)1-6
     doi.org/10.1002/wcms.1327
  3. Neese,F.; Wennmohs,F.; Becker,U.; Riplinger,C.
     The ORCA quantum chemistry program package
     J. Chem. Phys., 2020 152 Art. No. L224108
     doi.org/10.1063/5.0004608

List of optional additional citations

  1. Neese,F.
     Approximate second-order SCF convergence for spin unrestricted wavefunctions
     Chem. Phys. Lett., 2000 325(1-3)93-98
     doi.org/10.1016/s0009-2614(00)00662-x

Timings for individual modules:

Sum of individual times          ...       15.631 sec (=   0.261 min)
Startup calculation              ...        1.090 sec (=   0.018 min)   7.0 %
SCF iterations                   ...        6.161 sec (=   0.103 min)  39.4 %
Property calculations            ...        0.107 sec (=   0.002 min)   0.7 %
SCF Gradient evaluation          ...        8.273 sec (=   0.138 min)  52.9 %
                             ****ORCA TERMINATED NORMALLY****
TOTAL RUN TIME: 0 days 0 hours 0 minutes 16 seconds 552 msec
  ------------------------------------------------------------------------
          * successful ORCA run, taking over control again...

         :::::::::::::::::::::::::::::::::::::::::::::::::::::
         ::                  ORCA SUMMARY                   ::
         :::::::::::::::::::::::::::::::::::::::::::::::::::::
         :: total energy            -272.906130261296 Eh    ::
         :: gradient norm              0.000726848963 Eh/a0 ::
         :: HOMO-LUMO gap              0.000000000000 eV    ::
         :::::::::::::::::::::::::::::::::::::::::::::::::::::

           -------------------------------------------------
          |                Property Printout                |
           -------------------------------------------------
           -------------------------------------------------
          |                Geometry Summary                 |
           -------------------------------------------------

      molecular mass/u    :       88.1483734
   center of mass at/Å    :       -0.0045647      -0.0063556      -0.0135538
  moments of inertia/u·Å² :        0.1519120E+03   0.1582621E+03   0.2799629E+03
rotational constants/cm⁻¹ :        0.1109697E+00   0.1065172E+00   0.6021382E-01

 * 16 selected distances

     #   Z          #   Z                                           value/Å
     1   6 C        2   6 C                                       1.5263981
     2   6 C        3   6 C                                       1.5281023
     3   6 C        4   6 C                                       1.5369550 (max)
     4   6 C        5   6 C                                       1.5293354
     1   6 C        7   1 H                                       1.0939868
     1   6 C        8   1 H                                       1.0945866
     1   6 C        9   1 H                                       1.0955164
     2   6 C       10   1 H                                       1.0964355
     2   6 C       11   1 H                                       1.0992922
     3   6 C       12   1 H                                       1.0979714
     4   6 C       13   1 H                                       1.0960007
     4   6 C       14   1 H                                       1.0982426
     5   6 C       15   1 H                                       1.0933224
     5   6 C       16   1 H                                       1.0955695
     5   6 C       17   1 H                                       1.0947361
     6   8 O       18   1 H                                       0.9671145 (min)

 * 3 distinct bonds (by element types)

   Z      Z             #   av. dist./Å        max./Å        min./Å
   1 H    6 C          11     1.0959691     1.0992922     1.0933224
   6 C    6 C           4     1.5301977     1.5369550     1.5263981
   1 H    8 O           1     0.9671145     0.9671145     0.9671145


optimized geometry written to: xtbopt.coord


           -------------------------------------------------
          | TOTAL ENERGY             -272.906130261296 Eh   |
          | GRADIENT NORM               0.000726848963 Eh/α |
           -------------------------------------------------

------------------------------------------------------------------------
 * finished run on 2025/04/11 at 12:04:23.638     
------------------------------------------------------------------------
 total:
 * wall-time:     0 d,  0 h,  3 min, 57.140 sec
 *  cpu-time:     0 d,  0 h,  0 min,  0.711 sec
 * ratio c/w:     0.003 speedup
 SCF:
 * wall-time:     0 d,  0 h,  0 min, 21.987 sec
 *  cpu-time:     0 d,  0 h,  0 min,  0.183 sec
 * ratio c/w:     0.008 speedup
 ANC optimizer:
 * wall-time:     0 d,  0 h,  3 min, 35.037 sec
 *  cpu-time:     0 d,  0 h,  0 min,  0.504 sec
 * ratio c/w:     0.002 speedup

