      -----------------------------------------------------------      
     |                   =====================                   |     
     |                           x T B                           |     
     |                   =====================                   |     
     |                         S. Grimme                         |     
     |          Mulliken Center for Theoretical Chemistry        |     
     |                    University of Bonn                     |     
      -----------------------------------------------------------      

   * xtb version 6.7.1 (edcfbbe) compiled by 'albert@albert-system' on 2024-07-22

   xtb is free software: you can redistribute it and/or modify it under
   the terms of the GNU Lesser General Public License as published by
   the Free Software Foundation, either version 3 of the License, or
   (at your option) any later version.
   
   xtb is distributed in the hope that it will be useful,
   but WITHOUT ANY WARRANTY; without even the implied warranty of
   MERCHANTABILITY or FITNESS FOR A PARTICULAR PURPOSE.  See the
   GNU Lesser General Public License for more details.
   
   Cite this work as:
   * C. Bannwarth, E. Caldeweyher, S. Ehlert, A. Hansen, P. Pracht,
     J. Seibert, S. Spicher, S. Grimme, WIREs Comput. Mol. Sci., 2020, 11,
     e01493. DOI: 10.1002/wcms.1493
   
   for GFN2-xTB:
   * C. Bannwarth, S. Ehlert and S. Grimme., J. Chem. Theory Comput., 2019,
     15, 1652-1671. DOI: 10.1021/acs.jctc.8b01176
   for GFN1-xTB:
   * S. Grimme, C. Bannwarth, P. Shushkov, J. Chem. Theory Comput., 2017,
     13, 1989-2009. DOI: 10.1021/acs.jctc.7b00118
   for GFN0-xTB:
   * P. Pracht, E. Caldeweyher, S. Ehlert, S. Grimme, ChemRxiv, 2019, preprint.
     DOI: 10.26434/chemrxiv.8326202.v1
   for GFN-FF:
   * S. Spicher and S. Grimme, Angew. Chem. Int. Ed., 2020, 59, 15665-15673.
     DOI: 10.1002/anie.202004239
   
   for ALPB and GBSA implicit solvation:
   * S. Ehlert, M. Stahn, S. Spicher, S. Grimme, J. Chem. Theory Comput.,
     2021, 17, 4250-4261. DOI: 10.1021/acs.jctc.1c00471
   
   for ddCOSMO and CPCM-X implicit solvation:
   * M. Stahn, S. Ehlert, S. Grimme, J. Phys. Chem. A,
     2023, XX, XXXX-XXXX. DOI: 10.1021/acs.jpca.3c04382
   
   for DFT-D4:
   * E. Caldeweyher, C. Bannwarth and S. Grimme, J. Chem. Phys., 2017,
     147, 034112. DOI: 10.1063/1.4993215
   * E. Caldeweyher, S. Ehlert, A. Hansen, H. Neugebauer, S. Spicher,
     C. Bannwarth and S. Grimme, J. Chem. Phys., 2019, 150, 154122.
     DOI: 10.1063/1.5090222
   * E. Caldeweyher, J.-M. Mewes, S. Ehlert and S. Grimme, Phys. Chem. Chem. Phys.
     2020, 22, 8499-8512. DOI: 10.1039/D0CP00502A
   
   for sTDA-xTB:
   * S. Grimme and C. Bannwarth, J. Chem. Phys., 2016, 145, 054103.
     DOI: 10.1063/1.4959605
   
   in the mass-spec context:
   * V. Asgeirsson, C. Bauer and S. Grimme, Chem. Sci., 2017, 8, 4879.
     DOI: 10.1039/c7sc00601b
   * J. Koopman and S. Grimme, ACS Omega 2019, 4, 12, 15120-15133.
     DOI: 10.1021/acsomega.9b02011
   
   for metadynamics refer to:
   * S. Grimme, J. Chem. Theory Comput., 2019, 155, 2847-2862
     DOI: 10.1021/acs.jctc.9b00143
   
   for SPH calculations refer to:
   * S. Spicher and S. Grimme, J. Chem. Theory Comput., 2021, 17, 1701-1714
     DOI: 10.1021/acs.jctc.0c01306
   
   for ONIOM refer to:
   * C. Plett, A. Katbashev, S. Ehlert, S. Grimme, M. Bursch,
     Phys. Chem. Chem. Phys., 2023, 25, 17860-17868. DOI: 10.1039/D3CP02178E
   
   for DIPRO refer to:
   * J. Kohn, N. Gildemeister, S. Grimme, D. Fazzi, A. Hansen,
     J. Chem. Phys., 2023, just accepted.
   
   for PTB refer to:
   * S. Grimme, M. Mueller, A. Hansen, J. Chem. Phys., 2023, 158, 124111.
     DOI: 10.1063/5.0137838
   
   with help from (in alphabetical order)
   P. Atkinson, C. Bannwarth, F. Bohle, G. Brandenburg, E. Caldeweyher
   M. Checinski, S. Dohm, S. Ehlert, S. Ehrlich, I. Gerasimov, C. Hölzer
   A. Katbashev, J. Kohn, J. Koopman, C. Lavigne, S. Lehtola, F. März, M. Müller,
   F. Musil, H. Neugebauer, J. Pisarek, C. Plett, P. Pracht, F. Pultar,
   J. Seibert, P. Shushkov, S. Spicher, M. Stahn, M. Steiner, T. Strunk,
   J. Stückrath, T. Rose, and J. Unsleber
   
 * started run on 2025/04/11 at 11:58:12.379     
   ID    Z sym.   atoms
    1    6 C      1, 3, 4
    2    8 O      2
    3    7 N      5
    4    1 H      6-14

           -------------------------------------------------
          |                Calculation Setup                |
           -------------------------------------------------

          program call               : /srv/scratch/z5358697/.xtb/bin/xtb xtb_opt.coord --opt normal --orca -I xtb_opt-xcontrol-inp
          hostname                   : k071
          coordinate file            : xtb_opt.coord
          omp threads                :                    15

           -------------------------------------------------
          |                   Orca driver                   |
           -------------------------------------------------
orca executable           : /apps/z_install_tree/linux-rocky8-ivybridge/gcc-12.2.0/orca-6.0.0-srtngmq3qlimg2qxbl6avaaiffipurdx/bin/orca
orca input file           : xtb_opt.inp
orca input line           : 
orca parallel             : true
orca number of threads    : 15
                         * ORCA takes the control...
  ------------------------------------------------------------------------

                                 *****************
                                 * O   R   C   A *
                                 *****************

                                            #,                                       
                                            ###                                      
                                            ####                                     
                                            #####                                    
                                            ######                                   
                                           ########,                                 
                                     ,,################,,,,,                         
                               ,,#################################,,                 
                          ,,##########################################,,             
                       ,#########################################, ''#####,          
                    ,#############################################,,   '####,        
                  ,##################################################,,,,####,       
                ,###########''''           ''''###############################       
              ,#####''   ,,,,##########,,,,          '''####'''          '####       
            ,##' ,,,,###########################,,,                        '##       
           ' ,,###''''                  '''############,,,                           
         ,,##''                                '''############,,,,        ,,,,,,###''
      ,#''                                            '''#######################'''  
     '                                                          ''''####''''         
             ,#######,   #######,   ,#######,      ##                                
            ,#'     '#,  ##    ##  ,#'     '#,    #''#        ,####,   ,####,        
            ##       ##  ##   ,#'  ##            #'  '#       #'       #'  '#        
            ##       ##  #######   ##           ,######,      #####,   #    #        
            '#,     ,#'  ##    ##  '#,     ,#' ,#      #,     #,   #   #,  ,#        
             '#######'   ##     ##  '#######'  #'      '#     '####' # '####'        



                #########################################################
                #                        -***-                          #
                #          Department of theory and spectroscopy        #
                #                                                       #
                #                      Frank Neese                      #
                #                                                       #
                #     Directorship, Architecture, Infrastructure        #
                #                    SHARK, DRIVERS                     #
                #        Core code/Algorithms in most modules           #
                #                                                       #
                #        Max Planck Institute fuer Kohlenforschung      #
                #                Kaiser Wilhelm Platz 1                 #
                #                 D-45470 Muelheim/Ruhr                 #
                #                      Germany                          #
                #                                                       #
                #                  All rights reserved                  #
                #                        -***-                          #
                #########################################################


                         Program Version 6.0.0  -   RELEASE  -


 With contributions from (in alphabetic order):
   Daniel Aravena         : Magnetic Suceptibility
   Michael Atanasov       : Ab Initio Ligand Field Theory (pilot matlab implementation)
   Alexander A. Auer      : GIAO ZORA, VPT2 properties, NMR spectrum
   Ute Becker             : All parallelization in ORCA, NUMFREQ, NUMCALC
   Giovanni Bistoni       : ED, misc. LED, open-shell LED, HFLD
   Martin Brehm           : Molecular dynamics
   Dmytro Bykov           : pre 5.0 version of the SCF Hessian
   Marcos Casanova-Páez   : Triplet and SCS-CIS(D). UHF-(DLPNO)-IP/EA/STEOM-CCSD. UHF-CVS-IP/STEOM-CCSD
   Vijay G. Chilkuri      : MRCI spin determinant printing, contributions to CSF-ICE
   Pauline Colinet        : FMM embedding
   Dipayan Datta          : RHF DLPNO-CCSD density
   Achintya Kumar Dutta   : EOM-CC, STEOM-CC
   Nicolas Foglia         : Exact transition moments, OPA infrastructure, MCD improvements
   Dmitry Ganyushin       : Spin-Orbit,Spin-Spin,Magnetic field MRCI
   Miquel Garcia          : C-PCM and meta-GGA Hessian, CCSD/C-PCM, Gaussian charge scheme
   Tiago L. C. Gouveia    : GS-ROHF, GS-ROCIS
   Yang Guo               : DLPNO-NEVPT2, F12-NEVPT2, CIM, IAO-localization
   Andreas Hansen         : Spin unrestricted coupled pair/coupled cluster methods
   Ingolf Harden          : AUTO-CI MPn and infrastructure 
   Benjamin Helmich-Paris : MC-RPA, TRAH-(SCF,CASSCF), AVAS, COSX integrals, SCF dyn. polar.
   Lee Huntington         : MR-EOM, pCC
   Robert Izsak           : Overlap fitted RIJCOSX, COSX-SCS-MP3, EOM
   Riya Kayal             : Wick's Theorem for AUTO-CI, AUTO-CI UHF-CCSDT
   Emily Kempfer          : AUTO-CI, RHF CISDT and CCSDT
   Christian Kollmar      : KDIIS, OOCD, Brueckner-CCSD(T), CCSD density, CASPT2, CASPT2-K, improved NEVPT2
   Axel Koslowski         : Symmetry handling
   Simone Kossmann        : Meta GGA functionals, TD-DFT gradient, OOMP2, (MP2 Hessian; deprecated post 5.0)
   Lucas Lang             : DCDCAS
   Marvin Lechner         : AUTO-CI (C++ implementation), FIC-MRCC
   Spencer Leger          : CASSCF response
   Dagmar Lenk            : GEPOL surface, SMD, ORCA-2-JSON
   Dimitrios Liakos       : Extrapolation schemes; Compound Job, initial MDCI parallelization
   Dimitrios Manganas     : Further ROCIS development; embedding schemes. LFT, Crystal Embedding
   Dimitrios Pantazis     : SARC Basis sets
   Anastasios Papadopoulos: AUTO-CI, single reference methods and gradients
   Taras Petrenko         : pre 6.0 DFT Hessian and TD-DFT gradient, (ASA, deprecated), ECA, 1-Electron XAS/XES, NRVS
   Peter Pinski           : DLPNO-MP2, DLPNO-MP2 Gradient
   Christoph Reimann      : Effective Core Potentials
   Marius Retegan         : Local ZFS, SOC
   Christoph Riplinger    : Optimizer, TS searches, QM/MM, DLPNO-CCSD(T), (RO)-DLPNO pert. Triples
   Michael Roemelt        : Original ROCIS implementation
   Masaaki Saitow         : Open-shell DLPNO-CCSD energy and density
   Barbara Sandhoefer     : DKH picture change effects
   Kantharuban Sivalingam : CASSCF convergence/infrastructure, NEVPT2 and variants, FIC-MRCI
   Bernardo de Souza      : ESD, SOC TD-DFT
   Georgi Stoychev        : AutoAux, RI-MP2 NMR, DLPNO-MP2 response, X2C
   Van Anh Tran           : RI-MP2 g-tensors
   Willem Van den Heuvel  : Paramagnetic NMR
   Zikuan Wang            : NOTCH, Electric field optimization 
   Frank Wennmohs         : Technical directorship and infrastructure
   Hang Xu                : AUTO-CI-Response properties 


 We gratefully acknowledge several colleagues who have allowed us to
 interface, adapt or use parts of their codes:
   Stefan Grimme, W. Hujo, H. Kruse, P. Pracht,  : VdW corrections, initial TS optimization,
                  C. Bannwarth, S. Ehlert,         DFT functionals, gCP, sTDA/sTD-DF
                  L. Wittmann, M. Mueller
   Ed Valeev, F. Pavosevic, A. Kumar             : LibInt (2-el integral package), F12 methods
   Garnet Chan, S. Sharma, J. Yang, R. Olivares  : DMRG
   Ulf Ekstrom                                   : XCFun DFT Library
   Mihaly Kallay                                 : mrcc  (arbitrary order and MRCC methods)
   Frank Weinhold                                : gennbo (NPA and NBO analysis)
   Simon Mueller                                 : openCOSMO-RS
   Christopher J. Cramer and Donald G. Truhlar   : smd solvation model
   Lars Goerigk                                  : TD-DFT with DH, B97 family of functionals
   V. Asgeirsson, H. Jonsson                     : NEB implementation
   FAccTs GmbH                                   : IRC, NEB, NEB-TS, DLPNO-Multilevel, CI-OPT
                                                   MM, QMMM, 2- and 3-layer-ONIOM, Crystal-QMMM,
                                                   LR-CPCM, SF, NACMEs, symmetry and pop. for TD-DFT,
                                                   nearIR, NL-DFT gradient (VV10), updates on ESD,
                                                   ML-optimized integration grids, MBIS, APM,
                                                   GOAT, DOCKER, SOLVATOR, interface openCOSMO-RS
   S Lehtola, MJT Oliveira, MAL Marques          : LibXC Library
   Liviu Ungur et al                             : ANISO software


 Your calculation uses the libint2 library for the computation of 2-el integrals
 For citations please refer to: http://libint.valeyev.net

 Your ORCA version has been built with support for libXC version: 6.2.2
 For citations please refer to: https://libxc.gitlab.io

 This ORCA versions uses:
   CBLAS   interface :  Fast vector & matrix operations
   LAPACKE interface :  Fast linear algebra routines
   SCALAPACK package :  Parallel linear algebra routines
   Shared memory     :  Shared parallel matrices
   BLAS/LAPACK       :  OpenBLAS 0.3.27  USE64BITINT DYNAMIC_ARCH NO_AFFINITY SkylakeX SINGLE_THREADED
        Core in use  :  SkylakeX
   Copyright (c) 2011-2014, The OpenBLAS Project




***************************************
The coordinates will be read from file: xtb_opt.xyz
***************************************


Your calculation utilizes the geometrical counterpoise correction gCP
Please cite in your paper:
H.Kruse, S. Grimme J.Chem.Phys., 136, (2012), 154101 
   

Your calculation utilizes the atom-pairwise dispersion correction
based on EEQ partial charges (D4)


Your calculation utilizes the SMD solvation module
Please cite in your paper:
A.V. Marenich, C.J. Cramer, D.G. Truhlar J. Phys. Chem. B, 113, (2009), 6378 

================================================================================

----- Orbital basis set information -----
Your calculation utilizes the basis: def2-mTZVPP
   Stefan Grimme, Andreas Hansen, Sebastian Ehlert, and Jan-Michael Mewes 
   J. Chem. Phys. 154, 064103 (2021). DOI: 10.1063/5.0040021

----- AuxJ basis set information -----
Your calculation utilizes the auxiliary basis: def2/J
   F. Weigend, Phys. Chem. Chem. Phys. 8, 1057 (2006).

================================================================================
                                        WARNINGS
                       Please study these warnings very carefully!
================================================================================

Using LibXC functional ID 497 : Re-regularized SCAN exchange by Furness et al
[ 1]  J. W. Furness, A. D. Kaplan, J. Ning, J. P. Perdew, and J. Sun.,  J. Phys. Chem. Lett. 11, 8208-8215 (2020)
[ 2]  J. W. Furness, A. D. Kaplan, J. Ning, J. P. Perdew, and J. Sun.,  J. Phys. Chem. Lett. 11, 9248-9248 (2020)
Using LibXC functional ID 498 : Re-regularized SCAN correlation by Furness et al
[ 1]  J. W. Furness, A. D. Kaplan, J. Ning, J. P. Perdew, and J. Sun.,  J. Phys. Chem. Lett. 11, 8208-8215 (2020)
[ 2]  J. W. Furness, A. D. Kaplan, J. Ning, J. P. Perdew, and J. Sun.,  J. Phys. Chem. Lett. 11, 9248-9248 (2020)
Using LibXC functional ID 497 : Re-regularized SCAN exchange by Furness et al
[ 1]  J. W. Furness, A. D. Kaplan, J. Ning, J. P. Perdew, and J. Sun.,  J. Phys. Chem. Lett. 11, 8208-8215 (2020)
[ 2]  J. W. Furness, A. D. Kaplan, J. Ning, J. P. Perdew, and J. Sun.,  J. Phys. Chem. Lett. 11, 9248-9248 (2020)
Using LibXC functional ID 498 : Re-regularized SCAN correlation by Furness et al
[ 1]  J. W. Furness, A. D. Kaplan, J. Ning, J. P. Perdew, and J. Sun.,  J. Phys. Chem. Lett. 11, 8208-8215 (2020)
[ 2]  J. W. Furness, A. D. Kaplan, J. Ning, J. P. Perdew, and J. Sun.,  J. Phys. Chem. Lett. 11, 9248-9248 (2020)

================================================================================
                                       INPUT FILE
================================================================================
NAME = xtb_opt.inp
|  1> ! r2scan-3c def2/J RI DEFGRID2 scfconv7 ENGRAD tightSCF miniprint
|  2> %cpcm
|  3>     smd true
|  4>     smdsolvent "water"
|  5> end
|  6> * xyzfile 0 1 xtb_opt.xyz
|  7> 
|  8>                          ****END OF INPUT****
================================================================================

                     *******************************
                     * Energy+Gradient Calculation *
                     *******************************

---------------------------------
CARTESIAN COORDINATES (ANGSTROEM)
---------------------------------
  C      2.397277   -0.027657   -0.186446
  O      1.163355    0.193280    0.462693
  C      0.049490   -0.147372   -0.337918
  C     -1.224023    0.170525    0.442149
  N     -2.393802   -0.130935   -0.369101
  H      3.168947    0.269603    0.518903
  H      2.472506    0.575524   -1.097634
  H      2.518387   -1.084997   -0.446819
  H      0.061777    0.425227   -1.275406
  H      0.082749   -1.218975   -0.589632
  H     -1.185622   -0.380582    1.396041
  H     -1.230225    1.238003    0.674292
  H     -3.232557    0.107859    0.146968
  H     -2.427545   -1.126483   -0.562360

----------------------------
CARTESIAN COORDINATES (A.U.)
----------------------------
  NO LB      ZA    FRAG     MASS         X           Y           Z
   0 C     6.0000    0    12.011    4.530197   -0.052265   -0.352333
   1 O     8.0000    0    15.999    2.198422    0.365247    0.874362
   2 C     6.0000    0    12.011    0.093522   -0.278492   -0.638572
   3 C     6.0000    0    12.011   -2.313069    0.322245    0.835541
   4 N     7.0000    0    14.007   -4.523630   -0.247431   -0.697500
   5 H     1.0000    0     1.008    5.988441    0.509475    0.980585
   6 H     1.0000    0     1.008    4.672360    1.087583   -2.074228
   7 H     1.0000    0     1.008    4.759061   -2.050346   -0.844366
   8 H     1.0000    0     1.008    0.116742    0.803563   -2.410169
   9 H     1.0000    0     1.008    0.156374   -2.303529   -1.114243
  10 H     1.0000    0     1.008   -2.240500   -0.719196    2.638135
  11 H     1.0000    0     1.008   -2.324789    2.339487    1.274227
  12 H     1.0000    0     1.008   -6.108647    0.203823    0.277730
  13 H     1.0000    0     1.008   -4.587395   -2.128745   -1.062706

------------------------------------------------------------------------------
                   ___                                                        
                  /   \      - P O W E R E D   B Y -                         
                 /     \                                                     
                 |  |  |   _    _      __       _____    __    __             
                 |  |  |  | |  | |    /  \     |  _  \  |  |  /  |          
                  \  \/   | |  | |   /    \    | | | |  |  | /  /          
                 / \  \   | |__| |  /  /\  \   | |_| |  |  |/  /          
                |  |  |   |  __  | /  /__\  \  |    /   |      \           
                |  |  |   | |  | | |   __   |  |    \   |  |\   \          
                \     /   | |  | | |  |  |  |  | |\  \  |  | \   \       
                 \___/    |_|  |_| |__|  |__|  |_| \__\ |__|  \__/        
                                                                              
                      - O R C A' S   B I G   F R I E N D -                    
                                      &                                       
                       - I N T E G R A L  F E E D E R -                       
                                                                              
 v1 FN, 2020, v2 2021, v3 2022-2024                                           
------------------------------------------------------------------------------


----------------------
SHARK INTEGRAL PACKAGE
----------------------

Number of atoms                             ...     14
Number of basis functions                   ...    150
Number of shells                            ...     74
Maximum angular momentum                    ...      2
Integral batch strategy                     ... SHARK/LIBINT Hybrid
RI-J (if used) integral strategy            ... SPLIT-RIJ (Revised 2003 algorithm where possible)
Printlevel                                  ...      1
Contraction scheme used                     ... SEGMENTED contraction
Prescreening option                         ... SCHWARTZ
   Thresh                                   ... 3.000e-11
   Tcut                                     ... 1.000e-12
   Tpresel                                  ... 1.000e-12 
Coulomb Range Separation                    ... NOT USED
Exchange Range Separation                   ... NOT USED
Multipole approximations                    ... NOT USED
Finite Nucleus Model                        ... NOT USED
CABS basis                                  ... NOT available
Auxiliary Coulomb fitting basis             ... AVAILABLE
   # of basis functions in Aux-J            ...    344
   # of shells in Aux-J                     ...    120
   Maximum angular momentum in Aux-J        ...      4
Auxiliary J/K fitting basis                 ... NOT available
Auxiliary Correlation fitting basis         ... NOT available
Auxiliary 'external' fitting basis          ... NOT available

Checking pre-screening integrals            ... done (  0.0 sec) Dimension = 74
Check shell pair data                       ... done (  0.0 sec)
Shell pair information
Shell pair cut-off parameter TPreSel        ...   1.0e-12
Total number of shell pairs                 ...      2775
Shell pairs after pre-screening             ...      2586
Total number of primitive shell pairs       ...      9590
Primitive shell pairs kept                  ...      6794
          la=0 lb=0:    870 shell pairs
          la=1 lb=0:    965 shell pairs
          la=1 lb=1:    280 shell pairs
          la=2 lb=0:    284 shell pairs
          la=2 lb=1:    160 shell pairs
          la=2 lb=2:     27 shell pairs

Calculating one electron integrals          ... done (  0.0 sec)
Calculating RI/J V-Matrix + Cholesky decomp.... done (  0.0 sec)
Calculating Nuclear repulsion               ... done (  0.0 sec) ENN=    189.501777044690 Eh

Diagonalization of the overlap matrix:
Smallest eigenvalue                        ... 2.956e-04
Time for diagonalization                   ...    0.002 sec
Threshold for overlap eigenvalues          ... 1.000e-07
Number of eigenvalues below threshold      ... 0
Time for construction of square roots      ...    0.018 sec
Total time needed                          ...    0.029 sec

-------------------
DFT GRID GENERATION
-------------------

General Integration Accuracy     IntAcc      ... 4.388
Radial Grid Type                 RadialGrid  ... OptM3 with GC (2021)
Angular Grid (max. ang.)         AngularGrid ... 4 (Lebedev-302)
Angular grid pruning method      GridPruning ... 4 (adaptive)
Weight generation scheme         WeightScheme... mBecke (2022)
Basis function cutoff            BFCut       ... 1.0000e-11
Integration weight cutoff        WCut        ... 1.0000e-14
Partially contracted basis set               ... off
Rotationally invariant grid construction     ... off
Angular grids for H and He will be reduced by one unit
Diffuse basis detected: some atoms will have their outermost
                        angular grid increased by 1.

Total number of grid points                  ...    59629
Total number of batches                      ...      938
Average number of points per batch           ...       63
Average number of grid points per atom       ...     4259
Initializing property integral containers    ... done (  0.0 sec)

SHARK setup successfully completed in   0.8 seconds

Maximum memory used throughout the entire STARTUP-calculation: 26.2 MB
Occupation numbers will be reassigned to an Aufbau configuration
             **** ENERGY FILE WAS UPDATED (xtb_opt.en.tmp) ****
Finished Guess after   0.3 sec
Maximum memory used throughout the entire GUESS-calculation: 10.1 MB
--------------------
CPCM SOLVATION MODEL
--------------------
CPCM parameters:
  Epsilon                                         ...      78.3550
  Refrac                                          ...       1.3328
  Rsolv                                           ...       1.3000
  Surface type                                    ... GAUSSIAN VDW
  Discretization scheme                           ... Constant charge density
    Threshold for H atoms                         ...       5.0000 (charges/Ang^2)
    Threshold for non-H atoms                     ...       5.0000 (charges/Ang^2)
  Epsilon function type                           ...         CPCM
Solvent:                                          ... WATER
SMD-CDS solvent descriptors:
  Soln                                            ...       1.3328
  Soln25                                          ...       1.3323
  Sola                                            ...       0.0000
  Solb                                            ...       0.0000
  Solg                                            ...       0.0000
  Solc                                            ...       0.0000
  Solh                                            ...       0.0000
Radii:
  Scheme                                          ... Element-dependent radii
  Radius for C  used is    3.4960 Bohr (=   1.8500 Ang.)
  Radius for O  used is    2.8724 Bohr (=   1.5200 Ang.)
  Radius for N  used is    3.5716 Bohr (=   1.8900 Ang.)
  Radius for H  used is    2.2677 Bohr (=   1.2000 Ang.)
Calculating surface                               ...        done! (  0.0s)
Cavity surface points                             ...         1060
Cavity Volume                                     ...     612.7060
Cavity Surface-area                               ...     423.6236
Calculating surface distance matrix               ...        done! (  0.0s)
Performing Cholesky decomposition & store         ...        done! (  0.1s)
Overall time for CPCM initialization              ...                 0.1s

----------------------------------------D-I-I-S--------------------------------------------
Iteration    Energy (Eh)           Delta-E    RMSDP     MaxDP     DIISErr   Damp  Time(sec)
-------------------------------------------------------------------------------------------
               ***  Starting incremental Fock matrix formation  ***
                              *** Initializing SOSCF ***
---------------------------------------S-O-S-C-F--------------------------------------
Iteration    Energy (Eh)           Delta-E    RMSDP     MaxDP     MaxGrad    Time(sec)
--------------------------------------------------------------------------------------
    1    -249.6399848888558495     0.00e+00  4.76e-06  1.05e-04  1.03e-05     1.6
               *** Restarting incremental Fock matrix formation ***
    2    -249.6399849004411067    -1.16e-08  5.56e-06  1.09e-04  3.29e-05     1.6
    3    -249.6399848360662759     6.44e-08  3.73e-06  6.54e-05  5.38e-05     1.3
                 **** Energy Check signals convergence ****

               *****************************************************
               *                     SUCCESS                       *
               *           SCF CONVERGED AFTER   3 CYCLES          *
               *****************************************************


SMD CDS free energy correction energy :                 2.26219     Kcal/mol
Total Energy after SMD CDS correction =              -249.636379802 Eh
             **** ENERGY FILE WAS UPDATED (xtb_opt.en.tmp) ****

----------------
TOTAL SCF ENERGY
----------------

Total Energy       :       -249.63637980171058 Eh           -6792.95124 eV

Components:
Nuclear Repulsion  :        189.50177704469002 Eh            5156.60551 eV
Electronic Energy  :       -439.12621543509346 Eh          -11949.23181 eV
One Electron Energy:       -713.70680274020606 Eh          -19420.94944 eV
Two Electron Energy:        274.58058730511260 Eh            7471.71764 eV
CPCM Dielectric    :         -0.01554644566281 Eh              -0.42304 eV
SMD CDS (Gcds)     :          0.00360503435569 Eh               0.09810 eV

Virial components:
Potential Energy   :       -498.17387984418281 Eh          -13556.00044 eV
Kinetic Energy     :        248.53750004247226 Eh            6763.04920 eV
Virial Ratio       :          2.00442138413338

DFT components:
N(Alpha)           :       21.000030563113 electrons
N(Beta)            :       21.000030563113 electrons
N(Total)           :       42.000061126227 electrons
E(X)               :      -33.740229535017 Eh       
E(C)               :       -1.325718765977 Eh       
E(XC)              :      -35.065948300994 Eh       

CPCM Solvation Model Properties:
Surface-charge          :         -0.03660933276280
Corrected charge        :         -0.00000000000000
Outlying charge corr.   :          0.00011604718109 Eh               0.00316 eV
Free-energy (cav+disp)  :          0.00360503435569 Eh               0.09810 eV

---------------
SCF CONVERGENCE
---------------

  Last Energy change         ...   -6.4375e-08  Tolerance :   1.0000e-07
  Last MAX-Density change    ...    6.5439e-05  Tolerance :   1.0000e-07
  Last RMS-Density change    ...    3.7336e-06  Tolerance :   5.0000e-09
  Last DIIS Error            ...    1.4636e-04  Tolerance :   1.0000e-07
  Last Orbital Gradient      ...    5.3817e-05  Tolerance :   1.0000e-04
  Last Orbital Rotation      ...    3.4480e-05  Tolerance :   1.0000e-04


----------------
ORBITAL ENERGIES
----------------

  NO   OCC          E(Eh)            E(eV) 
   0   2.0000     -18.956952      -515.8449 
   1   2.0000     -14.134786      -384.6271 
   2   2.0000     -10.068307      -273.9726 
   3   2.0000     -10.062826      -273.8234 
   4   2.0000     -10.046878      -273.3894 
   5   2.0000      -1.001031       -27.2394 
   6   2.0000      -0.844664       -22.9845 
   7   2.0000      -0.702568       -19.1179 
   8   2.0000      -0.621395       -16.9090 
   9   2.0000      -0.562421       -15.3043 
  10   2.0000      -0.464101       -12.6288 
  11   2.0000      -0.455216       -12.3871 
  12   2.0000      -0.434561       -11.8250 
  13   2.0000      -0.408378       -11.1125 
  14   2.0000      -0.395438       -10.7604 
  15   2.0000      -0.370351       -10.0778 
  16   2.0000      -0.328073        -8.9273 
  17   2.0000      -0.315501        -8.5852 
  18   2.0000      -0.289522        -7.8783 
  19   2.0000      -0.226069        -6.1517 
  20   2.0000      -0.209922        -5.7123 
  21   0.0000       0.063037         1.7153 
  22   0.0000       0.093306         2.5390 
  23   0.0000       0.125171         3.4061 
  24   0.0000       0.141302         3.8450 
  25   0.0000       0.150695         4.1006 
  26   0.0000       0.157910         4.2970 
  27   0.0000       0.160472         4.3667 
  28   0.0000       0.181863         4.9487 
  29   0.0000       0.189595         5.1591 
  30   0.0000       0.198351         5.3974 
  31   0.0000       0.203976         5.5505 
*Only the first 10 virtual orbitals were printed.
Total SCF time: 0 days 0 hours 0 min 4 sec 
Finished LeanSCF after   5.0 sec

Maximum memory used throughout the entire LEANSCF-calculation: 16.9 MB


-------------------------------------------------------------------------------
                          DFT DISPERSION CORRECTION                            
                                                                               
                                DFTD4 V3.4.0                                   
-------------------------------------------------------------------------------
-------------------------   ----------------
Dispersion correction           -0.002645510
-------------------------   ----------------

------------------   -----------------
gCP correction             0.012531436
------------------   -----------------

-------------------------   --------------------
FINAL SINGLE POINT ENERGY      -249.626493875243
-------------------------   --------------------

------------------------------------------------------------------------------
                         ORCA SCF GRADIENT CALCULATION
------------------------------------------------------------------------------

Nuc. rep. gradient        (SHARK) ... done (  0.0 sec)
HCore & Overlap gradient  (SHARK) ... done (  0.1 sec)
Split-RIJ-J gradient      (SHARK) ... done (  0.6 sec)
XC gradient                       ... done (  3.1 sec)
CPCM gradient                     ... done (  0.4 sec)
SMD gradient                      ... done (  0.0 sec)
Dispersion correction             ... done (  0.0 sec)

-------------------
DISPERSION GRADIENT
-------------------

   1   C   :    0.000056079   -0.000004209   -0.000014071
   2   O   :    0.000039462    0.000003890    0.000006791
   3   C   :    0.000012292   -0.000004329   -0.000010945
   4   C   :   -0.000037435    0.000005713    0.000018980
   5   N   :   -0.000071560   -0.000012401   -0.000003048
   6   H   :    0.000023692    0.000001811    0.000003225
   7   H   :    0.000025152    0.000002725   -0.000002804
   8   H   :    0.000025394   -0.000002688   -0.000000554
   9   H   :    0.000001058    0.000004417   -0.000006060
  10   H   :    0.000001515   -0.000006105   -0.000001892
  11   H   :   -0.000018474   -0.000000276    0.000010214
  12   H   :   -0.000019162    0.000008393    0.000005527
  13   H   :   -0.000016601    0.000000198   -0.000002895
  14   H   :   -0.000021411    0.000002862   -0.000002470

Difference to translation invariance:
           :   -0.0000000000    0.0000000000    0.0000000000

Difference to rotation invariance:
           :   -0.0000000000    0.0000000000    0.0000000000

Norm of the Dispersion gradient    ...    0.0001264643
RMS gradient                       ...    0.0000195139
MAX gradient                       ...    0.0000715601
gCP correction                   ... done

------------------
CARTESIAN GRADIENT
------------------

   1   C   :   -0.001365574    0.001291722    0.002329854
   2   O   :    0.004707606   -0.004964241   -0.011780809
   3   C   :    0.009627397    0.000667054    0.001755412
   4   C   :   -0.009674352    0.001631615   -0.001695048
   5   N   :    0.003903013   -0.000502307    0.007827646
   6   H   :   -0.004927067   -0.000270987   -0.000368065
   7   H   :   -0.001639325   -0.001424155    0.002626108
   8   H   :   -0.001740133    0.002642978    0.000961496
   9   H   :   -0.000567993   -0.000810132    0.002278232
  10   H   :    0.000506240    0.001443842    0.001140299
  11   H   :    0.000362087   -0.000582809   -0.000598462
  12   H   :   -0.000710810   -0.001879321   -0.001669192
  13   H   :    0.000138288    0.002100647   -0.000578160
  14   H   :    0.001380623    0.000656095   -0.002229311

Difference to translation invariance:
           :    0.0000000000    0.0000000000    0.0000000000

Difference to rotation invariance:
           :    0.0004113711   -0.0002893749   -0.0000803441

Norm of the Cartesian gradient     ...    0.0233071633
RMS gradient                       ...    0.0035963734
MAX gradient                       ...    0.0117808094

-------
TIMINGS
-------

Total SCF gradient time     ....        4.545 sec

Densities                   ....       0.000 sec  (  0.0%)
One electron gradient       ....       0.115 sec  (  2.5%)
RI-J Coulomb gradient       ....       0.645 sec  ( 14.2%)
XC gradient                 ....       3.051 sec  ( 67.1%)
CPCM gradient               ....       0.355 sec  (  7.8%)
   A-Matrix (El+Nuc)        ....       0.036 sec  (  0.8%)
   Potential                ....       0.319 sec  (  7.0%)
SMD gradient                ....       0.013 sec  (  0.3%)

Maximum memory used throughout the entire SCFGRAD-calculation: 30.2 MB

------------------------------------------------------------------------------
                              ORCA PROPERTY CALCULATIONS
------------------------------------------------------------------------------

GBWName                                 ... xtb_opt.gbw
Number of atoms                         ...     14
Number of basis functions               ...    150
Max core memory                         ...   1024 MB

Electric properties:
Dipole moment                           ... YES
Quadrupole moment                       ...  NO
Static polarizability (Dipole/Dipole)   ...  NO
Static polarizability (Dipole/Quad.)    ...  NO
Static polarizability (Quad./Quad.)     ...  NO
Static polarizability (Velocity)        ...  NO

Atomic electric properties:
Dipole moment                           ...  NO
Quadrupole moment                       ...  NO
Static polarizability                   ...  NO

Choice of electric origin               ... Center of mass
Position of electric origin             ...    -0.000021    -0.000005    -0.000010

General magnetic properties:
Magnetizability                         ...  NO

EPR properties:
g-Tensor (aka g-matrix)                 ...  NO
Zero-Field splitting spin-orbit         ...  NO
Zero-field splitting spin-spin          ...  NO
Hyperfine couplings                     ...  NO (   0 nuclei)
Quadrupole couplings                    ...  NO (   0 nuclei)
Contact density                         ...  NO (   0 nuclei)

NMR properties:
Chemical shifts                         ...  NO (   0 nuclei)
Spin-rotation constants                 ...  NO (   0 nuclei)
Spin-spin couplings                     ...  NO (   0 nuclei,    0 pairs)

Choice of magnetic origin               ... GIAO
Position of magnetic origin             ...     0.000000     0.000000     0.000000

Properties with geometric perturbations:
SCF Hessian                             ...  NO
IR spectrum                             ...  NO
VCD spectrum                            ...  NO
X-ray spectroscopy properties:
SCF XES/XAS/RIXS spectra                ...  NO


-------------
DIPOLE MOMENT
-------------

Method             : SCF
Type of density    : Electron Density
Multiplicity       :   1
Irrep              :   0
Energy             :  -249.6363798017105751 Eh
Relativity type    : 
Basis              : AO
                                X                 Y                 Z
Electronic contribution:     -0.282924580       0.493126252       1.059163385
Nuclear contribution   :      0.218414435      -1.118793986      -1.154400863
                        -----------------------------------------
Total Dipole Moment    :     -0.064510144      -0.625667734      -0.095237477
                        -----------------------------------------
Magnitude (a.u.)       :      0.636153951
Magnitude (Debye)      :      1.616974840



--------------------
Rotational spectrum 
--------------------
 
Rotational constants in cm-1:             0.721216             0.071194             0.067637 
Rotational constants in MHz :         21621.500448          2134.356833          2027.718311 

Dipole components along the rotational axes: 
x,y,z [a.u.] :     0.082104     0.342559     0.529721 
x,y,z [Debye]:     0.208691     0.870715     1.346444 

 

Dipole moment calculation done in   0.0 sec 

Maximum memory used throughout the entire PROP-calculation: 8.4 MB

--------------------------------
SUGGESTED CITATIONS FOR THIS RUN
--------------------------------

Below you find a list of papers that are relevant to this ORCA run
We neither can nor want to force you to cite these papers, but we appreciate if you do
You receive ORCA, which is the product of decades of hard work by many enthusiastic individuals, for free
The only thing we kindly ask in return is that you cite our papers,
We deeply appreciate it, if you show your appreciation for ORCA by not just citing the generic ORCA reference.

Please note that relegating all ORCA citations to the supporting information does *not* help us.
SI sections are not indexed - citations you put there will not count into any citation statistics
But we need these citations in order to attract the funding resources that allow us to do what we are doing

Therefore, if you are a happy ORCA user, please consider citing a few of the papers listed below in the main body of your paper

In addition to the list printed below, the program has created the file xtb_opt.bibtex that contains the list in bibtex format
You can import this file easily into all common literature databanks and citation aid programs


List of essential papers. We consider these as the minimum necessary citations

  1. Neese,F.
     Software update: the ORCA program system, version 5.0
     WIRES Comput. Molec. Sci., 2022 12(1)e1606
     doi.org/10.1002/wcms.1606
  2. Grimme,S.; Hansen,A.; Ehlert,S.; Mewes,J.
     r2SCAN-3c: A 'Swiss army knife' composite electronic-structure method
     J. Chem. Phys., 2021 154 064103
     doi.org/10.1063/5.0040021

List of papers to cite with high priority. The work reported in these papers was absolutely
necessary for this run to complete.
Our perspective: the developers of density functionals and basis sets usually get cited in chemistry papers
Good! But without the algorithms to do something with them, the functionals or basis sets would not do anything.
Hence, in our opinion, the algorithm design and method developments papers are equally worthy of getting cited

  1. Neese,F.
     An improvement of the resolution of the identity approximation for the formation of the Coulomb matrix
     J. Comp. Chem., 2003 24(14)1740-1747
     doi.org/10.1002/jcc.10318
  2. Garcia-Rates,M.; Neese,F.
     Effect of the Solute Cavity on the Solvation Energy and its Derivatives within the Framework of the Gaussian Charge Scheme
     J. Comput. Chem., 2020 41 922-939
     doi.org/10.1002/jcc.26139
  3. Neese,F.
     The SHARK Integral Generation and Digestion System
     J. Comp. Chem., 2022  1-16
     doi.org/10.1002/jcc.26942
  4. Lehtola,S.; Steigemann,C.; Oliveira,M.; Marques,M.
     Recent developments in Libxc - A comprehensive library of functionals for density functional theory
     Software X, 2018 7 
     doi.org/10.1016/j.softx.2017.11.002
  5. Caldeweyher,E.; Bannwarth,C.; Grimme,S.
     Extension of the D3 dispersion coefficient model
     J. Chem. Phys., 2017 147 034112-XXXX
     doi.org/10.1063/1.4993215
  6. Caldeweyher,E.; Ehlert,S.; Hansen,A.; Neugebauer,H.; Spicher,S.; Bannwarth,C.; Grimme,S.
     A generally applicable atomic-charge dependent London dispersion correction
     J. Chem. Phys., 2019 150 154122-XXXX
     doi.org/10.1063/1.5090222
  7. Caldeweyher,E.; Mewes,J.; Ehlert,S.; Grimme,S.
     Extension and evaluation of the D4 London-dispersion model for periodic systems
     Phys. Chem. Chem. Phys., 2020 22(16)8499-8512
     doi.org/10.1039/D0CP00502A

List of suggested additional citations. These are papers that are important in the 'surrounding' of 
of this run, or papers that preceded the highly important papers. If you like your results we are grateful for a citation.

  1. Neese,F.
     The ORCA program system
     WIRES Comput. Molec. Sci., 2012 2(1)73-78
     doi.org/10.1002/wcms.81
  2. Neese,F.
     Software update: the ORCA program system, version 4.0
     WIRES Comput. Molec. Sci., 2018 8(1)1-6
     doi.org/10.1002/wcms.1327
  3. Neese,F.; Wennmohs,F.; Becker,U.; Riplinger,C.
     The ORCA quantum chemistry program package
     J. Chem. Phys., 2020 152 Art. No. L224108
     doi.org/10.1063/5.0004608

List of optional additional citations

  1. Neese,F.
     Approximate second-order SCF convergence for spin unrestricted wavefunctions
     Chem. Phys. Lett., 2000 325(1-3)93-98
     doi.org/10.1016/s0009-2614(00)00662-x

Timings for individual modules:

Sum of individual times          ...       10.913 sec (=   0.182 min)
Startup calculation              ...        0.828 sec (=   0.014 min)   7.6 %
SCF iterations                   ...        5.337 sec (=   0.089 min)  48.9 %
Property calculations            ...        0.097 sec (=   0.002 min)   0.9 %
SCF Gradient evaluation          ...        4.652 sec (=   0.078 min)  42.6 %
                             ****ORCA TERMINATED NORMALLY****
TOTAL RUN TIME: 0 days 0 hours 0 minutes 11 seconds 758 msec
  ------------------------------------------------------------------------
          * successful ORCA run, taking over control again...

         :::::::::::::::::::::::::::::::::::::::::::::::::::::
         ::                  ORCA SUMMARY                   ::
         :::::::::::::::::::::::::::::::::::::::::::::::::::::
         :: total energy            -249.626493875243 Eh    ::
         :: gradient norm              0.023307163331 Eh/a0 ::
         :: HOMO-LUMO gap              0.000000000000 eV    ::
         :::::::::::::::::::::::::::::::::::::::::::::::::::::

      ----------------------------------------------------------- 
     |                       L-ANC optimizer                     |
      ----------------------------------------------------------- 
          low memory version by Sebastian Ehlert

          ...................................................
          :                      SETUP                      :
          :.................................................:
          :   energy convergence        0.5000000E-05 Eh    :
          :   grad. convergence         0.1000000E-02 Eh/a0 :
          :   optimization log               true           :
          :   writing optlog all                1     steps :
          :   Hessian reset                     8     steps :
          :   maximium step len.        1.0000000     a0    :
          :   LBFGS images                      8           :
          ...................................................
 * calculating model hessian...
Using Lindh-Hessian (1995)
 Shifting diagonal of input Hessian by   1.000000000000000E-002
 Lowest  eigenvalues of input Hessian
    0.000000    0.000000    0.000000    0.000000    0.000000    0.000000
    0.013878    0.015533    0.017467    0.025951    0.029742    0.036856
    0.038927    0.056908    0.068388    0.075405    0.083515    0.089360
 Highest eigenvalues
    1.155958    1.203365    1.290149    1.363728    1.454835    1.557781
 

........................................................................
.............................. CYCLE    1 ..............................
........................................................................
                         * ORCA takes the control...
  ------------------------------------------------------------------------

                                 *****************
                                 * O   R   C   A *
                                 *****************

                                            #,                                       
                                            ###                                      
                                            ####                                     
                                            #####                                    
                                            ######                                   
                                           ########,                                 
                                     ,,################,,,,,                         
                               ,,#################################,,                 
                          ,,##########################################,,             
                       ,#########################################, ''#####,          
                    ,#############################################,,   '####,        
                  ,##################################################,,,,####,       
                ,###########''''           ''''###############################       
              ,#####''   ,,,,##########,,,,          '''####'''          '####       
            ,##' ,,,,###########################,,,                        '##       
           ' ,,###''''                  '''############,,,                           
         ,,##''                                '''############,,,,        ,,,,,,###''
      ,#''                                            '''#######################'''  
     '                                                          ''''####''''         
             ,#######,   #######,   ,#######,      ##                                
            ,#'     '#,  ##    ##  ,#'     '#,    #''#        ,####,   ,####,        
            ##       ##  ##   ,#'  ##            #'  '#       #'       #'  '#        
            ##       ##  #######   ##           ,######,      #####,   #    #        
            '#,     ,#'  ##    ##  '#,     ,#' ,#      #,     #,   #   #,  ,#        
             '#######'   ##     ##  '#######'  #'      '#     '####' # '####'        



                #########################################################
                #                        -***-                          #
                #          Department of theory and spectroscopy        #
                #                                                       #
                #                      Frank Neese                      #
                #                                                       #
                #     Directorship, Architecture, Infrastructure        #
                #                    SHARK, DRIVERS                     #
                #        Core code/Algorithms in most modules           #
                #                                                       #
                #        Max Planck Institute fuer Kohlenforschung      #
                #                Kaiser Wilhelm Platz 1                 #
                #                 D-45470 Muelheim/Ruhr                 #
                #                      Germany                          #
                #                                                       #
                #                  All rights reserved                  #
                #                        -***-                          #
                #########################################################


                         Program Version 6.0.0  -   RELEASE  -


 With contributions from (in alphabetic order):
   Daniel Aravena         : Magnetic Suceptibility
   Michael Atanasov       : Ab Initio Ligand Field Theory (pilot matlab implementation)
   Alexander A. Auer      : GIAO ZORA, VPT2 properties, NMR spectrum
   Ute Becker             : All parallelization in ORCA, NUMFREQ, NUMCALC
   Giovanni Bistoni       : ED, misc. LED, open-shell LED, HFLD
   Martin Brehm           : Molecular dynamics
   Dmytro Bykov           : pre 5.0 version of the SCF Hessian
   Marcos Casanova-Páez   : Triplet and SCS-CIS(D). UHF-(DLPNO)-IP/EA/STEOM-CCSD. UHF-CVS-IP/STEOM-CCSD
   Vijay G. Chilkuri      : MRCI spin determinant printing, contributions to CSF-ICE
   Pauline Colinet        : FMM embedding
   Dipayan Datta          : RHF DLPNO-CCSD density
   Achintya Kumar Dutta   : EOM-CC, STEOM-CC
   Nicolas Foglia         : Exact transition moments, OPA infrastructure, MCD improvements
   Dmitry Ganyushin       : Spin-Orbit,Spin-Spin,Magnetic field MRCI
   Miquel Garcia          : C-PCM and meta-GGA Hessian, CCSD/C-PCM, Gaussian charge scheme
   Tiago L. C. Gouveia    : GS-ROHF, GS-ROCIS
   Yang Guo               : DLPNO-NEVPT2, F12-NEVPT2, CIM, IAO-localization
   Andreas Hansen         : Spin unrestricted coupled pair/coupled cluster methods
   Ingolf Harden          : AUTO-CI MPn and infrastructure 
   Benjamin Helmich-Paris : MC-RPA, TRAH-(SCF,CASSCF), AVAS, COSX integrals, SCF dyn. polar.
   Lee Huntington         : MR-EOM, pCC
   Robert Izsak           : Overlap fitted RIJCOSX, COSX-SCS-MP3, EOM
   Riya Kayal             : Wick's Theorem for AUTO-CI, AUTO-CI UHF-CCSDT
   Emily Kempfer          : AUTO-CI, RHF CISDT and CCSDT
   Christian Kollmar      : KDIIS, OOCD, Brueckner-CCSD(T), CCSD density, CASPT2, CASPT2-K, improved NEVPT2
   Axel Koslowski         : Symmetry handling
   Simone Kossmann        : Meta GGA functionals, TD-DFT gradient, OOMP2, (MP2 Hessian; deprecated post 5.0)
   Lucas Lang             : DCDCAS
   Marvin Lechner         : AUTO-CI (C++ implementation), FIC-MRCC
   Spencer Leger          : CASSCF response
   Dagmar Lenk            : GEPOL surface, SMD, ORCA-2-JSON
   Dimitrios Liakos       : Extrapolation schemes; Compound Job, initial MDCI parallelization
   Dimitrios Manganas     : Further ROCIS development; embedding schemes. LFT, Crystal Embedding
   Dimitrios Pantazis     : SARC Basis sets
   Anastasios Papadopoulos: AUTO-CI, single reference methods and gradients
   Taras Petrenko         : pre 6.0 DFT Hessian and TD-DFT gradient, (ASA, deprecated), ECA, 1-Electron XAS/XES, NRVS
   Peter Pinski           : DLPNO-MP2, DLPNO-MP2 Gradient
   Christoph Reimann      : Effective Core Potentials
   Marius Retegan         : Local ZFS, SOC
   Christoph Riplinger    : Optimizer, TS searches, QM/MM, DLPNO-CCSD(T), (RO)-DLPNO pert. Triples
   Michael Roemelt        : Original ROCIS implementation
   Masaaki Saitow         : Open-shell DLPNO-CCSD energy and density
   Barbara Sandhoefer     : DKH picture change effects
   Kantharuban Sivalingam : CASSCF convergence/infrastructure, NEVPT2 and variants, FIC-MRCI
   Bernardo de Souza      : ESD, SOC TD-DFT
   Georgi Stoychev        : AutoAux, RI-MP2 NMR, DLPNO-MP2 response, X2C
   Van Anh Tran           : RI-MP2 g-tensors
   Willem Van den Heuvel  : Paramagnetic NMR
   Zikuan Wang            : NOTCH, Electric field optimization 
   Frank Wennmohs         : Technical directorship and infrastructure
   Hang Xu                : AUTO-CI-Response properties 


 We gratefully acknowledge several colleagues who have allowed us to
 interface, adapt or use parts of their codes:
   Stefan Grimme, W. Hujo, H. Kruse, P. Pracht,  : VdW corrections, initial TS optimization,
                  C. Bannwarth, S. Ehlert,         DFT functionals, gCP, sTDA/sTD-DF
                  L. Wittmann, M. Mueller
   Ed Valeev, F. Pavosevic, A. Kumar             : LibInt (2-el integral package), F12 methods
   Garnet Chan, S. Sharma, J. Yang, R. Olivares  : DMRG
   Ulf Ekstrom                                   : XCFun DFT Library
   Mihaly Kallay                                 : mrcc  (arbitrary order and MRCC methods)
   Frank Weinhold                                : gennbo (NPA and NBO analysis)
   Simon Mueller                                 : openCOSMO-RS
   Christopher J. Cramer and Donald G. Truhlar   : smd solvation model
   Lars Goerigk                                  : TD-DFT with DH, B97 family of functionals
   V. Asgeirsson, H. Jonsson                     : NEB implementation
   FAccTs GmbH                                   : IRC, NEB, NEB-TS, DLPNO-Multilevel, CI-OPT
                                                   MM, QMMM, 2- and 3-layer-ONIOM, Crystal-QMMM,
                                                   LR-CPCM, SF, NACMEs, symmetry and pop. for TD-DFT,
                                                   nearIR, NL-DFT gradient (VV10), updates on ESD,
                                                   ML-optimized integration grids, MBIS, APM,
                                                   GOAT, DOCKER, SOLVATOR, interface openCOSMO-RS
   S Lehtola, MJT Oliveira, MAL Marques          : LibXC Library
   Liviu Ungur et al                             : ANISO software


 Your calculation uses the libint2 library for the computation of 2-el integrals
 For citations please refer to: http://libint.valeyev.net

 Your ORCA version has been built with support for libXC version: 6.2.2
 For citations please refer to: https://libxc.gitlab.io

 This ORCA versions uses:
   CBLAS   interface :  Fast vector & matrix operations
   LAPACKE interface :  Fast linear algebra routines
   SCALAPACK package :  Parallel linear algebra routines
   Shared memory     :  Shared parallel matrices
   BLAS/LAPACK       :  OpenBLAS 0.3.27  USE64BITINT DYNAMIC_ARCH NO_AFFINITY SkylakeX SINGLE_THREADED
        Core in use  :  SkylakeX
   Copyright (c) 2011-2014, The OpenBLAS Project




***************************************
The coordinates will be read from file: xtb_opt.xyz
***************************************


Your calculation utilizes the geometrical counterpoise correction gCP
Please cite in your paper:
H.Kruse, S. Grimme J.Chem.Phys., 136, (2012), 154101 
   

Your calculation utilizes the atom-pairwise dispersion correction
based on EEQ partial charges (D4)


Your calculation utilizes the SMD solvation module
Please cite in your paper:
A.V. Marenich, C.J. Cramer, D.G. Truhlar J. Phys. Chem. B, 113, (2009), 6378 

================================================================================

----- Orbital basis set information -----
Your calculation utilizes the basis: def2-mTZVPP
   Stefan Grimme, Andreas Hansen, Sebastian Ehlert, and Jan-Michael Mewes 
   J. Chem. Phys. 154, 064103 (2021). DOI: 10.1063/5.0040021

----- AuxJ basis set information -----
Your calculation utilizes the auxiliary basis: def2/J
   F. Weigend, Phys. Chem. Chem. Phys. 8, 1057 (2006).

================================================================================
                                        WARNINGS
                       Please study these warnings very carefully!
================================================================================

WARNING: Old DensityContainer found on disk!
         Will remove this file - 
         If you want to keep old densities, please start your calculation with a different basename. 

Using LibXC functional ID 497 : Re-regularized SCAN exchange by Furness et al
[ 1]  J. W. Furness, A. D. Kaplan, J. Ning, J. P. Perdew, and J. Sun.,  J. Phys. Chem. Lett. 11, 8208-8215 (2020)
[ 2]  J. W. Furness, A. D. Kaplan, J. Ning, J. P. Perdew, and J. Sun.,  J. Phys. Chem. Lett. 11, 9248-9248 (2020)
Using LibXC functional ID 498 : Re-regularized SCAN correlation by Furness et al
[ 1]  J. W. Furness, A. D. Kaplan, J. Ning, J. P. Perdew, and J. Sun.,  J. Phys. Chem. Lett. 11, 8208-8215 (2020)
[ 2]  J. W. Furness, A. D. Kaplan, J. Ning, J. P. Perdew, and J. Sun.,  J. Phys. Chem. Lett. 11, 9248-9248 (2020)
Using LibXC functional ID 497 : Re-regularized SCAN exchange by Furness et al
[ 1]  J. W. Furness, A. D. Kaplan, J. Ning, J. P. Perdew, and J. Sun.,  J. Phys. Chem. Lett. 11, 8208-8215 (2020)
[ 2]  J. W. Furness, A. D. Kaplan, J. Ning, J. P. Perdew, and J. Sun.,  J. Phys. Chem. Lett. 11, 9248-9248 (2020)
Using LibXC functional ID 498 : Re-regularized SCAN correlation by Furness et al
[ 1]  J. W. Furness, A. D. Kaplan, J. Ning, J. P. Perdew, and J. Sun.,  J. Phys. Chem. Lett. 11, 8208-8215 (2020)
[ 2]  J. W. Furness, A. D. Kaplan, J. Ning, J. P. Perdew, and J. Sun.,  J. Phys. Chem. Lett. 11, 9248-9248 (2020)

================================================================================
                                       INPUT FILE
================================================================================
NAME = xtb_opt.inp
|  1> ! r2scan-3c def2/J RI DEFGRID2 scfconv7 ENGRAD tightSCF miniprint
|  2> %cpcm
|  3>     smd true
|  4>     smdsolvent "water"
|  5> end
|  6> * xyzfile 0 1 xtb_opt.xyz
|  7> 
|  8>                          ****END OF INPUT****
================================================================================

                     *******************************
                     * Energy+Gradient Calculation *
                     *******************************

---------------------------------
CARTESIAN COORDINATES (ANGSTROEM)
---------------------------------
  C      2.395212   -0.028358   -0.182441
  O      1.156597    0.200410    0.476751
  C      0.044265   -0.141951   -0.338511
  C     -1.223504    0.172308    0.440687
  N     -2.395527   -0.134150   -0.379860
  H      3.186707    0.262889    0.510226
  H      2.476560    0.574079   -1.098174
  H      2.518481   -1.088161   -0.446926
  H      0.064448    0.432608   -1.277984
  H      0.076762   -1.214426   -0.595905
  H     -1.188810   -0.376983    1.396152
  H     -1.227646    1.240753    0.680095
  H     -3.232664    0.098292    0.141898
  H     -2.430167   -1.134290   -0.550281

----------------------------
CARTESIAN COORDINATES (A.U.)
----------------------------
  NO LB      ZA    FRAG     MASS         X           Y           Z
   0 C     6.0000    0    12.011    4.526295   -0.053588   -0.344764
   1 O     8.0000    0    15.999    2.185652    0.378719    0.900930
   2 C     6.0000    0    12.011    0.083649   -0.268248   -0.639693
   3 C     6.0000    0    12.011   -2.312088    0.325615    0.832778
   4 N     7.0000    0    14.007   -4.526889   -0.253507   -0.717831
   5 H     1.0000    0     1.008    6.022003    0.496788    0.964187
   6 H     1.0000    0     1.008    4.680020    1.084851   -2.075248
   7 H     1.0000    0     1.008    4.759240   -2.056326   -0.844567
   8 H     1.0000    0     1.008    0.121789    0.817511   -2.415039
   9 H     1.0000    0     1.008    0.145059   -2.294933   -1.126098
  10 H     1.0000    0     1.008   -2.246525   -0.712394    2.638345
  11 H     1.0000    0     1.008   -2.319915    2.344683    1.285193
  12 H     1.0000    0     1.008   -6.108850    0.185744    0.268149
  13 H     1.0000    0     1.008   -4.592350   -2.143497   -1.039879

------------------------------------------------------------------------------
                   ___                                                        
                  /   \      - P O W E R E D   B Y -                         
                 /     \                                                     
                 |  |  |   _    _      __       _____    __    __             
                 |  |  |  | |  | |    /  \     |  _  \  |  |  /  |          
                  \  \/   | |  | |   /    \    | | | |  |  | /  /          
                 / \  \   | |__| |  /  /\  \   | |_| |  |  |/  /          
                |  |  |   |  __  | /  /__\  \  |    /   |      \           
                |  |  |   | |  | | |   __   |  |    \   |  |\   \          
                \     /   | |  | | |  |  |  |  | |\  \  |  | \   \       
                 \___/    |_|  |_| |__|  |__|  |_| \__\ |__|  \__/        
                                                                              
                      - O R C A' S   B I G   F R I E N D -                    
                                      &                                       
                       - I N T E G R A L  F E E D E R -                       
                                                                              
 v1 FN, 2020, v2 2021, v3 2022-2024                                           
------------------------------------------------------------------------------


----------------------
SHARK INTEGRAL PACKAGE
----------------------

Number of atoms                             ...     14
Number of basis functions                   ...    150
Number of shells                            ...     74
Maximum angular momentum                    ...      2
Integral batch strategy                     ... SHARK/LIBINT Hybrid
RI-J (if used) integral strategy            ... SPLIT-RIJ (Revised 2003 algorithm where possible)
Printlevel                                  ...      1
Contraction scheme used                     ... SEGMENTED contraction
Prescreening option                         ... SCHWARTZ
   Thresh                                   ... 3.000e-11
   Tcut                                     ... 1.000e-12
   Tpresel                                  ... 1.000e-12 
Coulomb Range Separation                    ... NOT USED
Exchange Range Separation                   ... NOT USED
Multipole approximations                    ... NOT USED
Finite Nucleus Model                        ... NOT USED
CABS basis                                  ... NOT available
Auxiliary Coulomb fitting basis             ... AVAILABLE
   # of basis functions in Aux-J            ...    344
   # of shells in Aux-J                     ...    120
   Maximum angular momentum in Aux-J        ...      4
Auxiliary J/K fitting basis                 ... NOT available
Auxiliary Correlation fitting basis         ... NOT available
Auxiliary 'external' fitting basis          ... NOT available

Checking pre-screening integrals            ... done (  0.0 sec) Dimension = 74
Check shell pair data                       ... done (  0.0 sec)
Shell pair information
Shell pair cut-off parameter TPreSel        ...   1.0e-12
Total number of shell pairs                 ...      2775
Shell pairs after pre-screening             ...      2586
Total number of primitive shell pairs       ...      9590
Primitive shell pairs kept                  ...      6793
          la=0 lb=0:    870 shell pairs
          la=1 lb=0:    965 shell pairs
          la=1 lb=1:    280 shell pairs
          la=2 lb=0:    284 shell pairs
          la=2 lb=1:    160 shell pairs
          la=2 lb=2:     27 shell pairs

Calculating one electron integrals          ... done (  0.0 sec)
Calculating RI/J V-Matrix + Cholesky decomp.... done (  0.0 sec)
Calculating Nuclear repulsion               ... done (  0.0 sec) ENN=    189.122011635146 Eh

Diagonalization of the overlap matrix:
Smallest eigenvalue                        ... 2.934e-04
Time for diagonalization                   ...    0.002 sec
Threshold for overlap eigenvalues          ... 1.000e-07
Number of eigenvalues below threshold      ... 0
Time for construction of square roots      ...    0.015 sec
Total time needed                          ...    0.026 sec

-------------------
DFT GRID GENERATION
-------------------

General Integration Accuracy     IntAcc      ... 4.388
Radial Grid Type                 RadialGrid  ... OptM3 with GC (2021)
Angular Grid (max. ang.)         AngularGrid ... 4 (Lebedev-302)
Angular grid pruning method      GridPruning ... 4 (adaptive)
Weight generation scheme         WeightScheme... mBecke (2022)
Basis function cutoff            BFCut       ... 1.0000e-11
Integration weight cutoff        WCut        ... 1.0000e-14
Partially contracted basis set               ... off
Rotationally invariant grid construction     ... off
Angular grids for H and He will be reduced by one unit
Diffuse basis detected: some atoms will have their outermost
                        angular grid increased by 1.

Total number of grid points                  ...    59637
Total number of batches                      ...      940
Average number of points per batch           ...       63
Average number of grid points per atom       ...     4260
Initializing property integral containers    ... done (  0.0 sec)

SHARK setup successfully completed in   0.7 seconds

Maximum memory used throughout the entire STARTUP-calculation: 26.2 MB
Occupation numbers will be reassigned to an Aufbau configuration
             **** ENERGY FILE WAS UPDATED (xtb_opt.en.tmp) ****
Finished Guess after   0.3 sec
Maximum memory used throughout the entire GUESS-calculation: 10.1 MB
--------------------
CPCM SOLVATION MODEL
--------------------
CPCM parameters:
  Epsilon                                         ...      78.3550
  Refrac                                          ...       1.3328
  Rsolv                                           ...       1.3000
  Surface type                                    ... GAUSSIAN VDW
  Discretization scheme                           ... Constant charge density
    Threshold for H atoms                         ...       5.0000 (charges/Ang^2)
    Threshold for non-H atoms                     ...       5.0000 (charges/Ang^2)
  Epsilon function type                           ...         CPCM
Solvent:                                          ... WATER
SMD-CDS solvent descriptors:
  Soln                                            ...       1.3328
  Soln25                                          ...       1.3323
  Sola                                            ...       0.0000
  Solb                                            ...       0.0000
  Solg                                            ...       0.0000
  Solc                                            ...       0.0000
  Solh                                            ...       0.0000
Radii:
  Scheme                                          ... Element-dependent radii
  Radius for C  used is    3.4960 Bohr (=   1.8500 Ang.)
  Radius for O  used is    2.8724 Bohr (=   1.5200 Ang.)
  Radius for N  used is    3.5716 Bohr (=   1.8900 Ang.)
  Radius for H  used is    2.2677 Bohr (=   1.2000 Ang.)
Calculating surface                               ...        done! (  0.0s)
Cavity surface points                             ...         1062
Cavity Volume                                     ...     613.7082
Cavity Surface-area                               ...     424.2946
Calculating surface distance matrix               ...        done! (  0.0s)
Performing Cholesky decomposition & store         ...        done! (  0.0s)
Overall time for CPCM initialization              ...                 0.1s

----------------------------------------D-I-I-S--------------------------------------------
Iteration    Energy (Eh)           Delta-E    RMSDP     MaxDP     DIISErr   Damp  Time(sec)
-------------------------------------------------------------------------------------------
               ***  Starting incremental Fock matrix formation  ***
    1    -249.6402244751895125     0.00e+00  5.96e-05  1.30e-03  4.58e-03  0.700   2.1
    2    -249.6402916289513030    -6.72e-05  5.44e-05  1.11e-03  3.43e-03  0.700   1.5
                               ***Turning on AO-DIIS***
                              *** Initializing SOSCF ***
---------------------------------------S-O-S-C-F--------------------------------------
Iteration    Energy (Eh)           Delta-E    RMSDP     MaxDP     MaxGrad    Time(sec)
--------------------------------------------------------------------------------------
    3    -249.6403410227871689    -4.94e-05  1.45e-04  2.68e-03  2.45e-03     1.5
               *** Restarting incremental Fock matrix formation ***
    4    -249.6404558673080771    -1.15e-04  2.54e-05  6.23e-04  1.40e-04     1.7
    5    -249.6404554668693265     4.00e-07  1.22e-05  2.20e-04  1.82e-04     1.5
    6    -249.6404566135799712    -1.15e-06  3.13e-06  6.54e-05  2.16e-05     1.5
                  *** Gradient check signals convergence ***

               *****************************************************
               *                     SUCCESS                       *
               *           SCF CONVERGED AFTER   6 CYCLES          *
               *****************************************************


SMD CDS free energy correction energy :                 2.22179     Kcal/mol
Total Energy after SMD CDS correction =              -249.636915964 Eh
             **** ENERGY FILE WAS UPDATED (xtb_opt.en.tmp) ****

----------------
TOTAL SCF ENERGY
----------------

Total Energy       :       -249.63691596370001 Eh           -6792.96583 eV

Components:
Nuclear Repulsion  :        189.12201163514553 Eh            5146.27157 eV
Electronic Energy  :       -438.74668204952894 Eh          -11938.90418 eV
One Electron Energy:       -712.96877483268611 Eh          -19400.86668 eV
Two Electron Energy:        274.22209278315717 Eh            7461.96250 eV
CPCM Dielectric    :         -0.01578619919657 Eh              -0.42956 eV
SMD CDS (Gcds)     :          0.00354064987998 Eh               0.09635 eV

Virial components:
Potential Energy   :       -498.11484035719224 Eh          -13554.39390 eV
Kinetic Energy     :        248.47792439349223 Eh            6761.42807 eV
Virial Ratio       :          2.00466436434157

DFT components:
N(Alpha)           :       21.000029566316 electrons
N(Beta)            :       21.000029566316 electrons
N(Total)           :       42.000059132631 electrons
E(X)               :      -33.723883384802 Eh       
E(C)               :       -1.324899541728 Eh       
E(XC)              :      -35.048782926530 Eh       

CPCM Solvation Model Properties:
Surface-charge          :         -0.03665498651304
Corrected charge        :         -0.00000000000000
Outlying charge corr.   :          0.00011625367636 Eh               0.00316 eV
Free-energy (cav+disp)  :          0.00354064987998 Eh               0.09635 eV

---------------
SCF CONVERGENCE
---------------

  Last Energy change         ...    1.1467e-06  Tolerance :   1.0000e-07
  Last MAX-Density change    ...    6.5354e-05  Tolerance :   1.0000e-07
  Last RMS-Density change    ...    3.1337e-06  Tolerance :   5.0000e-09
  Last DIIS Error            ...    2.4471e-03  Tolerance :   1.0000e-07
  Last Orbital Gradient      ...    2.1613e-05  Tolerance :   1.0000e-04
  Last Orbital Rotation      ...    2.7935e-05  Tolerance :   1.0000e-04


----------------
ORBITAL ENERGIES
----------------

  NO   OCC          E(Eh)            E(eV) 
   0   2.0000     -18.958568      -515.8889 
   1   2.0000     -14.135934      -384.6583 
   2   2.0000     -10.069171      -273.9961 
   3   2.0000     -10.064624      -273.8724 
   4   2.0000     -10.047448      -273.4050 
   5   2.0000      -0.997482       -27.1429 
   6   2.0000      -0.843831       -22.9618 
   7   2.0000      -0.701651       -19.0929 
   8   2.0000      -0.621705       -16.9175 
   9   2.0000      -0.562264       -15.3000 
  10   2.0000      -0.462497       -12.5852 
  11   2.0000      -0.454353       -12.3636 
  12   2.0000      -0.432844       -11.7783 
  13   2.0000      -0.406154       -11.0520 
  14   2.0000      -0.394118       -10.7245 
  15   2.0000      -0.369333       -10.0501 
  16   2.0000      -0.327335        -8.9072 
  17   2.0000      -0.314702        -8.5635 
  18   2.0000      -0.291908        -7.9432 
  19   2.0000      -0.227237        -6.1834 
  20   2.0000      -0.212052        -5.7702 
  21   0.0000       0.061260         1.6670 
  22   0.0000       0.092929         2.5287 
  23   0.0000       0.122876         3.3436 
  24   0.0000       0.140604         3.8260 
  25   0.0000       0.149722         4.0741 
  26   0.0000       0.157170         4.2768 
  27   0.0000       0.158620         4.3163 
  28   0.0000       0.181023         4.9259 
  29   0.0000       0.189161         5.1473 
  30   0.0000       0.197911         5.3854 
  31   0.0000       0.203388         5.5345 
*Only the first 10 virtual orbitals were printed.
Total SCF time: 0 days 0 hours 0 min 10 sec 
Finished LeanSCF after  10.3 sec

Maximum memory used throughout the entire LEANSCF-calculation: 16.9 MB


-------------------------------------------------------------------------------
                          DFT DISPERSION CORRECTION                            
                                                                               
                                DFTD4 V3.4.0                                   
-------------------------------------------------------------------------------
-------------------------   ----------------
Dispersion correction           -0.002644820
-------------------------   ----------------

------------------   -----------------
gCP correction             0.012389901
------------------   -----------------

-------------------------   --------------------
FINAL SINGLE POINT ENERGY      -249.627170881902
-------------------------   --------------------

------------------------------------------------------------------------------
                         ORCA SCF GRADIENT CALCULATION
------------------------------------------------------------------------------

Nuc. rep. gradient        (SHARK) ... done (  0.0 sec)
HCore & Overlap gradient  (SHARK) ... done (  0.1 sec)
Split-RIJ-J gradient      (SHARK) ... done (  0.7 sec)
XC gradient                       ... done (  3.2 sec)
CPCM gradient                     ... done (  0.4 sec)
SMD gradient                      ... done (  0.0 sec)
Dispersion correction             ... done (  0.0 sec)

-------------------
DISPERSION GRADIENT
-------------------

   1   C   :    0.000055995   -0.000004237   -0.000014047
   2   O   :    0.000039312    0.000003940    0.000006735
   3   C   :    0.000012520   -0.000004227   -0.000011040
   4   C   :   -0.000037586    0.000005864    0.000019077
   5   N   :   -0.000071316   -0.000012751   -0.000002978
   6   H   :    0.000023399    0.000001664    0.000003027
   7   H   :    0.000025166    0.000002511   -0.000002496
   8   H   :    0.000025446   -0.000002432   -0.000000452
   9   H   :    0.000001013    0.000004407   -0.000005956
  10   H   :    0.000001283   -0.000005866   -0.000001914
  11   H   :   -0.000018317   -0.000000240    0.000010218
  12   H   :   -0.000018909    0.000008416    0.000005576
  13   H   :   -0.000016622    0.000000185   -0.000003038
  14   H   :   -0.000021384    0.000002765   -0.000002711

Difference to translation invariance:
           :   -0.0000000000   -0.0000000000    0.0000000000

Difference to rotation invariance:
           :   -0.0000000000    0.0000000000    0.0000000000

Norm of the Dispersion gradient    ...    0.0001262291
RMS gradient                       ...    0.0000194776
MAX gradient                       ...    0.0000713155
gCP correction                   ... done

------------------
CARTESIAN GRADIENT
------------------

   1   C   :   -0.001440937    0.000605711    0.001316287
   2   O   :   -0.000697438   -0.001454591   -0.003559452
   3   C   :    0.005167972    0.000440357    0.000851258
   4   C   :   -0.005150084    0.000463704   -0.000888576
   5   N   :    0.001812887   -0.001040769    0.004162275
   6   H   :   -0.001060177   -0.000048158   -0.000163560
   7   H   :    0.000109862   -0.000395012    0.000304453
   8   H   :    0.000167087    0.000505430   -0.000127484
   9   H   :   -0.000474606   -0.000284286    0.000130660
  10   H   :   -0.000286778    0.000040741    0.000200953
  11   H   :    0.000441485   -0.000121941    0.000287442
  12   H   :    0.000327075   -0.000480432   -0.000331302
  13   H   :    0.000499752    0.001122987   -0.000636989
  14   H   :    0.000583901    0.000646260   -0.001545963

Difference to translation invariance:
[...]
One Electron Energy:       -712.33009481642455 Eh          -19383.48732 eV
Two Electron Energy:        273.91012466593810 Eh            7453.47342 eV
CPCM Dielectric    :         -0.01614083893878 Eh              -0.43921 eV
SMD CDS (Gcds)     :          0.00347199330286 Eh               0.09448 eV

Virial components:
Potential Energy   :       -498.08687765635739 Eh          -13553.63299 eV
Kinetic Energy     :        248.44971149755349 Eh            6760.66036 eV
Virial Ratio       :          2.00477945679266

DFT components:
N(Alpha)           :       21.000019970974 electrons
N(Beta)            :       21.000019970974 electrons
N(Total)           :       42.000039941949 electrons
E(X)               :      -33.715545022069 Eh       
E(C)               :       -1.324349350025 Eh       
E(XC)              :      -35.039894372094 Eh       

CPCM Solvation Model Properties:
Surface-charge          :         -0.03662391461736
Corrected charge        :         -0.00000000000000
Outlying charge corr.   :          0.00011601230481 Eh               0.00316 eV
Free-energy (cav+disp)  :          0.00347199330286 Eh               0.09448 eV

---------------
SCF CONVERGENCE
---------------

  Last Energy change         ...    7.7320e-09  Tolerance :   1.0000e-07
  Last MAX-Density change    ...    5.5987e-05  Tolerance :   1.0000e-07
  Last RMS-Density change    ...    2.0799e-06  Tolerance :   5.0000e-09
  Last DIIS Error            ...    5.5085e-05  Tolerance :   1.0000e-07
  Last Orbital Gradient      ...    1.7406e-05  Tolerance :   1.0000e-04
  Last Orbital Rotation      ...    2.0990e-05  Tolerance :   1.0000e-04


----------------
ORBITAL ENERGIES
----------------

  NO   OCC          E(Eh)            E(eV) 
   0   2.0000     -18.958637      -515.8907 
   1   2.0000     -14.137174      -384.6921 
   2   2.0000     -10.069247      -273.9981 
   3   2.0000     -10.064864      -273.8789 
   4   2.0000     -10.047838      -273.4156 
   5   2.0000      -0.994457       -27.0606 
   6   2.0000      -0.842942       -22.9376 
   7   2.0000      -0.701060       -19.0768 
   8   2.0000      -0.622039       -16.9265 
   9   2.0000      -0.561929       -15.2909 
  10   2.0000      -0.460915       -12.5421 
  11   2.0000      -0.453768       -12.3477 
  12   2.0000      -0.430753       -11.7214 
  13   2.0000      -0.405595       -11.0368 
  14   2.0000      -0.391746       -10.6599 
  15   2.0000      -0.368654       -10.0316 
  16   2.0000      -0.327888        -8.9223 
  17   2.0000      -0.313849        -8.5403 
  18   2.0000      -0.293230        -7.9792 
  19   2.0000      -0.227319        -6.1857 
  20   2.0000      -0.215303        -5.8587 
  21   0.0000       0.059800         1.6272 
  22   0.0000       0.091967         2.5025 
  23   0.0000       0.122144         3.3237 
  24   0.0000       0.141277         3.8443 
  25   0.0000       0.148750         4.0477 
  26   0.0000       0.156168         4.2495 
  27   0.0000       0.157218         4.2781 
  28   0.0000       0.180337         4.9072 
  29   0.0000       0.188633         5.1330 
  30   0.0000       0.197554         5.3757 
  31   0.0000       0.202538         5.5113 
*Only the first 10 virtual orbitals were printed.
Total SCF time: 0 days 0 hours 0 min 3 sec 
Finished LeanSCF after   4.0 sec

Maximum memory used throughout the entire LEANSCF-calculation: 17.0 MB


-------------------------------------------------------------------------------
                          DFT DISPERSION CORRECTION                            
                                                                               
                                DFTD4 V3.4.0                                   
-------------------------------------------------------------------------------
-------------------------   ----------------
Dispersion correction           -0.002643615
-------------------------   ----------------

------------------   -----------------
gCP correction             0.012375384
------------------   -----------------

-------------------------   --------------------
FINAL SINGLE POINT ENERGY      -249.627434389065
-------------------------   --------------------

------------------------------------------------------------------------------
                         ORCA SCF GRADIENT CALCULATION
------------------------------------------------------------------------------

Nuc. rep. gradient        (SHARK) ... done (  0.0 sec)
HCore & Overlap gradient  (SHARK) ... done (  0.1 sec)
Split-RIJ-J gradient      (SHARK) ... done (  0.7 sec)
XC gradient                       ... done (  3.0 sec)
CPCM gradient                     ... done (  0.4 sec)
SMD gradient                      ... done (  0.0 sec)
Dispersion correction             ... done (  0.0 sec)

-------------------
DISPERSION GRADIENT
-------------------

   1   C   :    0.000055377   -0.000004603   -0.000013898
   2   O   :    0.000039454    0.000004155    0.000006464
   3   C   :    0.000013446   -0.000003221   -0.000011032
   4   C   :   -0.000038208    0.000006596    0.000018891
   5   N   :   -0.000071118   -0.000013973   -0.000001921
   6   H   :    0.000023156    0.000001230    0.000003078
   7   H   :    0.000024952    0.000002138   -0.000002238
   8   H   :    0.000025762   -0.000002722   -0.000000396
   9   H   :    0.000001333    0.000005183   -0.000006074
  10   H   :    0.000001194   -0.000005068   -0.000002141
  11   H   :   -0.000018329   -0.000000101    0.000010185
  12   H   :   -0.000018796    0.000008531    0.000005402
  13   H   :   -0.000016607   -0.000000309   -0.000003187
  14   H   :   -0.000021616    0.000002164   -0.000003136

Difference to translation invariance:
           :    0.0000000000    0.0000000000    0.0000000000

Difference to rotation invariance:
           :   -0.0000000000    0.0000000000   -0.0000000000

Norm of the Dispersion gradient    ...    0.0001262419
RMS gradient                       ...    0.0000194796
MAX gradient                       ...    0.0000711182
gCP correction                   ... done

------------------
CARTESIAN GRADIENT
------------------

   1   C   :   -0.000126927    0.000016261    0.000111745
   2   O   :   -0.000008614   -0.000041658   -0.000109158
   3   C   :    0.000101656    0.000005876   -0.000084350
   4   C   :    0.000033255    0.000054933    0.000223080
   5   N   :   -0.000047884   -0.000123871   -0.000065409
   6   H   :    0.000007504   -0.000008273   -0.000030709
   7   H   :   -0.000009424    0.000016809   -0.000026420
   8   H   :   -0.000001311   -0.000021406    0.000004277
   9   H   :    0.000030577    0.000020241    0.000005932
  10   H   :    0.000030649    0.000022366    0.000005954
  11   H   :   -0.000056093   -0.000013707   -0.000001178
  12   H   :   -0.000038689   -0.000031483    0.000017156
  13   H   :    0.000058094    0.000035861   -0.000005624
  14   H   :    0.000027208    0.000068053   -0.000045295

Difference to translation invariance:
           :    0.0000000000    0.0000000000    0.0000000000

Difference to rotation invariance:
           :    0.0002863689   -0.0002111942    0.0000604663

Norm of the Cartesian gradient     ...    0.0003994717
RMS gradient                       ...    0.0000616398
MAX gradient                       ...    0.0002230798

-------
TIMINGS
-------

Total SCF gradient time     ....        4.507 sec

Densities                   ....       0.000 sec  (  0.0%)
One electron gradient       ....       0.108 sec  (  2.4%)
RI-J Coulomb gradient       ....       0.652 sec  ( 14.5%)
XC gradient                 ....       2.986 sec  ( 66.2%)
CPCM gradient               ....       0.384 sec  (  8.5%)
   A-Matrix (El+Nuc)        ....       0.039 sec  (  0.9%)
   Potential                ....       0.345 sec  (  7.6%)
SMD gradient                ....       0.012 sec  (  0.3%)

Maximum memory used throughout the entire SCFGRAD-calculation: 30.2 MB

------------------------------------------------------------------------------
                              ORCA PROPERTY CALCULATIONS
------------------------------------------------------------------------------

GBWName                                 ... xtb_opt.gbw
Number of atoms                         ...     14
Number of basis functions               ...    150
Max core memory                         ...   1024 MB

Electric properties:
Dipole moment                           ... YES
Quadrupole moment                       ...  NO
Static polarizability (Dipole/Dipole)   ...  NO
Static polarizability (Dipole/Quad.)    ...  NO
Static polarizability (Quad./Quad.)     ...  NO
Static polarizability (Velocity)        ...  NO

Atomic electric properties:
Dipole moment                           ...  NO
Quadrupole moment                       ...  NO
Static polarizability                   ...  NO

Choice of electric origin               ... Center of mass
Position of electric origin             ...    -0.001841     0.004704    -0.000618

General magnetic properties:
Magnetizability                         ...  NO

EPR properties:
g-Tensor (aka g-matrix)                 ...  NO
Zero-Field splitting spin-orbit         ...  NO
Zero-field splitting spin-spin          ...  NO
Hyperfine couplings                     ...  NO (   0 nuclei)
Quadrupole couplings                    ...  NO (   0 nuclei)
Contact density                         ...  NO (   0 nuclei)

NMR properties:
Chemical shifts                         ...  NO (   0 nuclei)
Spin-rotation constants                 ...  NO (   0 nuclei)
Spin-spin couplings                     ...  NO (   0 nuclei,    0 pairs)

Choice of magnetic origin               ... GIAO
Position of magnetic origin             ...     0.000000     0.000000     0.000000

Properties with geometric perturbations:
SCF Hessian                             ...  NO
IR spectrum                             ...  NO
VCD spectrum                            ...  NO
X-ray spectroscopy properties:
SCF XES/XAS/RIXS spectra                ...  NO


-------------
DIPOLE MOMENT
-------------

Method             : SCF
Type of density    : Electron Density
Multiplicity       :   1
Irrep              :   0
Energy             :  -249.6371661588038933 Eh
Relativity type    : 
Basis              : AO
                                X                 Y                 Z
Electronic contribution:     -0.291481085       0.538161215       1.090934970
Nuclear contribution   :      0.232491493      -1.156464643      -1.144614233
                        -----------------------------------------
Total Dipole Moment    :     -0.058989592      -0.618303427      -0.053679263
                        -----------------------------------------
Magnitude (a.u.)       :      0.623426310
Magnitude (Debye)      :      1.584623747



--------------------
Rotational spectrum 
--------------------
 
Rotational constants in cm-1:             0.701932             0.071101             0.067447 
Rotational constants in MHz :         21043.399757          2131.559698          2022.014530 

Dipole components along the rotational axes: 
x,y,z [a.u.] :     0.078445     0.306935     0.536933 
x,y,z [Debye]:     0.199392     0.780168     1.364776 

 

Dipole moment calculation done in   0.0 sec 

Maximum memory used throughout the entire PROP-calculation: 8.4 MB

--------------------------------
SUGGESTED CITATIONS FOR THIS RUN
--------------------------------

Below you find a list of papers that are relevant to this ORCA run
We neither can nor want to force you to cite these papers, but we appreciate if you do
You receive ORCA, which is the product of decades of hard work by many enthusiastic individuals, for free
The only thing we kindly ask in return is that you cite our papers,
We deeply appreciate it, if you show your appreciation for ORCA by not just citing the generic ORCA reference.

Please note that relegating all ORCA citations to the supporting information does *not* help us.
SI sections are not indexed - citations you put there will not count into any citation statistics
But we need these citations in order to attract the funding resources that allow us to do what we are doing

Therefore, if you are a happy ORCA user, please consider citing a few of the papers listed below in the main body of your paper

In addition to the list printed below, the program has created the file xtb_opt.bibtex that contains the list in bibtex format
You can import this file easily into all common literature databanks and citation aid programs


List of essential papers. We consider these as the minimum necessary citations

  1. Neese,F.
     Software update: the ORCA program system, version 5.0
     WIRES Comput. Molec. Sci., 2022 12(1)e1606
     doi.org/10.1002/wcms.1606
  2. Grimme,S.; Hansen,A.; Ehlert,S.; Mewes,J.
     r2SCAN-3c: A 'Swiss army knife' composite electronic-structure method
     J. Chem. Phys., 2021 154 064103
     doi.org/10.1063/5.0040021

List of papers to cite with high priority. The work reported in these papers was absolutely
necessary for this run to complete.
Our perspective: the developers of density functionals and basis sets usually get cited in chemistry papers
Good! But without the algorithms to do something with them, the functionals or basis sets would not do anything.
Hence, in our opinion, the algorithm design and method developments papers are equally worthy of getting cited

  1. Neese,F.
     An improvement of the resolution of the identity approximation for the formation of the Coulomb matrix
     J. Comp. Chem., 2003 24(14)1740-1747
     doi.org/10.1002/jcc.10318
  2. Garcia-Rates,M.; Neese,F.
     Effect of the Solute Cavity on the Solvation Energy and its Derivatives within the Framework of the Gaussian Charge Scheme
     J. Comput. Chem., 2020 41 922-939
     doi.org/10.1002/jcc.26139
  3. Neese,F.
     The SHARK Integral Generation and Digestion System
     J. Comp. Chem., 2022  1-16
     doi.org/10.1002/jcc.26942
  4. Lehtola,S.; Steigemann,C.; Oliveira,M.; Marques,M.
     Recent developments in Libxc - A comprehensive library of functionals for density functional theory
     Software X, 2018 7 
     doi.org/10.1016/j.softx.2017.11.002
  5. Caldeweyher,E.; Bannwarth,C.; Grimme,S.
     Extension of the D3 dispersion coefficient model
     J. Chem. Phys., 2017 147 034112-XXXX
     doi.org/10.1063/1.4993215
  6. Caldeweyher,E.; Ehlert,S.; Hansen,A.; Neugebauer,H.; Spicher,S.; Bannwarth,C.; Grimme,S.
     A generally applicable atomic-charge dependent London dispersion correction
     J. Chem. Phys., 2019 150 154122-XXXX
     doi.org/10.1063/1.5090222
  7. Caldeweyher,E.; Mewes,J.; Ehlert,S.; Grimme,S.
     Extension and evaluation of the D4 London-dispersion model for periodic systems
     Phys. Chem. Chem. Phys., 2020 22(16)8499-8512
     doi.org/10.1039/D0CP00502A

List of suggested additional citations. These are papers that are important in the 'surrounding' of 
of this run, or papers that preceded the highly important papers. If you like your results we are grateful for a citation.

  1. Neese,F.
     The ORCA program system
     WIRES Comput. Molec. Sci., 2012 2(1)73-78
     doi.org/10.1002/wcms.81
  2. Neese,F.
     Software update: the ORCA program system, version 4.0
     WIRES Comput. Molec. Sci., 2018 8(1)1-6
     doi.org/10.1002/wcms.1327
  3. Neese,F.; Wennmohs,F.; Becker,U.; Riplinger,C.
     The ORCA quantum chemistry program package
     J. Chem. Phys., 2020 152 Art. No. L224108
     doi.org/10.1063/5.0004608

List of optional additional citations

  1. Neese,F.
     Approximate second-order SCF convergence for spin unrestricted wavefunctions
     Chem. Phys. Lett., 2000 325(1-3)93-98
     doi.org/10.1016/s0009-2614(00)00662-x

Timings for individual modules:

Sum of individual times          ...        9.836 sec (=   0.164 min)
Startup calculation              ...        0.824 sec (=   0.014 min)   8.4 %
SCF iterations                   ...        4.313 sec (=   0.072 min)  43.8 %
Property calculations            ...        0.107 sec (=   0.002 min)   1.1 %
SCF Gradient evaluation          ...        4.592 sec (=   0.077 min)  46.7 %
                             ****ORCA TERMINATED NORMALLY****
TOTAL RUN TIME: 0 days 0 hours 0 minutes 10 seconds 598 msec
  ------------------------------------------------------------------------
          * successful ORCA run, taking over control again...

         :::::::::::::::::::::::::::::::::::::::::::::::::::::
         ::                  ORCA SUMMARY                   ::
         :::::::::::::::::::::::::::::::::::::::::::::::::::::
         :: total energy            -249.627434389065 Eh    ::
         :: gradient norm              0.000399471700 Eh/a0 ::
         :: HOMO-LUMO gap              0.000000000000 eV    ::
         :::::::::::::::::::::::::::::::::::::::::::::::::::::

           -------------------------------------------------
          |                Property Printout                |
           -------------------------------------------------
           -------------------------------------------------
          |                Geometry Summary                 |
           -------------------------------------------------

      molecular mass/u    :       75.1097826
   center of mass at/Å    :       -0.0009627       0.0024918      -0.0003216
  moments of inertia/u·Å² :        0.2401524E+02   0.2370880E+03   0.2499326E+03
rotational constants/cm⁻¹ :        0.7019557E+00   0.7110286E-01   0.6744870E-01

 * 13 selected distances

     #   Z          #   Z                                           value/Å
     1   6 C        2   8 O                                       1.4265278
     2   8 O        3   6 C                                       1.4291364
     3   6 C        4   6 C                                       1.5155315 (max)
     4   6 C        5   7 N                                       1.4734095
     1   6 C        6   1 H                                       1.0926596
     1   6 C        7   1 H                                       1.0996531
     1   6 C        8   1 H                                       1.0996730
     3   6 C        9   1 H                                       1.1014374
     3   6 C       10   1 H                                       1.1031354
     4   6 C       11   1 H                                       1.1012928
     4   6 C       12   1 H                                       1.0953627
     5   7 N       13   1 H                                       1.0150045 (min)
     5   7 N       14   1 H                                       1.0164483

 * 5 distinct bonds (by element types)

   Z      Z             #   av. dist./Å        max./Å        min./Å
   1 H    6 C           7     1.0990306     1.1031354     1.0926596
   6 C    6 C           1     1.5155315     1.5155315     1.5155315
   1 H    7 N           2     1.0157264     1.0164483     1.0150045
   6 C    7 N           1     1.4734095     1.4734095     1.4734095
   6 C    8 O           2     1.4278321     1.4291364     1.4265278


optimized geometry written to: xtbopt.coord


           -------------------------------------------------
          | TOTAL ENERGY             -249.627434389065 Eh   |
          | GRADIENT NORM               0.000399471700 Eh/α |
           -------------------------------------------------

------------------------------------------------------------------------
 * finished run on 2025/04/11 at 12:00:22.838     
------------------------------------------------------------------------
 total:
 * wall-time:     0 d,  0 h,  2 min, 10.458 sec
 *  cpu-time:     0 d,  0 h,  0 min,  1.248 sec
 * ratio c/w:     0.010 speedup
 SCF:
 * wall-time:     0 d,  0 h,  0 min, 11.888 sec
 *  cpu-time:     0 d,  0 h,  0 min,  0.371 sec
 * ratio c/w:     0.031 speedup
 ANC optimizer:
 * wall-time:     0 d,  0 h,  1 min, 58.517 sec
 *  cpu-time:     0 d,  0 h,  0 min,  0.852 sec
 * ratio c/w:     0.007 speedup

