      -----------------------------------------------------------      
     |                   =====================                   |     
     |                           x T B                           |     
     |                   =====================                   |     
     |                         S. Grimme                         |     
     |          Mulliken Center for Theoretical Chemistry        |     
     |                    University of Bonn                     |     
      -----------------------------------------------------------      

   * xtb version 6.7.1 (edcfbbe) compiled by 'albert@albert-system' on 2024-07-22

   xtb is free software: you can redistribute it and/or modify it under
   the terms of the GNU Lesser General Public License as published by
   the Free Software Foundation, either version 3 of the License, or
   (at your option) any later version.
   
   xtb is distributed in the hope that it will be useful,
   but WITHOUT ANY WARRANTY; without even the implied warranty of
   MERCHANTABILITY or FITNESS FOR A PARTICULAR PURPOSE.  See the
   GNU Lesser General Public License for more details.
   
   Cite this work as:
   * C. Bannwarth, E. Caldeweyher, S. Ehlert, A. Hansen, P. Pracht,
     J. Seibert, S. Spicher, S. Grimme, WIREs Comput. Mol. Sci., 2020, 11,
     e01493. DOI: 10.1002/wcms.1493
   
   for GFN2-xTB:
   * C. Bannwarth, S. Ehlert and S. Grimme., J. Chem. Theory Comput., 2019,
     15, 1652-1671. DOI: 10.1021/acs.jctc.8b01176
   for GFN1-xTB:
   * S. Grimme, C. Bannwarth, P. Shushkov, J. Chem. Theory Comput., 2017,
     13, 1989-2009. DOI: 10.1021/acs.jctc.7b00118
   for GFN0-xTB:
   * P. Pracht, E. Caldeweyher, S. Ehlert, S. Grimme, ChemRxiv, 2019, preprint.
     DOI: 10.26434/chemrxiv.8326202.v1
   for GFN-FF:
   * S. Spicher and S. Grimme, Angew. Chem. Int. Ed., 2020, 59, 15665-15673.
     DOI: 10.1002/anie.202004239
   
   for ALPB and GBSA implicit solvation:
   * S. Ehlert, M. Stahn, S. Spicher, S. Grimme, J. Chem. Theory Comput.,
     2021, 17, 4250-4261. DOI: 10.1021/acs.jctc.1c00471
   
   for ddCOSMO and CPCM-X implicit solvation:
   * M. Stahn, S. Ehlert, S. Grimme, J. Phys. Chem. A,
     2023, XX, XXXX-XXXX. DOI: 10.1021/acs.jpca.3c04382
   
   for DFT-D4:
   * E. Caldeweyher, C. Bannwarth and S. Grimme, J. Chem. Phys., 2017,
     147, 034112. DOI: 10.1063/1.4993215
   * E. Caldeweyher, S. Ehlert, A. Hansen, H. Neugebauer, S. Spicher,
     C. Bannwarth and S. Grimme, J. Chem. Phys., 2019, 150, 154122.
     DOI: 10.1063/1.5090222
   * E. Caldeweyher, J.-M. Mewes, S. Ehlert and S. Grimme, Phys. Chem. Chem. Phys.
     2020, 22, 8499-8512. DOI: 10.1039/D0CP00502A
   
   for sTDA-xTB:
   * S. Grimme and C. Bannwarth, J. Chem. Phys., 2016, 145, 054103.
     DOI: 10.1063/1.4959605
   
   in the mass-spec context:
   * V. Asgeirsson, C. Bauer and S. Grimme, Chem. Sci., 2017, 8, 4879.
     DOI: 10.1039/c7sc00601b
   * J. Koopman and S. Grimme, ACS Omega 2019, 4, 12, 15120-15133.
     DOI: 10.1021/acsomega.9b02011
   
   for metadynamics refer to:
   * S. Grimme, J. Chem. Theory Comput., 2019, 155, 2847-2862
     DOI: 10.1021/acs.jctc.9b00143
   
   for SPH calculations refer to:
   * S. Spicher and S. Grimme, J. Chem. Theory Comput., 2021, 17, 1701-1714
     DOI: 10.1021/acs.jctc.0c01306
   
   for ONIOM refer to:
   * C. Plett, A. Katbashev, S. Ehlert, S. Grimme, M. Bursch,
     Phys. Chem. Chem. Phys., 2023, 25, 17860-17868. DOI: 10.1039/D3CP02178E
   
   for DIPRO refer to:
   * J. Kohn, N. Gildemeister, S. Grimme, D. Fazzi, A. Hansen,
     J. Chem. Phys., 2023, just accepted.
   
   for PTB refer to:
   * S. Grimme, M. Mueller, A. Hansen, J. Chem. Phys., 2023, 158, 124111.
     DOI: 10.1063/5.0137838
   
   with help from (in alphabetical order)
   P. Atkinson, C. Bannwarth, F. Bohle, G. Brandenburg, E. Caldeweyher
   M. Checinski, S. Dohm, S. Ehlert, S. Ehrlich, I. Gerasimov, C. Hölzer
   A. Katbashev, J. Kohn, J. Koopman, C. Lavigne, S. Lehtola, F. März, M. Müller,
   F. Musil, H. Neugebauer, J. Pisarek, C. Plett, P. Pracht, F. Pultar,
   J. Seibert, P. Shushkov, S. Spicher, M. Stahn, M. Steiner, T. Strunk,
   J. Stückrath, T. Rose, and J. Unsleber
   
 * started run on 2025/04/07 at 07:45:08.278     
   ID    Z sym.   atoms
    1    6 C      1-3, 5-7
    2    8 O      4
    3    1 H      8-21

           -------------------------------------------------
          |                Calculation Setup                |
           -------------------------------------------------

          program call               : /srv/scratch/z5358697/.xtb/bin/xtb gas.coord --gfn2 --sp --chrg 0 --norestart --parallel 1
          hostname                   : k139
          coordinate file            : gas.coord
          omp threads                :                     1


           -------------------------------------------------
          |                 G F N 2 - x T B                 |
           -------------------------------------------------

        Reference                      10.1021/acs.jctc.8b01176
      * Hamiltonian:
        H0-scaling (s, p, d)           1.850000    2.230000    2.230000
        zeta-weighting                 0.500000
      * Dispersion:
        s8                             2.700000
        a1                             0.520000
        a2                             5.000000
        s9                             5.000000
      * Repulsion:
        kExp                           1.500000    1.000000
        rExp                           1.000000
      * Coulomb:
        alpha                          2.000000
        third order                    shell-resolved
        anisotropic                    true
        a3                             3.000000
        a5                             4.000000
        cn-shift                       1.200000
        cn-exp                         4.000000
        max-rad                        5.000000


          ...................................................
          :                      SETUP                      :
          :.................................................:
          :  # basis functions                  42          :
          :  # atomic orbitals                  42          :
          :  # shells                           28          :
          :  # electrons                        44          :
          :  max. iterations                   250          :
          :  Hamiltonian                  GFN2-xTB          :
          :  restarted?                      false          :
          :  GBSA solvation                  false          :
          :  PC potential                    false          :
          :  electronic temp.          300.0000000     K    :
          :  accuracy                    1.0000000          :
          :  -> integral cutoff          0.2500000E+02      :
          :  -> integral neglect         0.1000000E-07      :
          :  -> SCF convergence          0.1000000E-05 Eh   :
          :  -> wf. convergence          0.1000000E-03 e    :
          :  Broyden damping             0.4000000          :
          :  net charge                          0          :
          :  unpaired electrons                  0          :
          ...................................................

 iter      E             dE          RMSdq      gap      omega  full diag
   1    -24.2955386 -0.242955E+02  0.318E+00   10.97       0.0  T
   2    -24.3568757 -0.613371E-01  0.165E+00   10.51       1.0  T
   3    -24.3579792 -0.110349E-02  0.781E-01   10.65       1.0  T
   4    -24.3583878 -0.408576E-03  0.172E-01   10.64       1.0  T
   5    -24.3585435 -0.155717E-03  0.636E-02   10.67       1.0  T
   6    -24.3585442 -0.654437E-06  0.456E-03   10.68       4.8  T
   7    -24.3585442 -0.349671E-07  0.250E-03   10.68       8.7  T
   8    -24.3585442 -0.397181E-08  0.613E-04   10.68      35.6  T
   9    -24.3585442 -0.506134E-09  0.224E-04   10.68      97.6  T

   *** convergence criteria satisfied after 9 iterations ***

         #    Occupation            Energy/Eh            Energy/eV
      -------------------------------------------------------------
         1        2.0000           -0.6804594             -18.5162
       ...           ...                  ...                  ...
        16        2.0000           -0.4613695             -12.5545
        17        2.0000           -0.4559412             -12.4068
        18        2.0000           -0.4513568             -12.2820
        19        2.0000           -0.4400598             -11.9746
        20        2.0000           -0.4293013             -11.6819
        21        2.0000           -0.4178362             -11.3699
        22        2.0000           -0.3856279             -10.4935 (HOMO)
        23                          0.0067340               0.1832 (LUMO)
        24                          0.0752368               2.0473
        25                          0.0997824               2.7152
        26                          0.1110185               3.0210
        27                          0.1187434               3.2312
       ...                                ...                  ...
        42                          0.3288480               8.9484
      -------------------------------------------------------------
                  HL-Gap            0.3923619 Eh           10.6767 eV
             Fermi-level           -0.1894469 Eh           -5.1551 eV

 SCC (total)                   0 d,  0 h,  0 min,  0.024 sec
 SCC setup                      ...        0 min,  0.000 sec (  0.576%)
 Dispersion                     ...        0 min,  0.000 sec (  0.371%)
 classical contributions        ...        0 min,  0.000 sec (  0.075%)
 integral evaluation            ...        0 min,  0.001 sec (  5.562%)
 iterations                     ...        0 min,  0.019 sec ( 78.623%)
 molecular gradient             ...        0 min,  0.003 sec ( 14.322%)
 printout                       ...        0 min,  0.000 sec (  0.433%)

         :::::::::::::::::::::::::::::::::::::::::::::::::::::
         ::                     SUMMARY                     ::
         :::::::::::::::::::::::::::::::::::::::::::::::::::::
         :: total energy             -24.052375478855 Eh    ::
         :: gradient norm              0.008007261848 Eh/a0 ::
         :: HOMO-LUMO gap             10.676710102192 eV    ::
         ::.................................................::
         :: SCC energy               -24.358468756825 Eh    ::
         :: -> isotropic ES            0.024697359346 Eh    ::
         :: -> anisotropic ES          0.006520920605 Eh    ::
         :: -> anisotropic XC          0.009570104131 Eh    ::
         :: -> dispersion             -0.012870713335 Eh    ::
         :: repulsion energy           0.306093277970 Eh    ::
         :: add. restraining           0.000000000000 Eh    ::
         :: total charge              -0.000000000000 e     ::
         :::::::::::::::::::::::::::::::::::::::::::::::::::::

           -------------------------------------------------
          |                Property Printout                |
           -------------------------------------------------

    * Orbital Energies and Occupations

         #    Occupation            Energy/Eh            Energy/eV
      -------------------------------------------------------------
         1        2.0000           -0.6804594             -18.5162
       ...           ...                  ...                  ...
        10        2.0000           -0.5166495             -14.0587
        11        2.0000           -0.4933696             -13.4253
        12        2.0000           -0.4902723             -13.3410
        13        2.0000           -0.4787332             -13.0270
        14        2.0000           -0.4704512             -12.8016
        15        2.0000           -0.4668956             -12.7049
        16        2.0000           -0.4613695             -12.5545
        17        2.0000           -0.4559412             -12.4068
        18        2.0000           -0.4513568             -12.2820
        19        2.0000           -0.4400598             -11.9746
        20        2.0000           -0.4293013             -11.6819
        21        2.0000           -0.4178362             -11.3699
        22        2.0000           -0.3856279             -10.4935 (HOMO)
        23                          0.0067340               0.1832 (LUMO)
        24                          0.0752368               2.0473
        25                          0.0997824               2.7152
        26                          0.1110185               3.0210
        27                          0.1187434               3.2312
        28                          0.1222836               3.3275
        29                          0.1384259               3.7668
        30                          0.1571541               4.2764
        31                          0.1796373               4.8882
        32                          0.1811725               4.9300
        33                          0.1998434               5.4380
       ...                                ...                  ...
        42                          0.3288480               8.9484
      -------------------------------------------------------------
                  HL-Gap            0.3923619 Eh           10.6767 eV
             Fermi-level           -0.1894469 Eh           -5.1551 eV

     #   Z          covCN         q      C6AA      α(0)
     1   6 C        3.753    -0.115    22.756     6.803
     2   6 C        3.726     0.122    18.680     6.171
     3   6 C        3.754    -0.113    22.724     6.797
     4   8 O        1.698    -0.341    19.727     5.997
     5   6 C        3.726     0.117    18.771     6.186
     6   6 C        3.752    -0.116    22.787     6.807
     7   6 C        3.752    -0.114    22.734     6.799
     8   1 H        0.925     0.048     2.347     2.396
     9   1 H        0.925     0.036     2.502     2.474
    10   1 H        0.925     0.036     2.509     2.477
    11   1 H        0.923     0.015     2.803     2.618
    12   1 H        0.925     0.049     2.328     2.386
    13   1 H        0.925     0.052     2.297     2.370
    14   1 H        0.925     0.038     2.474     2.460
    15   1 H        0.923     0.041     2.440     2.443
    16   1 H        0.925     0.049     2.334     2.389
    17   1 H        0.925     0.039     2.460     2.453
    18   1 H        0.925     0.036     2.507     2.476
    19   1 H        0.925     0.040     2.452     2.449
    20   1 H        0.925     0.043     2.404     2.425
    21   1 H        0.925     0.038     2.472     2.459

 Mol. C6AA /au·bohr⁶  :       2914.028809
 Mol. C8AA /au·bohr⁸  :      59956.795949
 Mol. α(0) /au        :         79.833326


Wiberg/Mayer (AO) data.
largest (>0.10) Wiberg bond orders for each atom

 ---------------------------------------------------------------------------
     #   Z sym  total        # sym  WBO       # sym  WBO       # sym  WBO
 ---------------------------------------------------------------------------
     1   6 C    3.996 --     2 C    0.998     8 H    0.986     9 H    0.985
                            10 H    0.983
     2   6 C    3.955 --     3 C    1.002     1 C    0.998     4 O    0.968
                            11 H    0.961
     3   6 C    3.995 --     2 C    1.002    14 H    0.986    12 H    0.986
                            13 H    0.986
     4   8 O    2.068 --     5 C    0.970     2 C    0.968
     5   6 C    3.955 --     7 C    1.002     6 C    0.997     4 O    0.970
                            15 H    0.961
     6   6 C    3.996 --     5 C    0.997    18 H    0.986    16 H    0.986
                            17 H    0.982
     7   6 C    3.997 --     5 C    1.002    20 H    0.985    19 H    0.985
                            21 H    0.984
     8   1 H    0.998 --     1 C    0.986
     9   1 H    0.999 --     1 C    0.985
    10   1 H    0.999 --     1 C    0.983
    11   1 H    1.000 --     2 C    0.961
    12   1 H    0.998 --     3 C    0.986
    13   1 H    0.997 --     3 C    0.986
    14   1 H    0.998 --     3 C    0.986
    15   1 H    0.998 --     5 C    0.961
    16   1 H    0.998 --     6 C    0.986
    17   1 H    0.998 --     6 C    0.982
    18   1 H    0.998 --     6 C    0.986
    19   1 H    0.998 --     7 C    0.985
    20   1 H    0.998 --     7 C    0.985
    21   1 H    0.999 --     7 C    0.984
 ---------------------------------------------------------------------------

Topologies differ in total number of bonds
Writing topology from bond orders to xtbtopo.mol

molecular dipole:
                 x           y           z       tot (Debye)
 q only:       -0.017      -0.379      -0.091
   full:       -0.057      -0.569      -0.118       1.485
molecular quadrupole (traceless):
                xx          xy          yy          xz          yz          zz
 q only:        2.658       0.295      -2.118       0.266      -0.375      -0.540
  q+dip:        2.090      -0.152      -1.765      -0.220      -0.857      -0.324
   full:        2.604      -0.038      -2.108      -0.017      -0.712      -0.496


           -------------------------------------------------
          | TOTAL ENERGY              -24.052375478855 Eh   |
          | GRADIENT NORM               0.008007261848 Eh/α |
          | HOMO-LUMO GAP              10.676710102192 eV   |
           -------------------------------------------------

------------------------------------------------------------------------
 * finished run on 2025/04/07 at 07:45:08.330     
------------------------------------------------------------------------
 total:
 * wall-time:     0 d,  0 h,  0 min,  0.051 sec
 *  cpu-time:     0 d,  0 h,  0 min,  0.017 sec
 * ratio c/w:     0.327 speedup
 SCF:
 * wall-time:     0 d,  0 h,  0 min,  0.024 sec
 *  cpu-time:     0 d,  0 h,  0 min,  0.010 sec
 * ratio c/w:     0.403 speedup

