      -----------------------------------------------------------      
     |                   =====================                   |     
     |                           x T B                           |     
     |                   =====================                   |     
     |                         S. Grimme                         |     
     |          Mulliken Center for Theoretical Chemistry        |     
     |                    University of Bonn                     |     
      -----------------------------------------------------------      

   * xtb version 6.7.1 (edcfbbe) compiled by 'albert@albert-system' on 2024-07-22

   xtb is free software: you can redistribute it and/or modify it under
   the terms of the GNU Lesser General Public License as published by
   the Free Software Foundation, either version 3 of the License, or
   (at your option) any later version.
   
   xtb is distributed in the hope that it will be useful,
   but WITHOUT ANY WARRANTY; without even the implied warranty of
   MERCHANTABILITY or FITNESS FOR A PARTICULAR PURPOSE.  See the
   GNU Lesser General Public License for more details.
   
   Cite this work as:
   * C. Bannwarth, E. Caldeweyher, S. Ehlert, A. Hansen, P. Pracht,
     J. Seibert, S. Spicher, S. Grimme, WIREs Comput. Mol. Sci., 2020, 11,
     e01493. DOI: 10.1002/wcms.1493
   
   for GFN2-xTB:
   * C. Bannwarth, S. Ehlert and S. Grimme., J. Chem. Theory Comput., 2019,
     15, 1652-1671. DOI: 10.1021/acs.jctc.8b01176
   for GFN1-xTB:
   * S. Grimme, C. Bannwarth, P. Shushkov, J. Chem. Theory Comput., 2017,
     13, 1989-2009. DOI: 10.1021/acs.jctc.7b00118
   for GFN0-xTB:
   * P. Pracht, E. Caldeweyher, S. Ehlert, S. Grimme, ChemRxiv, 2019, preprint.
     DOI: 10.26434/chemrxiv.8326202.v1
   for GFN-FF:
   * S. Spicher and S. Grimme, Angew. Chem. Int. Ed., 2020, 59, 15665-15673.
     DOI: 10.1002/anie.202004239
   
   for ALPB and GBSA implicit solvation:
   * S. Ehlert, M. Stahn, S. Spicher, S. Grimme, J. Chem. Theory Comput.,
     2021, 17, 4250-4261. DOI: 10.1021/acs.jctc.1c00471
   
   for ddCOSMO and CPCM-X implicit solvation:
   * M. Stahn, S. Ehlert, S. Grimme, J. Phys. Chem. A,
     2023, XX, XXXX-XXXX. DOI: 10.1021/acs.jpca.3c04382
   
   for DFT-D4:
   * E. Caldeweyher, C. Bannwarth and S. Grimme, J. Chem. Phys., 2017,
     147, 034112. DOI: 10.1063/1.4993215
   * E. Caldeweyher, S. Ehlert, A. Hansen, H. Neugebauer, S. Spicher,
     C. Bannwarth and S. Grimme, J. Chem. Phys., 2019, 150, 154122.
     DOI: 10.1063/1.5090222
   * E. Caldeweyher, J.-M. Mewes, S. Ehlert and S. Grimme, Phys. Chem. Chem. Phys.
     2020, 22, 8499-8512. DOI: 10.1039/D0CP00502A
   
   for sTDA-xTB:
   * S. Grimme and C. Bannwarth, J. Chem. Phys., 2016, 145, 054103.
     DOI: 10.1063/1.4959605
   
   in the mass-spec context:
   * V. Asgeirsson, C. Bauer and S. Grimme, Chem. Sci., 2017, 8, 4879.
     DOI: 10.1039/c7sc00601b
   * J. Koopman and S. Grimme, ACS Omega 2019, 4, 12, 15120-15133.
     DOI: 10.1021/acsomega.9b02011
   
   for metadynamics refer to:
   * S. Grimme, J. Chem. Theory Comput., 2019, 155, 2847-2862
     DOI: 10.1021/acs.jctc.9b00143
   
   for SPH calculations refer to:
   * S. Spicher and S. Grimme, J. Chem. Theory Comput., 2021, 17, 1701-1714
     DOI: 10.1021/acs.jctc.0c01306
   
   for ONIOM refer to:
   * C. Plett, A. Katbashev, S. Ehlert, S. Grimme, M. Bursch,
     Phys. Chem. Chem. Phys., 2023, 25, 17860-17868. DOI: 10.1039/D3CP02178E
   
   for DIPRO refer to:
   * J. Kohn, N. Gildemeister, S. Grimme, D. Fazzi, A. Hansen,
     J. Chem. Phys., 2023, just accepted.
   
   for PTB refer to:
   * S. Grimme, M. Mueller, A. Hansen, J. Chem. Phys., 2023, 158, 124111.
     DOI: 10.1063/5.0137838
   
   with help from (in alphabetical order)
   P. Atkinson, C. Bannwarth, F. Bohle, G. Brandenburg, E. Caldeweyher
   M. Checinski, S. Dohm, S. Ehlert, S. Ehrlich, I. Gerasimov, C. Hölzer
   A. Katbashev, J. Kohn, J. Koopman, C. Lavigne, S. Lehtola, F. März, M. Müller,
   F. Musil, H. Neugebauer, J. Pisarek, C. Plett, P. Pracht, F. Pultar,
   J. Seibert, P. Shushkov, S. Spicher, M. Stahn, M. Steiner, T. Strunk,
   J. Stückrath, T. Rose, and J. Unsleber
   
 * started run on 2025/04/11 at 11:49:00.903     
   ID    Z sym.   atoms
    1    6 C      1, 2, 4-7
    2    1 H      3, 9-21
    3    8 O      8

           -------------------------------------------------
          |                Calculation Setup                |
           -------------------------------------------------

          program call               : /srv/scratch/z5358697/.xtb/bin/xtb solv.coord --gfn2 --sp --chrg 0 --norestart --parallel 1 --alpb water reference -I xtb_sp-xcontrol-inp
          hostname                   : k068
          coordinate file            : solv.coord
          omp threads                :                     1


           -------------------------------------------------
          |                 G F N 2 - x T B                 |
           -------------------------------------------------

        Reference                      10.1021/acs.jctc.8b01176
      * Hamiltonian:
        H0-scaling (s, p, d)           1.850000    2.230000    2.230000
        zeta-weighting                 0.500000
      * Dispersion:
        s8                             2.700000
        a1                             0.520000
        a2                             5.000000
        s9                             5.000000
      * Repulsion:
        kExp                           1.500000    1.000000
        rExp                           1.000000
      * Coulomb:
        alpha                          2.000000
        third order                    shell-resolved
        anisotropic                    true
        a3                             3.000000
        a5                             4.000000
        cn-shift                       1.200000
        cn-exp                         4.000000
        max-rad                        5.000000

      * Solvation model:               ALPB
        Solvent                        water
        Parameter file                 internal GFN2-xTB/ALPB
        Dielectric constant                8.0200E+01
        Reference state                gsolv=reference [X=1]
        Free energy shift                  2.8945E-03 Eh       1.8164E+00 kcal/mol
        Temperature                        2.9815E+02 K
        Density                            1.0000E+00 kg/L
        Solvent mass                       1.8000E+01 g/mol
        Interaction kernel             P16
        Born radius scaling (c1)           1.4744E+00
        Born radii integrator          GBOBC
        Born offset                        0.0000E+00 a0       0.0000E+00 AA
        H-bond correction              true
        Ion screening                  false
        Surface tension                    1.0000E-05 Eh       1.5569E+01 dyn/cm
        Grid points                               974 per atom

          ...................................................
          :                      SETUP                      :
          :.................................................:
          :  # basis functions                  42          :
          :  # atomic orbitals                  42          :
          :  # shells                           28          :
          :  # electrons                        44          :
          :  max. iterations                   250          :
          :  Hamiltonian                  GFN2-xTB          :
          :  restarted?                      false          :
          :  GBSA solvation                   true          :
          :  PC potential                    false          :
          :  electronic temp.          300.0000000     K    :
          :  accuracy                    1.0000000          :
          :  -> integral cutoff          0.2500000E+02      :
          :  -> integral neglect         0.1000000E-07      :
          :  -> SCF convergence          0.1000000E-05 Eh   :
          :  -> wf. convergence          0.1000000E-03 e    :
          :  Broyden damping             0.4000000          :
          :  net charge                          0          :
          :  unpaired electrons                  0          :
          ...................................................

 iter      E             dE          RMSdq      gap      omega  full diag
   1    -24.3298572 -0.243299E+02  0.298E+00   12.02       0.0  T
   2    -24.3657685 -0.359113E-01  0.162E+00   11.77       1.0  T
   3    -24.3668459 -0.107742E-02  0.617E-01   11.78       1.0  T
   4    -24.3671832 -0.337259E-03  0.148E-01   11.78       1.0  T
   5    -24.3672736 -0.903919E-04  0.673E-02   11.80       1.0  T
   6    -24.3672758 -0.218237E-05  0.106E-02   11.80       2.1  T
   7    -24.3672761 -0.301243E-06  0.490E-03   11.80       4.5  T
   8    -24.3672761 -0.531897E-07  0.181E-03   11.80      12.0  T
   9    -24.3672761 -0.457101E-08  0.552E-04   11.80      39.5  T
  10    -24.3672761 -0.147342E-08  0.152E-04   11.80     143.1  T

   *** convergence criteria satisfied after 10 iterations ***

         #    Occupation            Energy/Eh            Energy/eV
      -------------------------------------------------------------
         1        2.0000           -0.6839498             -18.6112
       ...           ...                  ...                  ...
        16        2.0000           -0.4559170             -12.4061
        17        2.0000           -0.4553004             -12.3894
        18        2.0000           -0.4398009             -11.9676
        19        2.0000           -0.4322063             -11.7609
        20        2.0000           -0.4232722             -11.5178
        21        2.0000           -0.4218985             -11.4804
        22        2.0000           -0.4024632             -10.9516 (HOMO)
        23                          0.0313020               0.8518 (LUMO)
        24                          0.0774555               2.1077
        25                          0.0872525               2.3743
        26                          0.1127324               3.0676
        27                          0.1203914               3.2760
       ...                                ...                  ...
        42                          0.3153814               8.5820
      -------------------------------------------------------------
                  HL-Gap            0.4337652 Eh           11.8034 eV
             Fermi-level           -0.1855806 Eh           -5.0499 eV

 SCC (total)                   0 d,  0 h,  0 min,  0.015 sec
 SCC setup                      ...        0 min,  0.001 sec (  8.788%)
 Dispersion                     ...        0 min,  0.000 sec (  0.869%)
 classical contributions        ...        0 min,  0.000 sec (  0.176%)
 integral evaluation            ...        0 min,  0.002 sec ( 10.452%)
 iterations                     ...        0 min,  0.007 sec ( 45.229%)
 molecular gradient             ...        0 min,  0.005 sec ( 33.271%)
 printout                       ...        0 min,  0.000 sec (  1.107%)

         :::::::::::::::::::::::::::::::::::::::::::::::::::::
         ::                     SUMMARY                     ::
         :::::::::::::::::::::::::::::::::::::::::::::::::::::
         :: total energy             -24.058199824925 Eh    ::
         :: total w/o Gsasa/hb       -24.055966789022 Eh    ::
         :: gradient norm              0.000170601956 Eh/a0 ::
         :: HOMO-LUMO gap             11.803352815030 eV    ::
         ::.................................................::
         :: SCC energy               -24.367210780967 Eh    ::
         :: -> isotropic ES            0.037877923826 Eh    ::
         :: -> anisotropic ES          0.005376483652 Eh    ::
         :: -> anisotropic XC          0.009784176706 Eh    ::
         :: -> dispersion             -0.012754232284 Eh    ::
         :: -> Gsolv                  -0.006592790735 Eh    ::
         ::    -> Gelec               -0.004359754832 Eh    ::
         ::    -> Gsasa                0.000345383006 Eh    ::
         ::    -> Ghb                 -0.005472968069 Eh    ::
         ::    -> Gshift               0.002894549160 Eh    ::
         :: repulsion energy           0.309010956043 Eh    ::
         :: add. restraining           0.000000000000 Eh    ::
         :: total charge              -0.000000000000 e     ::
         :::::::::::::::::::::::::::::::::::::::::::::::::::::

           -------------------------------------------------
          |                Property Printout                |
           -------------------------------------------------

    * Orbital Energies and Occupations

         #    Occupation            Energy/Eh            Energy/eV
      -------------------------------------------------------------
         1        2.0000           -0.6839498             -18.6112
       ...           ...                  ...                  ...
        10        2.0000           -0.5101502             -13.8819
        11        2.0000           -0.4998983             -13.6029
        12        2.0000           -0.4856883             -13.2163
        13        2.0000           -0.4789233             -13.0322
        14        2.0000           -0.4640034             -12.6262
        15        2.0000           -0.4588792             -12.4867
        16        2.0000           -0.4559170             -12.4061
        17        2.0000           -0.4553004             -12.3894
        18        2.0000           -0.4398009             -11.9676
        19        2.0000           -0.4322063             -11.7609
        20        2.0000           -0.4232722             -11.5178
        21        2.0000           -0.4218985             -11.4804
        22        2.0000           -0.4024632             -10.9516 (HOMO)
        23                          0.0313020               0.8518 (LUMO)
        24                          0.0774555               2.1077
        25                          0.0872525               2.3743
        26                          0.1127324               3.0676
        27                          0.1203914               3.2760
        28                          0.1288730               3.5068
        29                          0.1446965               3.9374
        30                          0.1567389               4.2651
        31                          0.1634644               4.4481
        32                          0.1856592               5.0520
        33                          0.2021067               5.4996
       ...                                ...                  ...
        42                          0.3153814               8.5820
      -------------------------------------------------------------
                  HL-Gap            0.4337652 Eh           11.8034 eV
             Fermi-level           -0.1855806 Eh           -5.0499 eV

     #   Z          covCN         q      C6AA      α(0)
     1   6 C        3.753    -0.119    22.834     6.814
     2   6 C        3.722     0.120    18.718     6.179
     3   1 H        0.923     0.007     2.934     2.679
     4   6 C        3.803    -0.084    22.106     6.694
     5   6 C        3.848    -0.013    20.780     6.484
     6   6 C        3.756    -0.116    22.766     6.803
     7   6 C        3.756    -0.116    22.779     6.805
     8   8 O        1.655    -0.522    23.381     6.527
     9   1 H        0.925     0.049     2.331     2.388
    10   1 H        0.925     0.050     2.316     2.380
    11   1 H        0.925     0.050     2.321     2.382
    12   1 H        0.924     0.039     2.464     2.455
    13   1 H        0.924     0.047     2.359     2.402
    14   1 H        0.924     0.027     2.625     2.533
    15   1 H        0.925     0.040     2.447     2.446
    16   1 H        0.925     0.036     2.500     2.473
    17   1 H        0.925     0.040     2.449     2.447
    18   1 H        0.925     0.042     2.428     2.437
    19   1 H        0.925     0.038     2.477     2.461
    20   1 H        0.925     0.039     2.456     2.451
    21   1 H        0.805     0.345     0.600     1.217

 Mol. C6AA /au·bohr⁶  :       2897.448680
 Mol. C8AA /au·bohr⁸  :      60054.880708
 Mol. α(0) /au        :         79.456395


Wiberg/Mayer (AO) data.
largest (>0.10) Wiberg bond orders for each atom

 ---------------------------------------------------------------------------
     #   Z sym  total        # sym  WBO       # sym  WBO       # sym  WBO
 ---------------------------------------------------------------------------
     1   6 C    3.995 --     2 C    1.007    10 H    0.985    11 H    0.985
                             9 H    0.983
     2   6 C    3.950 --     1 C    1.007     4 C    0.989     8 O    0.976
                             3 H    0.962
     3   1 H    1.000 --     2 C    0.962
     4   6 C    3.995 --     5 C    0.992     2 C    0.989    13 H    0.976
                            12 H    0.973
     5   6 C    3.996 --     7 C    1.011     6 C    1.010     4 C    0.992
                            14 H    0.968
     6   6 C    3.996 --     5 C    1.010    15 H    0.987    16 H    0.987
                            17 H    0.986
     7   6 C    3.996 --     5 C    1.011    19 H    0.986    20 H    0.986
                            18 H    0.984
     8   8 O    1.908 --     2 C    0.976    21 H    0.864
     9   1 H    0.998 --     1 C    0.983
    10   1 H    0.997 --     1 C    0.985
    11   1 H    0.997 --     1 C    0.985
    12   1 H    0.998 --     4 C    0.973
    13   1 H    0.998 --     4 C    0.976
    14   1 H    0.999 --     5 C    0.968
    15   1 H    0.998 --     6 C    0.987
    16   1 H    0.999 --     6 C    0.987
    17   1 H    0.998 --     6 C    0.986
    18   1 H    0.998 --     7 C    0.984
    19   1 H    0.998 --     7 C    0.986
    20   1 H    0.998 --     7 C    0.986
    21   1 H    0.881 --     8 O    0.864
 ---------------------------------------------------------------------------

Topologies differ in total number of bonds
Writing topology from bond orders to xtbtopo.mol

molecular dipole:
                 x           y           z       tot (Debye)
 q only:       -0.630       0.117       0.122
   full:       -0.750       0.221       0.231       2.072
molecular quadrupole (traceless):
                xx          xy          yy          xz          yz          zz
 q only:       -5.063      -0.334       4.508       0.736       1.446       0.555
  q+dip:       -7.387      -0.548       4.995       1.241       1.253       2.392
   full:       -7.002      -0.360       5.385       1.126       1.581       1.617


           -------------------------------------------------
          | TOTAL ENERGY              -24.058199824925 Eh   |
          | GRADIENT NORM               0.000170601956 Eh/α |
          | HOMO-LUMO GAP              11.803352815030 eV   |
           -------------------------------------------------

------------------------------------------------------------------------
 * finished run on 2025/04/11 at 11:49:00.955     
------------------------------------------------------------------------
 total:
 * wall-time:     0 d,  0 h,  0 min,  0.051 sec
 *  cpu-time:     0 d,  0 h,  0 min,  0.023 sec
 * ratio c/w:     0.451 speedup
 SCF:
 * wall-time:     0 d,  0 h,  0 min,  0.015 sec
 *  cpu-time:     0 d,  0 h,  0 min,  0.015 sec
 * ratio c/w:     0.980 speedup

