      -----------------------------------------------------------      
     |                   =====================                   |     
     |                           x T B                           |     
     |                   =====================                   |     
     |                         S. Grimme                         |     
     |          Mulliken Center for Theoretical Chemistry        |     
     |                    University of Bonn                     |     
      -----------------------------------------------------------      

   * xtb version 6.7.1 (edcfbbe) compiled by 'albert@albert-system' on 2024-07-22

   xtb is free software: you can redistribute it and/or modify it under
   the terms of the GNU Lesser General Public License as published by
   the Free Software Foundation, either version 3 of the License, or
   (at your option) any later version.
   
   xtb is distributed in the hope that it will be useful,
   but WITHOUT ANY WARRANTY; without even the implied warranty of
   MERCHANTABILITY or FITNESS FOR A PARTICULAR PURPOSE.  See the
   GNU Lesser General Public License for more details.
   
   Cite this work as:
   * C. Bannwarth, E. Caldeweyher, S. Ehlert, A. Hansen, P. Pracht,
     J. Seibert, S. Spicher, S. Grimme, WIREs Comput. Mol. Sci., 2020, 11,
     e01493. DOI: 10.1002/wcms.1493
   
   for GFN2-xTB:
   * C. Bannwarth, S. Ehlert and S. Grimme., J. Chem. Theory Comput., 2019,
     15, 1652-1671. DOI: 10.1021/acs.jctc.8b01176
   for GFN1-xTB:
   * S. Grimme, C. Bannwarth, P. Shushkov, J. Chem. Theory Comput., 2017,
     13, 1989-2009. DOI: 10.1021/acs.jctc.7b00118
   for GFN0-xTB:
   * P. Pracht, E. Caldeweyher, S. Ehlert, S. Grimme, ChemRxiv, 2019, preprint.
     DOI: 10.26434/chemrxiv.8326202.v1
   for GFN-FF:
   * S. Spicher and S. Grimme, Angew. Chem. Int. Ed., 2020, 59, 15665-15673.
     DOI: 10.1002/anie.202004239
   
   for ALPB and GBSA implicit solvation:
   * S. Ehlert, M. Stahn, S. Spicher, S. Grimme, J. Chem. Theory Comput.,
     2021, 17, 4250-4261. DOI: 10.1021/acs.jctc.1c00471
   
   for ddCOSMO and CPCM-X implicit solvation:
   * M. Stahn, S. Ehlert, S. Grimme, J. Phys. Chem. A,
     2023, XX, XXXX-XXXX. DOI: 10.1021/acs.jpca.3c04382
   
   for DFT-D4:
   * E. Caldeweyher, C. Bannwarth and S. Grimme, J. Chem. Phys., 2017,
     147, 034112. DOI: 10.1063/1.4993215
   * E. Caldeweyher, S. Ehlert, A. Hansen, H. Neugebauer, S. Spicher,
     C. Bannwarth and S. Grimme, J. Chem. Phys., 2019, 150, 154122.
     DOI: 10.1063/1.5090222
   * E. Caldeweyher, J.-M. Mewes, S. Ehlert and S. Grimme, Phys. Chem. Chem. Phys.
     2020, 22, 8499-8512. DOI: 10.1039/D0CP00502A
   
   for sTDA-xTB:
   * S. Grimme and C. Bannwarth, J. Chem. Phys., 2016, 145, 054103.
     DOI: 10.1063/1.4959605
   
   in the mass-spec context:
   * V. Asgeirsson, C. Bauer and S. Grimme, Chem. Sci., 2017, 8, 4879.
     DOI: 10.1039/c7sc00601b
   * J. Koopman and S. Grimme, ACS Omega 2019, 4, 12, 15120-15133.
     DOI: 10.1021/acsomega.9b02011
   
   for metadynamics refer to:
   * S. Grimme, J. Chem. Theory Comput., 2019, 155, 2847-2862
     DOI: 10.1021/acs.jctc.9b00143
   
   for SPH calculations refer to:
   * S. Spicher and S. Grimme, J. Chem. Theory Comput., 2021, 17, 1701-1714
     DOI: 10.1021/acs.jctc.0c01306
   
   for ONIOM refer to:
   * C. Plett, A. Katbashev, S. Ehlert, S. Grimme, M. Bursch,
     Phys. Chem. Chem. Phys., 2023, 25, 17860-17868. DOI: 10.1039/D3CP02178E
   
   for DIPRO refer to:
   * J. Kohn, N. Gildemeister, S. Grimme, D. Fazzi, A. Hansen,
     J. Chem. Phys., 2023, just accepted.
   
   for PTB refer to:
   * S. Grimme, M. Mueller, A. Hansen, J. Chem. Phys., 2023, 158, 124111.
     DOI: 10.1063/5.0137838
   
   with help from (in alphabetical order)
   P. Atkinson, C. Bannwarth, F. Bohle, G. Brandenburg, E. Caldeweyher
   M. Checinski, S. Dohm, S. Ehlert, S. Ehrlich, I. Gerasimov, C. Hölzer
   A. Katbashev, J. Kohn, J. Koopman, C. Lavigne, S. Lehtola, F. März, M. Müller,
   F. Musil, H. Neugebauer, J. Pisarek, C. Plett, P. Pracht, F. Pultar,
   J. Seibert, P. Shushkov, S. Spicher, M. Stahn, M. Steiner, T. Strunk,
   J. Stückrath, T. Rose, and J. Unsleber
   
 * started run on 2025/04/11 at 12:37:28.717     
   ID    Z sym.   atoms
    1    6 C      1-9
    2    1 H      10-21

           -------------------------------------------------
          |                Calculation Setup                |
           -------------------------------------------------

          program call               : /srv/scratch/z5358697/.xtb/bin/xtb xtb_rrho.coord --gfn2 --ohess vtight --chrg 0 --enso --norestart -I rrho-xcontrol-inp --parallel 1 --alpb water
          hostname                   : k138
          coordinate file            : xtb_rrho.coord
          omp threads                :                     1


           -------------------------------------------------
          |                 G F N 2 - x T B                 |
           -------------------------------------------------

        Reference                      10.1021/acs.jctc.8b01176
      * Hamiltonian:
        H0-scaling (s, p, d)           1.850000    2.230000    2.230000
        zeta-weighting                 0.500000
      * Dispersion:
        s8                             2.700000
        a1                             0.520000
        a2                             5.000000
        s9                             5.000000
      * Repulsion:
        kExp                           1.500000    1.000000
        rExp                           1.000000
      * Coulomb:
        alpha                          2.000000
        third order                    shell-resolved
        anisotropic                    true
        a3                             3.000000
        a5                             4.000000
        cn-shift                       1.200000
        cn-exp                         4.000000
        max-rad                        5.000000

      * Solvation model:               ALPB
        Solvent                        water
        Parameter file                 internal GFN2-xTB/ALPB
        Dielectric constant                8.0200E+01
        Reference state                gsolv [1 M gas/solution]
        Free energy shift                  1.0808E-03 Eh       6.7819E-01 kcal/mol
        Temperature                        2.9815E+02 K
        Density                            1.0000E+00 kg/L
        Solvent mass                       1.8000E+01 g/mol
        Interaction kernel             P16
        Born radius scaling (c1)           1.4744E+00
        Born radii integrator          GBOBC
        Born offset                        0.0000E+00 a0       0.0000E+00 AA
        H-bond correction              true
        Ion screening                  false
        Surface tension                    1.0000E-05 Eh       1.5569E+01 dyn/cm
        Grid points                               974 per atom

          ...................................................
          :                      SETUP                      :
          :.................................................:
          :  # basis functions                  48          :
          :  # atomic orbitals                  48          :
          :  # shells                           30          :
          :  # electrons                        48          :
          :  max. iterations                   250          :
          :  Hamiltonian                  GFN2-xTB          :
          :  restarted?                      false          :
          :  GBSA solvation                   true          :
          :  PC potential                    false          :
          :  electronic temp.          300.0000000     K    :
          :  accuracy                    1.0000000          :
          :  -> integral cutoff          0.2500000E+02      :
          :  -> integral neglect         0.1000000E-07      :
          :  -> SCF convergence          0.1000000E-05 Eh   :
          :  -> wf. convergence          0.1000000E-03 e    :
          :  Broyden damping             0.4000000          :
          :  net charge                          0          :
          :  unpaired electrons                  0          :
          ...................................................

 iter      E             dE          RMSdq      gap      omega  full diag
   1    -25.7947379 -0.257947E+02  0.357E+00    4.58       0.0  T
   2    -25.8122591 -0.175211E-01  0.210E+00    4.61       1.0  T
   3    -25.8126906 -0.431540E-03  0.507E-01    4.53       1.0  T
   4    -25.8130877 -0.397115E-03  0.222E-01    4.56       1.0  T
   5    -25.8136303 -0.542546E-03  0.598E-02    4.56       1.0  T
   6    -25.8136424 -0.121028E-04  0.236E-02    4.56       1.0  T
   7    -25.8136431 -0.726045E-06  0.989E-03    4.56       2.2  T
   8    -25.8136435 -0.416466E-06  0.214E-03    4.56      10.2  T
   9    -25.8136436 -0.361465E-07  0.103E-03    4.56      21.2  T
  10    -25.8136436 -0.142250E-08  0.340E-04    4.56      64.1  T
  11    -25.8136436 -0.104501E-08  0.144E-04    4.56     151.2  T

   *** convergence criteria satisfied after 11 iterations ***

         #    Occupation            Energy/Eh            Energy/eV
      -------------------------------------------------------------
         1        2.0000           -0.6369924             -17.3334
       ...           ...                  ...                  ...
        18        2.0000           -0.4481758             -12.1955
        19        2.0000           -0.4370587             -11.8930
        20        2.0000           -0.4257061             -11.5841
        21        2.0000           -0.4169144             -11.3448
        22        2.0000           -0.4126825             -11.2297
        23        2.0000           -0.3967744             -10.7968
        24        2.0000           -0.3868582             -10.5269 (HOMO)
        25                         -0.2191975              -5.9647 (LUMO)
        26                         -0.2171489              -5.9089
        27                         -0.0927073              -2.5227
        28                          0.0647560               1.7621
        29                          0.1123267               3.0566
       ...                                ...                  ...
        48                          0.6428066              17.4917
      -------------------------------------------------------------
                  HL-Gap            0.1676607 Eh            4.5623 eV
             Fermi-level           -0.3030279 Eh           -8.2458 eV

 SCC (total)                   0 d,  0 h,  0 min,  0.027 sec
 SCC setup                      ...        0 min,  0.001 sec (  4.613%)
 Dispersion                     ...        0 min,  0.000 sec (  0.468%)
 classical contributions        ...        0 min,  0.000 sec (  0.082%)
 integral evaluation            ...        0 min,  0.002 sec (  6.622%)
 iterations                     ...        0 min,  0.018 sec ( 68.734%)
 molecular gradient             ...        0 min,  0.005 sec ( 18.980%)
 printout                       ...        0 min,  0.000 sec (  0.452%)

         :::::::::::::::::::::::::::::::::::::::::::::::::::::
         ::                     SUMMARY                     ::
         :::::::::::::::::::::::::::::::::::::::::::::::::::::
         :: total energy             -25.377580882181 Eh    ::
         :: total w/o Gsasa/hb       -25.376556481759 Eh    ::
         :: gradient norm              0.021602970763 Eh/a0 ::
         :: HOMO-LUMO gap              4.562281009151 eV    ::
         ::.................................................::
         :: SCC energy               -25.813654449638 Eh    ::
         :: -> isotropic ES            0.003472770025 Eh    ::
         :: -> anisotropic ES          0.005666884601 Eh    ::
         :: -> anisotropic XC          0.017745825933 Eh    ::
         :: -> dispersion             -0.015382108837 Eh    ::
         :: -> Gsolv                  -0.001427150141 Eh    ::
         ::    -> Gelec               -0.000402749719 Eh    ::
         ::    -> Gsasa               -0.001623540608 Eh    ::
         ::    -> Ghb                 -0.000481619512 Eh    ::
         ::    -> Gshift               0.001080759698 Eh    ::
         :: repulsion energy           0.436073567457 Eh    ::
         :: add. restraining           0.000000000000 Eh    ::
         :: total charge               0.000000000000 e     ::
         :::::::::::::::::::::::::::::::::::::::::::::::::::::

      ----------------------------------------------------------- 
     |                   =====================                   |
     |                        A N C O P T                        |
     |                   =====================                   |
     |               Approximate Normal Coordinate               |
     |                Rational Function Optimizer                |
      ----------------------------------------------------------- 
      ----------------------------------------------------------- 
     |                   =====================                   |
     |                        A N C O P T                        |
     |                   =====================                   |
     |               Approximate Normal Coordinate               |
     |                Rational Function Optimizer                |
      ----------------------------------------------------------- 

          ...................................................
          :                      SETUP                      :
          :.................................................:
          :   optimization level         verytight          :
          :   max. optcycles                   420          :
          :   ANC micro-cycles                  20          :
          :   degrees of freedom                57          :
          :.................................................:
          :   RF solver                   davidson          :
          :   write xtbopt.log                true          :
          :   linear?                        false          :
          :   energy convergence         0.1000000E-06 Eh   :
          :   grad. convergence          0.2000000E-03 Eh/α :
          :   maxmium RF displ.          1.0000000          :
          :   Hlow (freq-cutoff)         0.1000000E-01      :
          :   Hmax (freq-cutoff)         5.0000000          :
          :   S6 in model hess.         20.0000000          :
          ...................................................

generating ANC from exact Hessian ...
Using Lindh-Hessian (1995)
 Shifting diagonal of input Hessian by   8.199289089585962E-003
 Lowest  eigenvalues of input Hessian
    0.000000    0.000000    0.000000    0.000000    0.000000    0.000000
    0.010000    0.010773    0.011159    0.015722    0.018333    0.020225
    0.022468    0.027443    0.030739    0.032161    0.047332    0.050585
 Highest eigenvalues
    1.362928    1.530472    1.568975    1.841432    1.933867    1.961405
 

........................................................................
.............................. CYCLE    1 ..............................
........................................................................

 iter      E             dE          RMSdq      gap      omega  full diag
   1    -25.8136436 -0.258136E+02  0.732E-05    4.56       0.0  T
   2    -25.8136436 -0.141185E-10  0.487E-05    4.56     447.7  T
   3    -25.8136436 -0.256151E-11  0.305E-05    4.56     716.4  T
     SCC iter.                  ...        0 min,  0.001 sec
     gradient                   ...        0 min,  0.005 sec
 * total energy  :   -25.3775809 Eh     change       -0.6904344E-10 Eh
   gradient norm :     0.0216029 Eh/α   predicted     0.0000000E+00 (-100.00%)
   displ. norm   :     0.1174456 α      lambda       -0.1589419E-02
   maximum displ.:     0.0518551 α      in ANC's #6, #34, #9, ...

........................................................................
.............................. CYCLE    2 ..............................
........................................................................

 iter      E             dE          RMSdq      gap      omega  full diag
   1    -25.8320750 -0.258321E+02  0.102E-01    4.64       0.0  T
   2    -25.8320781 -0.312995E-05  0.597E-02    4.64       1.0  T
   3    -25.8320777  0.442637E-06  0.840E-03    4.64       2.6  T
   4    -25.8320784 -0.690213E-06  0.284E-03    4.64       7.7  T
   5    -25.8320785 -0.917586E-07  0.112E-03    4.64      19.5  T
   6    -25.8320785 -0.423260E-09  0.482E-04    4.64      45.3  T
   7    -25.8320785 -0.135897E-08  0.112E-04    4.64     194.1  T
     SCC iter.                  ...        0 min,  0.003 sec
     gradient                   ...        0 min,  0.005 sec
 * total energy  :   -25.3785323 Eh     change       -0.9514168E-03 Eh
   gradient norm :     0.0059231 Eh/α   predicted    -0.8056725E-03 ( -15.32%)
   displ. norm   :     0.0363732 α      lambda       -0.9479353E-04
   maximum displ.:     0.0203773 α      in ANC's #6, #9, #34, ...

........................................................................
.............................. CYCLE    3 ..............................
........................................................................

 iter      E             dE          RMSdq      gap      omega  full diag
   1    -25.8366804 -0.258367E+02  0.284E-02    4.65       0.0  T
   2    -25.8366809 -0.516183E-06  0.164E-02    4.65       1.3  T
   3    -25.8366808  0.126577E-06  0.381E-03    4.65       5.7  T
   4    -25.8366809 -0.163313E-06  0.108E-03    4.65      20.3  T
   5    -25.8366809 -0.138449E-07  0.336E-04    4.65      65.0  T
   6    -25.8366809 -0.123670E-09  0.196E-04    4.65     111.2  T
     SCC iter.                  ...        0 min,  0.002 sec
     gradient                   ...        0 min,  0.005 sec
 * total energy  :   -25.3785826 Eh     change       -0.5029024E-04 Eh
   gradient norm :     0.0013678 Eh/α   predicted    -0.4758637E-04 (  -5.38%)
   displ. norm   :     0.0095599 α      lambda       -0.2804753E-05
   maximum displ.:     0.0046484 α      in ANC's #1, #6, #9, ...

........................................................................
.............................. CYCLE    4 ..............................
........................................................................

 iter      E             dE          RMSdq      gap      omega  full diag
   1    -25.8367288 -0.258367E+02  0.640E-03    4.65       0.0  T
   2    -25.8367289 -0.365586E-07  0.370E-03    4.65       5.9  T
   3    -25.8367289  0.317678E-08  0.828E-04    4.65      26.4  T
   4    -25.8367289 -0.511055E-08  0.268E-04    4.65      81.3  T
     SCC iter.                  ...        0 min,  0.002 sec
     gradient                   ...        0 min,  0.005 sec
 * total energy  :   -25.3785846 Eh     change       -0.2038221E-05 Eh
   gradient norm :     0.0002192 Eh/α   predicted    -0.1403072E-05 ( -31.16%)
   displ. norm   :     0.0056774 α      lambda       -0.1661070E-06
   maximum displ.:     0.0037725 α      in ANC's #1, #3, #2, ...

........................................................................
.............................. CYCLE    5 ..............................
........................................................................

 iter      E             dE          RMSdq      gap      omega  full diag
   1    -25.8365523 -0.258366E+02  0.207E-03    4.65       0.0  T
   2    -25.8365523 -0.955900E-09  0.124E-03    4.65      17.6  T
   3    -25.8365523  0.167007E-08  0.330E-04    4.65      66.1  T
   4    -25.8365523 -0.207801E-08  0.417E-05    4.65     523.6  T
     SCC iter.                  ...        0 min,  0.002 sec
     gradient                   ...        0 min,  0.005 sec
 * total energy  :   -25.3785849 Eh     change       -0.2672238E-06 Eh
   gradient norm :     0.0001085 Eh/α   predicted    -0.1321158E-06 ( -50.56%)
   displ. norm   :     0.0056774 α      lambda        0.0000000E+00
   maximum displ.:     0.0037725 α      in ANC's #1, #3, #2, ...

........................................................................
.............................. CYCLE    6 ..............................
........................................................................

 iter      E             dE          RMSdq      gap      omega  full diag
   1    -25.8363751 -0.258364E+02  0.207E-03    4.65       0.0  T
   2    -25.8363751 -0.100291E-08  0.124E-03    4.65      17.5  T
   3    -25.8363751  0.193486E-08  0.368E-04    4.65      59.3  T
   4    -25.8363751 -0.240763E-08  0.436E-05    4.65     501.0  T
     SCC iter.                  ...        0 min,  0.002 sec
     gradient                   ...        0 min,  0.005 sec
 * total energy  :   -25.3785849 Eh     change       -0.7378670E-08 Eh
   gradient norm :     0.0002217 Eh/α   predicted     0.2827874E-08 (-138.32%)
   displ. norm   :     0.0040248 α      lambda       -0.1049486E-06
   maximum displ.:     0.0028537 α      in ANC's #1, #3, #2, ...

........................................................................
.............................. CYCLE    7 ..............................
........................................................................

 iter      E             dE          RMSdq      gap      omega  full diag
   1    -25.8365079 -0.258365E+02  0.187E-03    4.65       0.0  T
   2    -25.8365079 -0.239808E-09  0.111E-03    4.65      19.6  T
   3    -25.8365079  0.449642E-09  0.165E-04    4.65     132.2  T
   4    -25.8365079 -0.561940E-09  0.221E-05    4.65     988.2  T
     SCC iter.                  ...        0 min,  0.002 sec
     gradient                   ...        0 min,  0.005 sec
 * total energy  :   -25.3785851 Eh     change       -0.2149482E-06 Eh
   gradient norm :     0.0001236 Eh/α   predicted    -0.9784547E-07 ( -54.48%)
   displ. norm   :     0.0076521 α      lambda       -0.1822071E-06
   maximum displ.:     0.0056581 α      in ANC's #1, #2, #4, ...

........................................................................
.............................. CYCLE    8 ..............................
........................................................................

 iter      E             dE          RMSdq      gap      omega  full diag
   1    -25.8366664 -0.258367E+02  0.260E-03    4.65       0.0  T
   2    -25.8366664 -0.632653E-09  0.155E-03    4.65      14.1  T
   3    -25.8366664  0.144930E-08  0.300E-04    4.65      72.8  T
   4    -25.8366664 -0.177508E-08  0.401E-05    4.65     543.6  T
     SCC iter.                  ...        0 min,  0.002 sec
     gradient                   ...        0 min,  0.005 sec
 * total energy  :   -25.3785853 Eh     change       -0.1828213E-06 Eh
   gradient norm :     0.0000722 Eh/α   predicted    -0.9245413E-07 ( -49.43%)
   displ. norm   :     0.0077361 α      lambda        0.3421129E-07
   maximum displ.:     0.0057246 α      in ANC's #1, #2, #4, ...

........................................................................
.............................. CYCLE    9 ..............................
........................................................................

 iter      E             dE          RMSdq      gap      omega  full diag
   1    -25.8368244 -0.258368E+02  0.263E-03    4.65       0.0  T
   2    -25.8368244 -0.622780E-09  0.157E-03    4.65      13.9  T
   3    -25.8368244  0.144664E-08  0.302E-04    4.65      72.3  T
   4    -25.8368244 -0.177257E-08  0.407E-05    4.65     535.6  T
     SCC iter.                  ...        0 min,  0.002 sec
     gradient                   ...        0 min,  0.005 sec
 * total energy  :   -25.3785853 Eh     change        0.1379281E-08 Eh
   gradient norm :     0.0002155 Eh/α   predicted     0.1710047E-07 (1139.81%)
   displ. norm   :     0.0039246 α      lambda       -0.1558230E-06
   maximum displ.:     0.0029220 α      in ANC's #1, #2, #4, ...

........................................................................
.............................. CYCLE   10 ..............................
........................................................................

 iter      E             dE          RMSdq      gap      omega  full diag
   1    -25.8367108 -0.258367E+02  0.179E-03    4.65       0.0  T
   2    -25.8367108 -0.251994E-09  0.106E-03    4.65      20.6  T
   3    -25.8367108  0.458783E-09  0.165E-04    4.65     132.4  T
   4    -25.8367108 -0.566072E-09  0.201E-05    4.65    1085.8  T
     SCC iter.                  ...        0 min,  0.002 sec
     gradient                   ...        0 min,  0.005 sec
 * total energy  :   -25.3785855 Eh     change       -0.1806300E-06 Eh
   gradient norm :     0.0001352 Eh/α   predicted    -0.7846939E-07 ( -56.56%)
   displ. norm   :     0.0080360 α      lambda       -0.2078726E-06
   maximum displ.:     0.0055433 α      in ANC's #1, #2, #4, ...

........................................................................
.............................. CYCLE   11 ..............................
........................................................................

 iter      E             dE          RMSdq      gap      omega  full diag
   1    -25.8365498 -0.258365E+02  0.294E-03    4.65       0.0  T
   2    -25.8365498 -0.829601E-09  0.175E-03    4.65      12.5  T
   3    -25.8365498  0.190169E-08  0.349E-04    4.65      62.6  T
   4    -25.8365498 -0.232642E-08  0.424E-05    4.65     514.5  T
     SCC iter.                  ...        0 min,  0.002 sec
     gradient                   ...        0 min,  0.005 sec
 * total energy  :   -25.3785857 Eh     change       -0.2328902E-06 Eh
   gradient norm :     0.0000657 Eh/α   predicted    -0.1048881E-06 ( -54.96%)
   displ. norm   :     0.0137568 α      lambda       -0.2116778E-06
   maximum displ.:     0.0093984 α      in ANC's #1, #2, #4, ...

........................................................................
.............................. CYCLE   12 ..............................
........................................................................

 iter      E             dE          RMSdq      gap      omega  full diag
   1    -25.8364581 -0.258365E+02  0.495E-03    4.65       0.0  T
   2    -25.8364581 -0.685578E-09  0.291E-03    4.65       7.5  T
   3    -25.8364581  0.393459E-09  0.217E-04    4.65     100.5  T
   4    -25.8364581 -0.749043E-09  0.547E-05    4.65     399.2  T
     SCC iter.                  ...        0 min,  0.002 sec
     gradient                   ...        0 min,  0.005 sec
 * total energy  :   -25.3785860 Eh     change       -0.2890186E-06 Eh
   gradient norm :     0.0001281 Eh/α   predicted    -0.1079322E-06 ( -62.66%)
   displ. norm   :     0.0273941 α      lambda       -0.4093846E-06
   maximum displ.:     0.0183376 α      in ANC's #1, #2, #4, ...

........................................................................
.............................. CYCLE   13 ..............................
........................................................................

 iter      E             dE          RMSdq      gap      omega  full diag
   1    -25.8363786 -0.258364E+02  0.967E-03    4.65       0.0  T
   2    -25.8363786 -0.224550E-08  0.569E-03    4.65       3.8  T
   3    -25.8363786 -0.111957E-09  0.286E-04    4.65      76.2  T
   4    -25.8363786 -0.104423E-08  0.108E-04    4.65     201.4  T
     SCC iter.                  ...        0 min,  0.002 sec
     gradient                   ...        0 min,  0.005 sec
 * total energy  :   -25.3785866 Eh     change       -0.5836950E-06 Eh
   gradient norm :     0.0001914 Eh/α   predicted    -0.2065939E-06 ( -64.61%)
   displ. norm   :     0.0645253 α      lambda       -0.9769218E-06
   maximum displ.:     0.0430415 α      in ANC's #1, #2, #4, ...

........................................................................
.............................. CYCLE   14 ..............................
........................................................................

 iter      E             dE          RMSdq      gap      omega  full diag
   1    -25.8362971 -0.258363E+02  0.230E-02    4.65       0.0  T
   2    -25.8362972 -0.121154E-07  0.135E-02    4.65       1.6  T
   3    -25.8362972 -0.265566E-08  0.569E-04    4.65      38.3  T
   4    -25.8362972 -0.345829E-08  0.253E-04    4.65      86.2  T
     SCC iter.                  ...        0 min,  0.002 sec
     gradient                   ...        0 min,  0.005 sec
 * total energy  :   -25.3785880 Eh     change       -0.1400644E-05 Eh
   gradient norm :     0.0002709 Eh/α   predicted    -0.4899812E-06 ( -65.02%)
   displ. norm   :     0.2033240 α      lambda       -0.3053142E-05
   maximum displ.:     0.1350414 α      in ANC's #1, #2, #4, ...

........................................................................
.............................. CYCLE   15 ..............................
........................................................................

 iter      E             dE          RMSdq      gap      omega  full diag
   1    -25.8357311 -0.258357E+02  0.725E-02    4.65       0.0  T
   2    -25.8357312 -0.131928E-06  0.426E-02    4.65       1.0  T
   3    -25.8357313 -0.203027E-07  0.193E-03    4.65      11.3  T
   4    -25.8357313 -0.421943E-07  0.823E-04    4.65      26.5  T
   5    -25.8357313 -0.865366E-09  0.274E-04    4.65      79.6  T
     SCC iter.                  ...        0 min,  0.002 sec
     gradient                   ...        0 min,  0.005 sec
 * total energy  :   -25.3785915 Eh     change       -0.3524912E-05 Eh
   gradient norm :     0.0009094 Eh/α   predicted    -0.1556986E-05 ( -55.83%)
   displ. norm   :     0.1855930 α      lambda       -0.2727350E-05
   maximum displ.:     0.1238533 α      in ANC's #1, #2, #4, ...

........................................................................
.............................. CYCLE   16 ..............................
........................................................................

 iter      E             dE          RMSdq      gap      omega  full diag
   1    -25.8351667 -0.258352E+02  0.667E-02    4.65       0.0  T
   2    -25.8351668 -0.114955E-06  0.392E-02    4.65       1.0  T
   3    -25.8351668 -0.831392E-08  0.191E-03    4.65      11.5  T
   4    -25.8351669 -0.454958E-07  0.759E-04    4.65      28.8  T
   5    -25.8351669 -0.644842E-09  0.277E-04    4.65      78.7  T
     SCC iter.                  ...        0 min,  0.002 sec
     gradient                   ...        0 min,  0.005 sec
 * total energy  :   -25.3785939 Eh     change       -0.2373113E-05 Eh
   gradient norm :     0.0015603 Eh/α   predicted    -0.1384841E-05 ( -41.64%)
   displ. norm   :     0.0667347 α      lambda       -0.4673342E-05
   maximum displ.:     0.0456725 α      in ANC's #1, #2, #4, ...

........................................................................
.............................. CYCLE   17 ..............................
........................................................................

 iter      E             dE          RMSdq      gap      omega  full diag
   1    -25.8356831 -0.258357E+02  0.248E-02    4.65       0.0  T
   2    -25.8356832 -0.351423E-07  0.145E-02    4.65       1.5  T
   3    -25.8356832 -0.427655E-08  0.630E-04    4.65      34.6  T
   4    -25.8356832 -0.328712E-08  0.281E-04    4.65      77.7  T
     SCC iter.                  ...        0 min,  0.002 sec
     gradient                   ...        0 min,  0.005 sec
 * total energy  :   -25.3785995 Eh     change       -0.5593777E-05 Eh
   gradient norm :     0.0009044 Eh/α   predicted    -0.2342657E-05 ( -58.12%)
   displ. norm   :     0.3648323 α      lambda       -0.1246681E-04
   maximum displ.:     0.2457589 α      in ANC's #2, #1, #4, ...

........................................................................
.............................. CYCLE   18 ..............................
........................................................................

 iter      E             dE          RMSdq      gap      omega  full diag
   1    -25.8350350 -0.258350E+02  0.133E-01    4.66       0.0  T
   2    -25.8350355 -0.455172E-06  0.782E-02    4.66       1.0  T
   3    -25.8350355 -0.412039E-07  0.379E-03    4.66       5.8  T
   4    -25.8350357 -0.169953E-06  0.151E-03    4.66      14.5  T
   5    -25.8350357 -0.281753E-08  0.588E-04    4.66      37.1  T
   6    -25.8350357 -0.963198E-09  0.142E-04    4.66     153.4  T
     SCC iter.                  ...        0 min,  0.002 sec
     gradient                   ...        0 min,  0.005 sec
 * total energy  :   -25.3786162 Eh     change       -0.1673325E-04 Eh
   gradient norm :     0.0015044 Eh/α   predicted    -0.6603247E-05 ( -60.54%)
   displ. norm   :     0.6767846 α      lambda       -0.2676088E-04
   maximum displ.:     0.4651884 α      in ANC's #2, #1, #4, ...

........................................................................
.............................. CYCLE   19 ..............................
........................................................................

 iter      E             dE          RMSdq      gap      omega  full diag
   1    -25.8301838 -0.258302E+02  0.249E-01    4.66       0.0  T
   2    -25.8301866 -0.285184E-05  0.147E-01    4.66       1.0  T
   3    -25.8301865  0.122652E-06  0.889E-03    4.66       2.5  T
   4    -25.8301875 -0.982548E-06  0.344E-03    4.65       6.3  T
   5    -25.8301875 -0.466116E-07  0.164E-03    4.65      13.3  T
   6    -25.8301875 -0.104887E-08  0.568E-04    4.65      38.4  T
   7    -25.8301875 -0.276088E-08  0.143E-04    4.65     153.0  T
     SCC iter.                  ...        0 min,  0.003 sec
     gradient                   ...        0 min,  0.005 sec
 * total energy  :   -25.3785641 Eh     change        0.5212430E-04 Eh
   gradient norm :     0.0081341 Eh/α   predicted    -0.1611373E-04 (-130.91%)
   displ. norm   :     0.2124389 α      lambda       -0.1683559E-03
   maximum displ.:     0.1424265 α      in ANC's #1, #2, #4, ...

........................................................................
.............................. CYCLE   20 ..............................
........................................................................

 iter      E             dE          RMSdq      gap      omega  full diag
   1    -25.8350567 -0.258351E+02  0.800E-02    4.66       0.0  T
   2    -25.8350577 -0.991193E-06  0.467E-02    4.66       1.0  T
   3    -25.8350576  0.131629E-06  0.483E-03    4.66       4.5  T
   4    -25.8350578 -0.273106E-06  0.173E-03    4.66      12.6  T
   5    -25.8350579 -0.215380E-07  0.783E-04    4.66      27.9  T
   6    -25.8350579 -0.210466E-09  0.329E-04    4.66      66.2  T
     SCC iter.                  ...        0 min,  0.003 sec
     gradient                   ...        0 min,  0.005 sec
 * total energy  :   -25.3786514 Eh     change       -0.8727864E-04 Eh
   gradient norm :     0.0022552 Eh/α   predicted    -0.8795467E-04 (   0.77%)
   displ. norm   :     0.0700700 α      lambda       -0.1692348E-04
   maximum displ.:     0.0520120 α      in ANC's #2, #1, #3, ...
 * RMSD in coord.:     0.3280326 α      energy gain  -0.1070483E-02 Eh

generating ANC from exact Hessian ...
Using Lindh-Hessian (1995)
 Shifting diagonal of input Hessian by   8.125161149929068E-003
 Lowest  eigenvalues of input Hessian
    0.000000    0.000000    0.000000    0.000000    0.000000    0.000000
    0.010000    0.010704    0.011121    0.016331    0.018767    0.020340
    0.023530    0.028305    0.031558    0.034231    0.048874    0.052342
 Highest eigenvalues
    1.406755    1.576645    1.612689    1.894111    1.997688    2.025279
 

........................................................................
.............................. CYCLE   21 ..............................
........................................................................

 iter      E             dE          RMSdq      gap      omega  full diag
   1    -25.8361459 -0.258361E+02  0.258E-02    4.67       0.0  T
   2    -25.8361459 -0.525711E-07  0.151E-02    4.67       1.4  T
   3    -25.8361459 -0.421996E-08  0.724E-04    4.67      30.1  T
   4    -25.8361459 -0.454374E-08  0.309E-04    4.67      70.5  T
     SCC iter.                  ...        0 min,  0.002 sec
     gradient                   ...        0 min,  0.005 sec
 * total energy  :   -25.3786651 Eh     change       -0.1371131E-04 Eh
   gradient norm :     0.0011562 Eh/α   predicted     0.0000000E+00 (-100.00%)
   displ. norm   :     0.0278870 α      lambda       -0.8640860E-05
   maximum displ.:     0.0192785 α      in ANC's #2, #3, #1, ...

........................................................................
.............................. CYCLE   22 ..............................
........................................................................

 iter      E             dE          RMSdq      gap      omega  full diag
   1    -25.8368831 -0.258369E+02  0.162E-02    4.67       0.0  T
   2    -25.8368832 -0.640205E-07  0.951E-03    4.67       2.3  T
   3    -25.8368832 -0.149017E-08  0.821E-04    4.67      26.6  T
   4    -25.8368832 -0.466029E-08  0.296E-04    4.67      73.7  T
     SCC iter.                  ...        0 min,  0.002 sec
     gradient                   ...        0 min,  0.005 sec
 * total energy  :   -25.3786719 Eh     change       -0.6853765E-05 Eh
   gradient norm :     0.0005129 Eh/α   predicted    -0.4351735E-05 ( -36.51%)
   displ. norm   :     0.0336320 α      lambda       -0.4246048E-05
   maximum displ.:     0.0256348 α      in ANC's #2, #3, #1, ...

........................................................................
.............................. CYCLE   23 ..............................
........................................................................

 iter      E             dE          RMSdq      gap      omega  full diag
   1    -25.8369755 -0.258370E+02  0.114E-02    4.67       0.0  T
   2    -25.8369755 -0.418454E-08  0.673E-03    4.67       3.2  T
   3    -25.8369755 -0.436305E-09  0.345E-04    4.67      63.2  T
   4    -25.8369755 -0.134711E-08  0.156E-04    4.67     140.1  T
     SCC iter.                  ...        0 min,  0.002 sec
     gradient                   ...        0 min,  0.005 sec
 * total energy  :   -25.3786777 Eh     change       -0.5762427E-05 Eh
   gradient norm :     0.0005539 Eh/α   predicted    -0.2131406E-05 ( -63.01%)
   displ. norm   :     0.0625482 α      lambda       -0.7217226E-05
   maximum displ.:     0.0476666 α      in ANC's #2, #3, #1, ...

........................................................................
.............................. CYCLE   24 ..............................
........................................................................

 iter      E             dE          RMSdq      gap      omega  full diag
   1    -25.8367320 -0.258367E+02  0.202E-02    4.67       0.0  T
   2    -25.8367320 -0.181713E-07  0.119E-02    4.67       1.8  T
   3    -25.8367320 -0.406984E-08  0.529E-04    4.67      41.3  T
   4    -25.8367320 -0.173847E-08  0.298E-04    4.67      73.3  T
     SCC iter.                  ...        0 min,  0.002 sec
     gradient                   ...        0 min,  0.005 sec
 * total energy  :   -25.3786868 Eh     change       -0.9135318E-05 Eh
   gradient norm :     0.0002859 Eh/α   predicted    -0.3615339E-05 ( -60.42%)
   displ. norm   :     0.0688444 α      lambda       -0.6260452E-05
   maximum displ.:     0.0568534 α      in ANC's #2, #3, #1, ...

........................................................................
.............................. CYCLE   25 ..............................
........................................................................

 iter      E             dE          RMSdq      gap      omega  full diag
   1    -25.8365767 -0.258366E+02  0.217E-02    4.67       0.0  T
   2    -25.8365767 -0.165700E-07  0.128E-02    4.67       1.7  T
   3    -25.8365767 -0.607084E-09  0.735E-04    4.67      29.7  T
   4    -25.8365767 -0.604533E-08  0.330E-04    4.67      66.2  T
     SCC iter.                  ...        0 min,  0.002 sec
     gradient                   ...        0 min,  0.005 sec
 * total energy  :   -25.3786952 Eh     change       -0.8413523E-05 Eh
   gradient norm :     0.0003912 Eh/α   predicted    -0.3139807E-05 ( -62.68%)
   displ. norm   :     0.0476725 α      lambda       -0.4554192E-05
   maximum displ.:     0.0422884 α      in ANC's #2, #3, #5, ...

........................................................................
.............................. CYCLE   26 ..............................
........................................................................

 iter      E             dE          RMSdq      gap      omega  full diag
   1    -25.8366027 -0.258366E+02  0.156E-02    4.67       0.0  T
   2    -25.8366027 -0.646727E-08  0.923E-03    4.67       2.4  T
   3    -25.8366027 -0.260272E-09  0.515E-04    4.67      42.4  T
   4    -25.8366027 -0.287506E-08  0.221E-04    4.67      98.8  T
     SCC iter.                  ...        0 min,  0.002 sec
     gradient                   ...        0 min,  0.005 sec
 * total energy  :   -25.3787019 Eh     change       -0.6616101E-05 Eh
   gradient norm :     0.0003854 Eh/α   predicted    -0.2279889E-05 ( -65.54%)
   displ. norm   :     0.0375228 α      lambda       -0.4296489E-05
   maximum displ.:     0.0347602 α      in ANC's #2, #3, #1, ...

........................................................................
.............................. CYCLE   27 ..............................
........................................................................

 iter      E             dE          RMSdq      gap      omega  full diag
   1    -25.8366835 -0.258367E+02  0.135E-02    4.67       0.0  T
   2    -25.8366835 -0.546570E-08  0.796E-03    4.67       2.7  T
   3    -25.8366835  0.244583E-09  0.472E-04    4.67      46.3  T
   4    -25.8366835 -0.259271E-08  0.182E-04    4.67     119.7  T
     SCC iter.                  ...        0 min,  0.002 sec
     gradient                   ...        0 min,  0.005 sec
 * total energy  :   -25.3787081 Eh     change       -0.6253320E-05 Eh
   gradient norm :     0.0003021 Eh/α   predicted    -0.2151235E-05 ( -65.60%)
   displ. norm   :     0.0386389 α      lambda       -0.4585972E-05
   maximum displ.:     0.0352048 α      in ANC's #2, #1, #3, ...

........................................................................
.............................. CYCLE   28 ..............................
........................................................................

 iter      E             dE          RMSdq      gap      omega  full diag
   1    -25.8367601 -0.258368E+02  0.149E-02    4.67       0.0  T
   2    -25.8367601 -0.674599E-08  0.877E-03    4.67       2.5  T
   3    -25.8367601  0.547448E-09  0.516E-04    4.67      42.3  T
   4    -25.8367601 -0.322740E-08  0.185E-04    4.67     118.0  T
     SCC iter.                  ...        0 min,  0.002 sec
     gradient                   ...        0 min,  0.005 sec
 * total energy  :   -25.3787148 Eh     change       -0.6672234E-05 Eh
   gradient norm :     0.0002250 Eh/α   predicted    -0.2295930E-05 ( -65.59%)
   displ. norm   :     0.0463803 α      lambda       -0.5317791E-05
   maximum displ.:     0.0403357 α      in ANC's #2, #1, #3, ...

........................................................................
.............................. CYCLE   29 ..............................
........................................................................

 iter      E             dE          RMSdq      gap      omega  full diag
   1    -25.8368146 -0.258368E+02  0.181E-02    4.67       0.0  T
   2    -25.8368146 -0.946342E-08  0.106E-02    4.67       2.1  T
   3    -25.8368146  0.559222E-09  0.621E-04    4.67      35.1  T
   4    -25.8368146 -0.465232E-08  0.223E-04    4.67      97.7  T
     SCC iter.                  ...        0 min,  0.002 sec
     gradient                   ...        0 min,  0.005 sec
 * total energy  :   -25.3787226 Eh     change       -0.7825016E-05 Eh
   gradient norm :     0.0002274 Eh/α   predicted    -0.2664540E-05 ( -65.95%)
   displ. norm   :     0.0609264 α      lambda       -0.6782908E-05
   maximum displ.:     0.0503863 α      in ANC's #2, #1, #3, ...

........................................................................
.............................. CYCLE   30 ..............................
........................................................................

 iter      E             dE          RMSdq      gap      omega  full diag
   1    -25.8368450 -0.258368E+02  0.237E-02    4.67       0.0  T
   2    -25.8368450 -0.152806E-07  0.139E-02    4.67       1.6  T
   3    -25.8368450  0.985278E-09  0.786E-04    4.67      27.8  T
   4    -25.8368450 -0.759975E-08  0.277E-04    4.67      78.8  T
     SCC iter.                  ...        0 min,  0.002 sec
     gradient                   ...        0 min,  0.005 sec
 * total energy  :   -25.3787328 Eh     change       -0.1018960E-04 Eh
   gradient norm :     0.0002881 Eh/α   predicted    -0.3401703E-05 ( -66.62%)
   displ. norm   :     0.0930753 α      lambda       -0.1033407E-04
   maximum displ.:     0.0736694 α      in ANC's #2, #1, #3, ...

........................................................................
.............................. CYCLE   31 ..............................
........................................................................

 iter      E             dE          RMSdq      gap      omega  full diag
   1    -25.8368007 -0.258368E+02  0.360E-02    4.67       0.0  T
   2    -25.8368008 -0.350329E-07  0.212E-02    4.67       1.0  T
   3    -25.8368008  0.213105E-08  0.119E-03    4.67      18.4  T
   4    -25.8368008 -0.174536E-07  0.417E-04    4.67      52.3  T
   5    -25.8368008 -0.267683E-09  0.188E-04    4.67     115.8  T
     SCC iter.                  ...        0 min,  0.002 sec
     gradient                   ...        0 min,  0.005 sec
 * total energy  :   -25.3787484 Eh     change       -0.1559616E-04 Eh
   gradient norm :     0.0004190 Eh/α   predicted    -0.5190138E-05 ( -66.72%)
   displ. norm   :     0.0935447 α      lambda       -0.1059765E-04
   maximum displ.:     0.0743910 α      in ANC's #2, #1, #3, ...

........................................................................
.............................. CYCLE   32 ..............................
........................................................................

 iter      E             dE          RMSdq      gap      omega  full diag
   1    -25.8366768 -0.258367E+02  0.362E-02    4.67       0.0  T
   2    -25.8366768 -0.370952E-07  0.213E-02    4.67       1.0  T
   3    -25.8366768  0.110198E-08  0.116E-03    4.67      18.8  T
   4    -25.8366769 -0.166129E-07  0.426E-04    4.67      51.2  T
   5    -25.8366769 -0.326100E-09  0.196E-04    4.67     111.5  T
     SCC iter.                  ...        0 min,  0.002 sec
     gradient                   ...        0 min,  0.005 sec
 * total energy  :   -25.3787644 Eh     change       -0.1602967E-04 Eh
   gradient norm :     0.0005966 Eh/α   predicted    -0.5320254E-05 ( -66.81%)
   displ. norm   :     0.0935173 α      lambda       -0.1095575E-04
   maximum displ.:     0.0747162 α      in ANC's #2, #1, #3, ...

........................................................................
.............................. CYCLE   33 ..............................
........................................................................

 iter      E             dE          RMSdq      gap      omega  full diag
   1    -25.8365422 -0.258365E+02  0.362E-02    4.67       0.0  T
   2    -25.8365423 -0.367896E-07  0.213E-02    4.67       1.0  T
   3    -25.8365423  0.781409E-09  0.115E-03    4.67      19.0  T
   4    -25.8365423 -0.161569E-07  0.427E-04    4.67      51.1  T
   5    -25.8365423 -0.323425E-09  0.195E-04    4.67     112.1  T
     SCC iter.                  ...        0 min,  0.002 sec
     gradient                   ...        0 min,  0.005 sec
 * total energy  :   -25.3787811 Eh     change       -0.1662775E-04 Eh
   gradient norm :     0.0008108 Eh/α   predicted    -0.5503080E-05 ( -66.90%)
   displ. norm   :     0.0925829 α      lambda       -0.1141207E-04
   maximum displ.:     0.0742669 α      in ANC's #2, #1, #3, ...

........................................................................
.............................. CYCLE   34 ..............................
........................................................................

 iter      E             dE          RMSdq      gap      omega  full diag
   1    -25.8364020 -0.258364E+02  0.358E-02    4.67       0.0  T
   2    -25.8364020 -0.360490E-07  0.210E-02    4.67       1.0  T
   3    -25.8364020  0.425459E-09  0.113E-03    4.67      19.4  T
   4    -25.8364020 -0.153918E-07  0.426E-04    4.67      51.3  T
   5    -25.8364020 -0.329329E-09  0.193E-04    4.67     112.9  T
     SCC iter.                  ...        0 min,  0.002 sec
     gradient                   ...        0 min,  0.005 sec
 * total energy  :   -25.3787984 Eh     change       -0.1730995E-04 Eh
   gradient norm :     0.0010419 Eh/α   predicted    -0.5731946E-05 ( -66.89%)
   displ. norm   :     0.0907400 α      lambda       -0.1191776E-04
   maximum displ.:     0.0730605 α      in ANC's #2, #1, #3, ...

........................................................................
.............................. CYCLE   35 ..............................
........................................................................

 iter      E             dE          RMSdq      gap      omega  full diag
   1    -25.8362717 -0.258363E+02  0.350E-02    4.68       0.0  T
   2    -25.8362718 -0.343489E-07  0.206E-02    4.68       1.1  T
   3    -25.8362718  0.217508E-09  0.110E-03    4.68      19.9  T
   4    -25.8362718 -0.144671E-07  0.419E-04    4.68      52.1  T
   5    -25.8362718 -0.319577E-09  0.189E-04    4.68     115.5  T
     SCC iter.                  ...        0 min,  0.002 sec
     gradient                   ...        0 min,  0.005 sec
 * total energy  :   -25.3788164 Eh     change       -0.1804529E-04 Eh
   gradient norm :     0.0012653 Eh/α   predicted    -0.5985435E-05 ( -66.83%)
   displ. norm   :     0.0883030 α      lambda       -0.1243681E-04
   maximum displ.:     0.0714743 α      in ANC's #2, #1, #3, ...

........................................................................
.............................. CYCLE   36 ..............................
........................................................................

 iter      E             dE          RMSdq      gap      omega  full diag
   1    -25.8361520 -0.258362E+02  0.340E-02    4.68       0.0  T
   2    -25.8361520 -0.322956E-07  0.200E-02    4.68       1.1  T
   3    -25.8361520 -0.298868E-09  0.105E-03    4.68      20.8  T
   4    -25.8361521 -0.130281E-07  0.409E-04    4.68      53.4  T
   5    -25.8361521 -0.312074E-09  0.184E-04    4.68     118.6  T
     SCC iter.                  ...        0 min,  0.002 sec
     gradient                   ...        0 min,  0.005 sec
 * total energy  :   -25.3788352 Eh     change       -0.1882776E-04 Eh
   gradient norm :     0.0014773 Eh/α   predicted    -0.6240254E-05 ( -66.86%)
   displ. norm   :     0.0852249 α      lambda       -0.1292932E-04
   maximum displ.:     0.0692745 α      in ANC's #2, #1, #3, ...

........................................................................
.............................. CYCLE   37 ..............................
........................................................................

 iter      E             dE          RMSdq      gap      omega  full diag
   1    -25.8360542 -0.258361E+02  0.327E-02    4.68       0.0  T
   2    -25.8360543 -0.296205E-07  0.192E-02    4.68       1.1  T
   3    -25.8360543 -0.504208E-09  0.100E-03    4.68      21.8  T
   4    -25.8360543 -0.117676E-07  0.395E-04    4.68      55.2  T
   5    -25.8360543 -0.288814E-09  0.176E-04    4.68     123.7  T
     SCC iter.                  ...        0 min,  0.002 sec
     gradient                   ...        0 min,  0.005 sec
 * total energy  :   -25.3788548 Eh     change       -0.1955995E-04 Eh
   gradient norm :     0.0016594 Eh/α   predicted    -0.6485883E-05 ( -66.84%)
   displ. norm   :     0.0843493 α      lambda       -0.1337096E-04
   maximum displ.:     0.0685245 α      in ANC's #2, #1, #3, ...

........................................................................
.............................. CYCLE   38 ..............................
........................................................................

 iter      E             dE          RMSdq      gap      omega  full diag
   1    -25.8359422 -0.258359E+02  0.324E-02    4.68       0.0  T
   2    -25.8359423 -0.292310E-07  0.190E-02    4.68       1.1  T
   3    -25.8359423 -0.311090E-09  0.100E-03    4.68      21.8  T
   4    -25.8359423 -0.117382E-07  0.394E-04    4.68      55.4  T
   5    -25.8359423 -0.298463E-09  0.176E-04    4.68     124.3  T
     SCC iter.                  ...        0 min,  0.002 sec
     gradient                   ...        0 min,  0.005 sec
 * total energy  :   -25.3788753 Eh     change       -0.2048518E-04 Eh
   gradient norm :     0.0018362 Eh/α   predicted    -0.6709855E-05 ( -67.25%)
   displ. norm   :     0.0772570 α      lambda       -0.1379382E-04
   maximum displ.:     0.0634187 α      in ANC's #2, #1, #3, ...

........................................................................
.............................. CYCLE   39 ..............................
........................................................................

 iter      E             dE          RMSdq      gap      omega  full diag
   1    -25.8359242 -0.258359E+02  0.295E-02    4.68       0.0  T
   2    -25.8359242 -0.232131E-07  0.173E-02    4.68       1.3  T
   3    -25.8359242 -0.179914E-08  0.848E-04    4.68      25.7  T
   4    -25.8359242 -0.788335E-08  0.356E-04    4.68      61.3  T
     SCC iter.                  ...        0 min,  0.002 sec
     gradient                   ...        0 min,  0.005 sec
 * total energy  :   -25.3788961 Eh     change       -0.2082197E-04 Eh
   gradient norm :     0.0019424 Eh/α   predicted    -0.6915760E-05 ( -66.79%)
   displ. norm   :     0.0768116 α      lambda       -0.1412567E-04
   maximum displ.:     0.0631096 α      in ANC's #2, #1, #3, ...

........................................................................
.............................. CYCLE   40 ..............................
........................................................................

 iter      E             dE          RMSdq      gap      omega  full diag
   1    -25.8358338 -0.258358E+02  0.293E-02    4.68       0.0  T
   2    -25.8358339 -0.233800E-07  0.172E-02    4.68       1.3  T
   3    -25.8358339  0.719798E-09  0.958E-04    4.68      22.8  T
   4    -25.8358339 -0.107009E-07  0.363E-04    4.68      60.1  T
     SCC iter.                  ...        0 min,  0.002 sec
     gradient                   ...        0 min,  0.005 sec
 * total energy  :   -25.3789176 Eh     change       -0.2146619E-04 Eh
   gradient norm :     0.0020889 Eh/α   predicted    -0.7082655E-05 ( -67.01%)
   displ. norm   :     0.0469974 α      lambda       -0.1438254E-04
   maximum displ.:     0.0388781 α      in ANC's #2, #1, #3, ...

........................................................................
.............................. CYCLE   41 ..............................
........................................................................

 iter      E             dE          RMSdq      gap      omega  full diag
   1    -25.8358473 -0.258358E+02  0.178E-02    4.68       0.0  T
   2    -25.8358474 -0.812062E-08  0.105E-02    4.68       2.1  T
   3    -25.8358474  0.147544E-10  0.567E-04    4.68      38.5  T
   4    -25.8358474 -0.363977E-08  0.221E-04    4.68      99.0  T
     SCC iter.                  ...        0 min,  0.002 sec
     gradient                   ...        0 min,  0.005 sec
 * total energy  :   -25.3789320 Eh     change       -0.1442258E-04 Eh
   gradient norm :     0.0021102 Eh/α   predicted    -0.7207886E-05 ( -50.02%)
   displ. norm   :     0.0470725 α      lambda       -0.1451133E-04
   maximum displ.:     0.0389666 α      in ANC's #2, #1, #3, ...

........................................................................
.............................. CYCLE   42 ..............................
........................................................................

 iter      E             dE          RMSdq      gap      omega  full diag
   1    -25.8358210 -0.258358E+02  0.179E-02    4.68       0.0  T
   2    -25.8358210 -0.841048E-08  0.105E-02    4.68       2.1  T
   3    -25.8358210 -0.220918E-09  0.552E-04    4.68      39.5  T
   4    -25.8358210 -0.340265E-08  0.221E-04    4.68      98.5  T
     SCC iter.                  ...        0 min,  0.002 sec
     gradient                   ...        0 min,  0.005 sec
 * total energy  :   -25.3789465 Eh     change       -0.1454093E-04 Eh
   gradient norm :     0.0021737 Eh/α   predicted    -0.7273439E-05 ( -49.98%)
   displ. norm   :     0.0464133 α      lambda       -0.1461055E-04
   maximum displ.:     0.0384102 α      in ANC's #2, #1, #3, ...
 * RMSD in coord.:     0.2943250 α      energy gain  -0.2951660E-03 Eh

generating ANC from exact Hessian ...
Using Lindh-Hessian (1995)
 Shifting diagonal of input Hessian by   8.126437439676492E-003
 Lowest  eigenvalues of input Hessian
    0.000000    0.000000    0.000000    0.000000    0.000000    0.000000
    0.010000    0.010690    0.010962    0.016664    0.018763    0.020253
    0.023529    0.027707    0.031463    0.034616    0.048738    0.052109
 Highest eigenvalues
    1.405920    1.576559    1.611803    1.893524    1.996772    2.024407
 

........................................................................
.............................. CYCLE   43 ..............................
........................................................................

 iter      E             dE          RMSdq      gap      omega  full diag
   1    -25.8357874 -0.258358E+02  0.176E-02    4.68       0.0  T
   2    -25.8357874 -0.819686E-08  0.104E-02    4.68       2.1  T
   3    -25.8357874 -0.215401E-09  0.546E-04    4.68      40.0  T
   4    -25.8357874 -0.331389E-08  0.219E-04    4.68      99.6  T
     SCC iter.                  ...        0 min,  0.002 sec
     gradient                   ...        0 min,  0.005 sec
 * total energy  :   -25.3789613 Eh     change       -0.1476730E-04 Eh
   gradient norm :     0.0022365 Eh/α   predicted     0.0000000E+00 (-100.00%)
   displ. norm   :     0.0402313 α      lambda       -0.3058968E-04
   maximum displ.:     0.0247415 α      in ANC's #2, #3, #4, ...

........................................................................
.............................. CYCLE   44 ..............................
........................................................................

 iter      E             dE          RMSdq      gap      omega  full diag
   1    -25.8368498 -0.258368E+02  0.172E-02    4.68       0.0  T
   2    -25.8368498 -0.462556E-07  0.101E-02    4.68       2.2  T
   3    -25.8368498  0.916756E-09  0.846E-04    4.68      25.8  T
   4    -25.8368498 -0.738498E-08  0.316E-04    4.68      69.2  T
     SCC iter.                  ...        0 min,  0.002 sec
     gradient                   ...        0 min,  0.005 sec
 * total energy  :   -25.3789863 Eh     change       -0.2501960E-04 Eh
   gradient norm :     0.0008789 Eh/α   predicted    -0.1535112E-04 ( -38.64%)
   displ. norm   :     0.1627947 α      lambda       -0.5223949E-04
   maximum displ.:     0.1080931 α      in ANC's #2, #3, #4, ...

........................................................................
.............................. CYCLE   45 ..............................
........................................................................

 iter      E             dE          RMSdq      gap      omega  full diag
   1    -25.8385751 -0.258386E+02  0.603E-02    4.68       0.0  T
   2    -25.8385753 -0.183581E-06  0.355E-02    4.68       1.0  T
   3    -25.8385753 -0.222277E-07  0.172E-03    4.68      12.7  T
   4    -25.8385753 -0.292622E-07  0.786E-04    4.68      27.8  T
   5    -25.8385753 -0.148719E-08  0.392E-04    4.68      55.6  T
     SCC iter.                  ...        0 min,  0.002 sec
     gradient                   ...        0 min,  0.005 sec
 * total energy  :   -25.3790363 Eh     change       -0.5002505E-04 Eh
   gradient norm :     0.0022550 Eh/α   predicted    -0.2643351E-04 ( -47.16%)
   displ. norm   :     0.0956950 α      lambda       -0.3343761E-04
   maximum displ.:     0.0766046 α      in ANC's #2, #3, #5, ...

........................................................................
.............................. CYCLE   46 ..............................
........................................................................

 iter      E             dE          RMSdq      gap      omega  full diag
   1    -25.8382131 -0.258382E+02  0.331E-02    4.68       0.0  T
   2    -25.8382132 -0.382583E-07  0.195E-02    4.68       1.1  T
   3    -25.8382132 -0.525683E-08  0.998E-04    4.68      21.9  T
   4    -25.8382132 -0.906390E-08  0.492E-04    4.68      44.4  T
     SCC iter.                  ...        0 min,  0.002 sec
     gradient                   ...        0 min,  0.005 sec
 * total energy  :   -25.3790684 Eh     change       -0.3203256E-04 Eh
   gradient norm :     0.0018585 Eh/α   predicted    -0.1687283E-04 ( -47.33%)
   displ. norm   :     0.1625866 α      lambda       -0.4591438E-04
   maximum displ.:     0.1319047 α      in ANC's #2, #3, #5, ...

........................................................................
.............................. CYCLE   47 ..............................
........................................................................

 iter      E             dE          RMSdq      gap      omega  full diag
   1    -25.8367181 -0.258367E+02  0.566E-02    4.68       0.0  T
   2    -25.8367183 -0.201271E-06  0.333E-02    4.68       1.0  T
   3    -25.8367183  0.813814E-08  0.220E-03    4.68       9.9  T
   4    -25.8367184 -0.548263E-07  0.946E-04    4.68      23.1  T
   5    -25.8367184 -0.416211E-08  0.449E-04    4.68      48.6  T
     SCC iter.                  ...        0 min,  0.002 sec
     gradient                   ...        0 min,  0.005 sec
 * total energy  :   -25.3791298 Eh     change       -0.6145171E-04 Eh
   gradient norm :     0.0012735 Eh/α   predicted    -0.2322763E-04 ( -62.20%)
   displ. norm   :     0.1596805 α      lambda       -0.4399924E-04
   maximum displ.:     0.1303206 α      in ANC's #2, #3, #5, ...

........................................................................
.............................. CYCLE   48 ..............................
........................................................................

 iter      E             dE          RMSdq      gap      omega  full diag
   1    -25.8355090 -0.258355E+02  0.574E-02    4.68       0.0  T
   2    -25.8355092 -0.170331E-06  0.338E-02    4.68       1.0  T
   3    -25.8355092  0.452267E-08  0.207E-03    4.68      10.5  T
   4    -25.8355092 -0.501496E-07  0.879E-04    4.68      24.8  T
   5    -25.8355093 -0.300292E-08  0.421E-04    4.68      51.8  T
     SCC iter.                  ...        0 min,  0.002 sec
     gradient                   ...        0 min,  0.005 sec
 * total energy  :   -25.3791897 Eh     change       -0.5988209E-04 Eh
   gradient norm :     0.0029345 Eh/α   predicted    -0.2224990E-04 ( -62.84%)
   displ. norm   :     0.1055800 α      lambda       -0.4762807E-04
   maximum displ.:     0.0855309 α      in ANC's #2, #3, #4, ...

........................................................................
.............................. CYCLE   49 ..............................
........................................................................

 iter      E             dE          RMSdq      gap      omega  full diag
   1    -25.8351917 -0.258352E+02  0.399E-02    4.68       0.0  T
   2    -25.8351917 -0.481382E-07  0.235E-02    4.68       1.0  T
   3    -25.8351917 -0.377784E-08  0.116E-03    4.68      18.8  T
   4    -25.8351918 -0.151084E-07  0.506E-04    4.68      43.1  T
   5    -25.8351918 -0.491081E-09  0.223E-04    4.68      97.8  T
     SCC iter.                  ...        0 min,  0.002 sec
     gradient                   ...        0 min,  0.005 sec
 * total energy  :   -25.3792347 Eh     change       -0.4498984E-04 Eh
   gradient norm :     0.0035383 Eh/α   predicted    -0.2408089E-04 ( -46.47%)
   displ. norm   :     0.1637345 α      lambda       -0.7791319E-04
   maximum displ.:     0.1322251 α      in ANC's #2, #3, #1, ...

........................................................................
.............................. CYCLE   50 ..............................
........................................................................

 iter      E             dE          RMSdq      gap      omega  full diag
   1    -25.8349675 -0.258350E+02  0.628E-02    4.68       0.0  T
   2    -25.8349676 -0.106138E-06  0.369E-02    4.68       1.0  T
   3    -25.8349676 -0.170639E-07  0.169E-03    4.68      12.9  T
   4    -25.8349677 -0.282505E-07  0.778E-04    4.68      28.0  T
   5    -25.8349677 -0.106510E-08  0.319E-04    4.68      68.5  T
     SCC iter.                  ...        0 min,  0.002 sec
     gradient                   ...        0 min,  0.005 sec
 * total energy  :   -25.3793063 Eh     change       -0.7164874E-04 Eh
   gradient norm :     0.0040279 Eh/α   predicted    -0.4000251E-04 ( -44.17%)
   displ. norm   :     0.2631375 α      lambda       -0.1197872E-03
   maximum displ.:     0.2151816 α      in ANC's #2, #3, #1, ...

........................................................................
.............................. CYCLE   51 ..............................
........................................................................

 iter      E             dE          RMSdq      gap      omega  full diag
   1    -25.8343601 -0.258344E+02  0.100E-01    4.68       0.0  T
   2    -25.8343604 -0.290716E-06  0.591E-02    4.68       1.0  T
   3    -25.8343604 -0.582606E-07  0.251E-03    4.68       8.7  T
   4    -25.8343605 -0.530692E-07  0.126E-03    4.68      17.4  T
   5    -25.8343605 -0.403625E-08  0.556E-04    4.68      39.2  T
   6    -25.8343605 -0.720860E-09  0.133E-04    4.68     164.5  T
     SCC iter.                  ...        0 min,  0.002 sec
     gradient                   ...        0 min,  0.005 sec
 * total energy  :   -25.3794102 Eh     change       -0.1038151E-03 Eh
   gradient norm :     0.0051014 Eh/α   predicted    -0.6404125E-04 ( -38.31%)
   displ. norm   :     0.4677593 α      lambda       -0.1903362E-03
   maximum displ.:     0.3911415 α      in ANC's #2, #3, #1, ...

........................................................................
.............................. CYCLE   52 ..............................
........................................................................

 iter      E             dE          RMSdq      gap      omega  full diag
   1    -25.8313963 -0.258314E+02  0.178E-01    4.68       0.0  T
   2    -25.8313977 -0.141136E-05  0.105E-01    4.68       1.0  T
   3    -25.8313980 -0.217166E-06  0.448E-03    4.68       4.9  T
   4    -25.8313981 -0.138029E-06  0.240E-03    4.68       9.1  T
   5    -25.8313981 -0.250974E-07  0.121E-03    4.68      18.0  T
   6    -25.8313981 -0.213945E-08  0.316E-04    4.68      69.0  T
   7    -25.8313981 -0.665342E-09  0.925E-05    4.68     235.8  T
     SCC iter.                  ...        0 min,  0.003 sec
     gradient                   ...        0 min,  0.005 sec
 * total energy  :   -25.3795169 Eh     change       -0.1067167E-03 Eh
   gradient norm :     0.0095585 Eh/α   predicted    -0.1159963E-03 (   8.70%)
   displ. norm   :     0.0849457 α      lambda       -0.1223015E-03
   maximum displ.:     0.0747182 α      in ANC's #2, #1, #35, ...

........................................................................
.............................. CYCLE   53 ..............................
........................................................................

 iter      E             dE          RMSdq      gap      omega  full diag
   1    -25.8332642 -0.258333E+02  0.346E-02    4.69       0.0  T
   2    -25.8332645 -0.226933E-06  0.202E-02    4.68       1.1  T
   3    -25.8332645 -0.111241E-07  0.139E-03    4.69      15.7  T
   4    -25.8332645 -0.104688E-07  0.560E-04    4.69      38.9  T
   5    -25.8332645 -0.166245E-08  0.324E-04    4.69      67.3  T
     SCC iter.                  ...        0 min,  0.002 sec
     gradient                   ...        0 min,  0.005 sec
 * total energy  :   -25.3796173 Eh     change       -0.1004147E-03 Eh
   gradient norm :     0.0075705 Eh/α   predicted    -0.6159828E-04 ( -38.66%)
   displ. norm   :     0.3755940 α      lambda       -0.3030970E-03
   maximum displ.:     0.3348532 α      in ANC's #2, #3, #1, ...

........................................................................
.............................. CYCLE   54 ..............................
........................................................................

 iter      E             dE          RMSdq      gap      omega  full diag
   1    -25.8355179 -0.258355E+02  0.143E-01    4.69       0.0  T
   2    -25.8355183 -0.448636E-06  0.841E-02    4.69       1.0  T
   3    -25.8355185 -0.127976E-06  0.280E-03    4.69       7.8  T
   4    -25.8355185 -0.644743E-07  0.146E-03    4.69      14.9  T
   5    -25.8355185 -0.218705E-08  0.482E-04    4.69      45.3  T
   6    -25.8355185 -0.100637E-08  0.912E-05    4.69     239.2  T
     SCC iter.                  ...        0 min,  0.002 sec
     gradient                   ...        0 min,  0.005 sec
 * total energy  :   -25.3798636 Eh     change       -0.2462915E-03 Eh
   gradient norm :     0.0061163 Eh/α   predicted    -0.1729413E-03 ( -29.78%)
   displ. norm   :     0.5309711 α      lambda       -0.3553138E-03
   maximum displ.:     0.4682133 α      in ANC's #2, #3, #1, ...

........................................................................
.............................. CYCLE   55 ..............................
........................................................................

 iter      E             dE          RMSdq      gap      omega  full diag
   1    -25.8344734 -0.258345E+02  0.204E-01    4.69       0.0  T
   2    -25.8344748 -0.144119E-05  0.120E-01    4.69       1.0  T
   3    -25.8344751 -0.286798E-06  0.419E-03    4.69       5.2  T
   4    -25.8344752 -0.124749E-06  0.217E-03    4.69      10.0  T
   5    -25.8344752 -0.103856E-07  0.105E-03    4.69      20.8  T
   6    -25.8344752 -0.279055E-08  0.218E-04    4.69     100.3  T
   7    -25.8344752 -0.387097E-09  0.772E-05    4.69     282.7  T
     SCC iter.                  ...        0 min,  0.003 sec
     gradient                   ...        0 min,  0.005 sec
 * total energy  :   -25.3801277 Eh     change       -0.2641541E-03 Eh
   gradient norm :     0.0073362 Eh/α   predicted    -0.2277454E-03 ( -13.78%)
   displ. norm   :     0.3520593 α      lambda       -0.5050297E-03
   maximum displ.:     0.2586429 α      in ANC's #2, #4, #35, ...

........................................................................
.............................. CYCLE   56 ..............................
........................................................................

 iter      E             dE          RMSdq      gap      omega  full diag
   1    -25.8446492 -0.258446E+02  0.162E-01    4.70       0.0  T
   2    -25.8446541 -0.488400E-05  0.946E-02    4.70       1.0  T
   3    -25.8446538  0.296236E-06  0.865E-03    4.70       2.5  T
   4    -25.8446546 -0.840542E-06  0.301E-03    4.70       7.3  T
   5    -25.8446547 -0.691581E-07  0.150E-03    4.70      14.5  T
   6    -25.8446547  0.678249E-09  0.636E-04    4.70      34.3  T
   7    -25.8446547 -0.338100E-08  0.161E-04    4.70     135.7  T
     SCC iter.                  ...        0 min,  0.003 sec
     gradient                   ...        0 min,  0.005 sec
 * total energy  :   -25.3801439 Eh     change       -0.1617675E-04 Eh
   gradient norm :     0.0101892 Eh/α   predicted    -0.2838144E-03 (1654.46%)
   displ. norm   :     0.4349547 α      lambda       -0.5269643E-03
   maximum displ.:     0.3773787 α      in ANC's #2, #3, #1, ...

........................................................................
.............................. CYCLE   57 ..............................
........................................................................

 iter      E             dE          RMSdq      gap      omega  full diag
   1    -25.8344184 -0.258344E+02  0.179E-01    4.69       0.0  T
   2    -25.8344245 -0.611721E-05  0.104E-01    4.69       1.0  T
   3    -25.8344248 -0.290802E-06  0.703E-03    4.69       3.1  T
   4    -25.8344251 -0.282210E-06  0.295E-03    4.69       7.4  T
   5    -25.8344251 -0.473439E-07  0.164E-03    4.69      13.3  T
   6    -25.8344251 -0.355807E-08  0.321E-04    4.69      68.0  T
   7    -25.8344251 -0.350351E-09  0.111E-04    4.69     196.0  T
     SCC iter.                  ...        0 min,  0.003 sec
     gradient                   ...        0 min,  0.005 sec
 * total energy  :   -25.3803663 Eh     change       -0.2223710E-03 Eh
   gradient norm :     0.0075324 Eh/α   predicted    -0.3133308E-03 (  40.90%)
   displ. norm   :     0.1988254 α      lambda       -0.1979199E-03
   maximum displ.:     0.1583811 α      in ANC's #2, #4, #3, ...

........................................................................
.............................. CYCLE   58 ..............................
........................................................................

 iter      E             dE          RMSdq      gap      omega  full diag
   1    -25.8372647 -0.258373E+02  0.952E-02    4.69       0.0  T
   2    -25.8372662 -0.152285E-05  0.559E-02    4.69       1.0  T
   3    -25.8372662  0.401216E-07  0.429E-03    4.69       5.1  T
   4    -25.8372664 -0.196425E-06  0.159E-03    4.69      13.7  T
   5    -25.8372664 -0.216249E-07  0.806E-04    4.69      27.1  T
   6    -25.8372664 -0.701377E-09  0.333E-04    4.69      65.6  T
     SCC iter.                  ...        0 min,  0.002 sec
     gradient                   ...        0 min,  0.005 sec
 * total energy  :   -25.3804291 Eh     change       -0.6276823E-04 Eh
   gradient norm :     0.0029782 Eh/α   predicted    -0.1028727E-03 (  63.89%)
   displ. norm   :     0.2087255 α      lambda       -0.9179711E-04
   maximum displ.:     0.1799233 α      in ANC's #2, #4, #1, ...

........................................................................
.............................. CYCLE   59 ..............................
........................................................................

 iter      E             dE          RMSdq      gap      omega  full diag
   1    -25.8376765 -0.258377E+02  0.809E-02    4.69       0.0  T
   2    -25.8376767 -0.166372E-06  0.477E-02    4.69       1.0  T
   3    -25.8376767 -0.535678E-09  0.220E-03    4.69       9.9  T
   4    -25.8376768 -0.685371E-07  0.844E-04    4.69      25.9  T
   5    -25.8376768 -0.475996E-09  0.304E-04    4.69      71.8  T
     SCC iter.                  ...        0 min,  0.002 sec
     gradient                   ...        0 min,  0.005 sec
 * total energy  :   -25.3805044 Eh     change       -0.7536022E-04 Eh
   gradient norm :     0.0024894 Eh/α   predicted    -0.4789945E-04 ( -36.44%)
   displ. norm   :     0.5203895 α      lambda       -0.1730667E-03
   maximum displ.:     0.4498132 α      in ANC's #2, #1, #35, ...

........................................................................
.............................. CYCLE   60 ..............................
........................................................................

 iter      E             dE          RMSdq      gap      omega  full diag
   1    -25.8347971 -0.258348E+02  0.203E-01    4.69       0.0  T
   2    -25.8347989 -0.175595E-05  0.119E-01    4.69       1.0  T
   3    -25.8347991 -0.215162E-06  0.460E-03    4.69       4.7  T
   4    -25.8347993 -0.195573E-06  0.217E-03    4.69      10.1  T
   5    -25.8347993 -0.133845E-07  0.115E-03    4.69      19.0  T
   6    -25.8347993 -0.309234E-08  0.265E-04    4.69      82.3  T
   7    -25.8347993 -0.411113E-09  0.105E-04    4.69     208.1  T
     SCC iter.                  ...        0 min,  0.003 sec
     gradient                   ...        0 min,  0.005 sec
 * total energy  :   -25.3805758 Eh     change       -0.7134401E-04 Eh
   gradient norm :     0.0061433 Eh/α   predicted    -0.1099778E-03 (  54.15%)
   displ. norm   :     0.0519748 α      lambda       -0.1231491E-03
   maximum displ.:     0.0254918 α      in ANC's #5, #2, #1, ...

........................................................................
.............................. CYCLE   61 ..............................
........................................................................

 iter      E             dE          RMSdq      gap      omega  full diag
   1    -25.8376130 -0.258376E+02  0.288E-02    4.69       0.0  T
   2    -25.8376136 -0.568295E-06  0.163E-02    4.69       1.3  T
   3    -25.8376136 -0.259153E-07  0.300E-03    4.69       7.3  T
   4    -25.8376136 -0.197525E-07  0.721E-04    4.69      30.3  T
   5    -25.8376136 -0.534666E-09  0.403E-04    4.69      54.2  T
     SCC iter.                  ...        0 min,  0.002 sec
     gradient                   ...        0 min,  0.005 sec
 * total energy  :   -25.3806535 Eh     change       -0.7775382E-04 Eh
   gradient norm :     0.0033075 Eh/α   predicted    -0.6174052E-04 ( -20.59%)
   displ. norm   :     0.2187042 α      lambda       -0.8668964E-04
   maximum displ.:     0.1778954 α      in ANC's #2, #1, #35, ...

........................................................................
.............................. CYCLE   62 ..............................
........................................................................

 iter      E             dE          RMSdq      gap      omega  full diag
   1    -25.8395565 -0.258396E+02  0.852E-02    4.70       0.0  T
   2    -25.8395568 -0.372979E-06  0.501E-02    4.70       1.0  T
   3    -25.8395569 -0.337305E-07  0.202E-03    4.70      10.8  T
   4    -25.8395569 -0.435299E-07  0.100E-03    4.70      21.8  T
   5    -25.8395569 -0.544101E-08  0.541E-04    4.70      40.4  T
   6    -25.8395569 -0.175987E-09  0.145E-04    4.70     150.1  T
     SCC iter.                  ...        0 min,  0.002 sec
     gradient                   ...        0 min,  0.005 sec
 * total energy  :   -25.3807129 Eh     change       -0.5937009E-04 Eh
   gradient norm :     0.0019474 Eh/α   predicted    -0.4541289E-04 ( -23.51%)
   displ. norm   :     0.9593212 α      lambda       -0.1458675E-03
   maximum displ.:     0.8087999 α      in ANC's #2, #1, #35, ...

........................................................................
.............................. CYCLE   63 ..............................
........................................................................

 iter      E             dE          RMSdq      gap      omega  full diag
   1    -25.8268606 -0.258269E+02  0.378E-01    4.67       0.0  T
   2    -25.8268763 -0.157682E-04  0.222E-01    4.67       1.0  T
   3    -25.8268772 -0.855912E-06  0.106E-02    4.67       2.1  T
   4    -25.8268780 -0.846700E-06  0.518E-03    4.67       4.2  T
[...]
        29                          0.1217206               3.3122
       ...                                ...                  ...
        48                          0.6690958              18.2070
      -------------------------------------------------------------
                  HL-Gap            0.1727140 Eh            4.6998 eV
             Fermi-level           -0.3039449 Eh           -8.2708 eV

 SCC (total)                   0 d,  0 h,  0 min,  0.010 sec
 SCC setup                      ...        0 min,  0.001 sec ( 12.087%)
 Dispersion                     ...        0 min,  0.000 sec (  0.673%)
 classical contributions        ...        0 min,  0.000 sec (  0.208%)
 integral evaluation            ...        0 min,  0.002 sec ( 17.550%)
 iterations                     ...        0 min,  0.001 sec ( 15.477%)
 molecular gradient             ...        0 min,  0.005 sec ( 52.707%)
 printout                       ...        0 min,  0.000 sec (  1.162%)

         :::::::::::::::::::::::::::::::::::::::::::::::::::::
         ::                     SUMMARY                     ::
         :::::::::::::::::::::::::::::::::::::::::::::::::::::
         :: total energy             -25.380915504602 Eh    ::
         :: total w/o Gsasa/hb       -25.379922413088 Eh    ::
         :: gradient norm              0.000026624831 Eh/a0 ::
         :: HOMO-LUMO gap              4.699788321110 eV    ::
         ::.................................................::
         :: SCC energy               -25.839609223028 Eh    ::
         :: -> isotropic ES            0.003418183723 Eh    ::
         :: -> anisotropic ES          0.005366709005 Eh    ::
         :: -> anisotropic XC          0.017179727904 Eh    ::
         :: -> dispersion             -0.015587521258 Eh    ::
         :: -> Gsolv                  -0.001341890968 Eh    ::
         ::    -> Gelec               -0.000348799454 Eh    ::
         ::    -> Gsasa               -0.001592757090 Eh    ::
         ::    -> Ghb                 -0.000481094122 Eh    ::
         ::    -> Gshift               0.001080759698 Eh    ::
         :: repulsion energy           0.458693718426 Eh    ::
         :: add. restraining           0.000000000000 Eh    ::
         :: total charge               0.000000000000 e     ::
         :::::::::::::::::::::::::::::::::::::::::::::::::::::

           ------------------------------------------------- 
          |                Numerical Hessian                |
           ------------------------------------------------- 
step length          :   0.00500
SCC accuracy         :   0.30000
Hessian scale factor :   1.00000
frozen atoms in %    :   0.00000    0
RMS gradient         :   0.00003
estimated CPU  time      0.02 min
estimated wall time      0.02 min

writing file <hessian>.

 projected vibrational frequencies (cm⁻¹)
eigval :       -0.00    -0.00    -0.00     0.00     0.00     0.00
eigval :       38.62    77.16    97.44   230.60   263.58   310.21
eigval :      341.05   370.99   482.71   564.15   591.78   670.23
eigval :      752.40   783.80   828.60   876.95   897.18   898.19
eigval :      927.93   930.37   940.44   989.03  1069.28  1084.61
eigval :     1090.45  1112.53  1127.87  1180.96  1198.73  1223.15
eigval :     1234.63  1270.53  1281.20  1292.83  1326.27  1350.47
eigval :     1411.05  1440.81  1480.48  1484.76  1495.51  1498.83
eigval :     1501.39  1592.31  1606.01  2960.27  2972.76  2978.96
eigval :     2982.65  3026.17  3029.36  3038.82  3063.83  3064.89
eigval :     3071.84  3076.19  3089.42
           -------------------------------------------------
          |                Property Printout                |
           -------------------------------------------------

    * Orbital Energies and Occupations

         #    Occupation            Energy/Eh            Energy/eV
      -------------------------------------------------------------
         1        2.0000           -0.6401861             -17.4204
       ...           ...                  ...                  ...
        12        2.0000           -0.4887944             -13.3008
        13        2.0000           -0.4879054             -13.2766
        14        2.0000           -0.4805425             -13.0762
        15        2.0000           -0.4726156             -12.8605
        16        2.0000           -0.4644487             -12.6383
        17        2.0000           -0.4523006             -12.3077
        18        2.0000           -0.4503176             -12.2538
        19        2.0000           -0.4378476             -11.9144
        20        2.0000           -0.4252869             -11.5726
        21        2.0000           -0.4156523             -11.3105
        22        2.0000           -0.4143647             -11.2754
        23        2.0000           -0.3989689             -10.8565
        24        2.0000           -0.3903019             -10.6207 (HOMO)
        25                         -0.2175878              -5.9209 (LUMO)
        26                         -0.2169543              -5.9036
        27                         -0.0889509              -2.4205
        28                          0.0903348               2.4581
        29                          0.1217205               3.3122
        30                          0.1329310               3.6172
        31                          0.1345222               3.6605
        32                          0.1424444               3.8761
        33                          0.1634797               4.4485
        34                          0.1750276               4.7627
        35                          0.1773146               4.8250
       ...                                ...                  ...
        48                          0.6690958              18.2070
      -------------------------------------------------------------
                  HL-Gap            0.1727140 Eh            4.6998 eV
             Fermi-level           -0.3039449 Eh           -8.2708 eV

     #   Z          covCN         q      C6AA      α(0)
     1   6 C        3.752    -0.112    22.696     6.794
     2   6 C        3.802    -0.051    21.490     6.600
     3   6 C        3.809    -0.069    21.807     6.647
     4   6 C        2.970     0.011    27.774     8.645
     5   6 C        2.925    -0.043    29.069     8.842
     6   6 C        2.919    -0.037    28.920     8.819
     7   6 C        2.920    -0.040    28.994     8.830
     8   6 C        2.919    -0.037    28.920     8.819
     9   6 C        2.925    -0.043    29.068     8.842
    10   1 H        0.925     0.039     2.463     2.454
    11   1 H        0.925     0.039     2.463     2.454
    12   1 H        0.925     0.039     2.460     2.453
    13   1 H        0.924     0.031     2.569     2.506
    14   1 H        0.924     0.031     2.568     2.506
    15   1 H        0.924     0.041     2.437     2.441
    16   1 H        0.924     0.041     2.437     2.441
    17   1 H        0.926     0.033     2.550     2.497
    18   1 H        0.926     0.032     2.561     2.502
    19   1 H        0.926     0.031     2.578     2.511
    20   1 H        0.926     0.032     2.561     2.502
    21   1 H        0.926     0.033     2.550     2.497

 Mol. C6AA /au·bohr⁶  :       4253.888578
 Mol. C8AA /au·bohr⁸  :      98976.309960
 Mol. α(0) /au        :        102.602830


Wiberg/Mayer (AO) data.
largest (>0.10) Wiberg bond orders for each atom

 ---------------------------------------------------------------------------
     #   Z sym  total        # sym  WBO       # sym  WBO       # sym  WBO
 ---------------------------------------------------------------------------
     1   6 C    3.995 --     2 C    1.019    10 H    0.987    11 H    0.987
                            12 H    0.986
     2   6 C    3.997 --     1 C    1.019     3 C    0.988    13 H    0.979
                            14 H    0.979
     3   6 C    3.997 --     4 C    1.013     2 C    0.988    16 H    0.973
                            15 H    0.973
     4   6 C    3.989 --     5 C    1.411     9 C    1.411     3 C    1.013
                             7 C    0.110
     5   6 C    3.991 --     6 C    1.446     4 C    1.411    17 H    0.969
                             8 C    0.111
     6   6 C    3.992 --     5 C    1.446     7 C    1.438    18 H    0.971
                             9 C    0.111
     7   6 C    3.992 --     6 C    1.438     8 C    1.438    19 H    0.971
                             4 C    0.110
     8   6 C    3.992 --     9 C    1.446     7 C    1.438    20 H    0.971
                             5 C    0.111
     9   6 C    3.991 --     8 C    1.446     4 C    1.411    21 H    0.969
                             6 C    0.111
    10   1 H    0.998 --     1 C    0.987
    11   1 H    0.998 --     1 C    0.987
    12   1 H    0.997 --     1 C    0.986
    13   1 H    0.999 --     2 C    0.979
    14   1 H    0.999 --     2 C    0.979
    15   1 H    0.998 --     3 C    0.973
    16   1 H    0.998 --     3 C    0.973
    17   1 H    0.999 --     5 C    0.969
    18   1 H    0.999 --     6 C    0.971
    19   1 H    0.999 --     7 C    0.971
    20   1 H    0.999 --     8 C    0.971
    21   1 H    0.999 --     9 C    0.969
 ---------------------------------------------------------------------------

Topologies differ in total number of bonds
Writing topology from bond orders to xtbtopo.mol

molecular dipole:
                 x           y           z       tot (Debye)
 q only:       -0.271      -0.030      -0.031
   full:       -0.248      -0.018      -0.020       0.634
molecular quadrupole (traceless):
                xx          xy          yy          xz          yz          zz
 q only:        1.129       0.462      -0.693       0.434      -0.740      -0.435
  q+dip:        1.254       1.686      -1.296       1.422      -3.933       0.041
   full:        0.847       0.845      -0.750       0.730      -1.915      -0.097

           -------------------------------------------------
          |                Geometry Summary                 |
           -------------------------------------------------

      molecular mass/u    :      120.1919121
   center of mass at/Å    :       -0.0091817       0.0015659      -0.0286340
  moments of inertia/u·Å² :        0.1154763E+03   0.5784530E+03   0.6465220E+03
rotational constants/cm⁻¹ :        0.1459835E+00   0.2914261E-01   0.2607434E-01

 * 20 selected distances

     #   Z          #   Z                                           value/Å
     1   6 C        2   6 C                                       1.5234959
     2   6 C        3   6 C                                       1.5338490 (max)
     4   6 C        5   6 C                                       1.3893951
     5   6 C        6   6 C                                       1.3836561
     6   6 C        7   6 C                                       1.3846112
     7   6 C        8   6 C                                       1.3846287
     4   6 C        9   6 C                                       1.3894122
     8   6 C        9   6 C                                       1.3836504
     1   6 C       10   1 H                                       1.0876925
     1   6 C       11   1 H                                       1.0876937
     1   6 C       12   1 H                                       1.0871774
     2   6 C       13   1 H                                       1.0922819
     2   6 C       14   1 H                                       1.0922659
     3   6 C       15   1 H                                       1.0918000
     3   6 C       16   1 H                                       1.0917929
     5   6 C       17   1 H                                       1.0807458
     6   6 C       18   1 H                                       1.0801619
     7   6 C       19   1 H                                       1.0798134 (min)
     8   6 C       20   1 H                                       1.0801704
     9   6 C       21   1 H                                       1.0807474

 * 2 distinct bonds (by element types)

   Z      Z             #   av. dist./Å        max./Å        min./Å
   1 H    6 C          12     1.0860286     1.0922819     1.0798134
   6 C    6 C           8     1.4215873     1.5338490     1.3836504

           -------------------------------------------------
          |               Frequency Printout                |
           -------------------------------------------------
 projected vibrational frequencies (cm⁻¹)
eigval :       -0.00    -0.00    -0.00     0.00     0.00     0.00
eigval :       38.62    77.16    97.44   230.60   263.58   310.21
eigval :      341.05   370.99   482.71   564.15   591.78   670.23
eigval :      752.40   783.80   828.60   876.95   897.18   898.19
eigval :      927.93   930.37   940.44   989.03  1069.28  1084.61
eigval :     1090.45  1112.53  1127.87  1180.96  1198.73  1223.15
eigval :     1234.63  1270.53  1281.20  1292.83  1326.27  1350.47
eigval :     1411.05  1440.81  1480.48  1484.76  1495.51  1498.83
eigval :     1501.39  1592.31  1606.01  2960.27  2972.76  2978.96
eigval :     2982.65  3026.17  3029.36  3038.82  3063.83  3064.89
eigval :     3071.84  3076.19  3089.42
 reduced masses (amu)
   1: 10.34   2: 10.35   3: 10.11   4: 10.75   5: 10.58   6:  9.67   7:  8.39   8:  6.65
   9:  9.69  10:  2.05  11:  9.41  12:  9.33  13:  7.97  14:  8.87  15:  9.57  16: 10.48
  17: 11.15  18:  9.47  19:  4.50  20:  1.98  21: 10.01  22:  3.31  23:  2.95  24:  3.78
  25:  4.14  26:  2.89  27:  6.55  28: 10.59  29:  3.93  30:  7.00  31:  8.71  32:  7.50
  33:  3.62  34:  1.30  35:  1.79  36:  4.62  37:  7.63  38:  2.36  39:  4.66  40:  3.56
  41: 11.15  42:  4.91  43:  3.18  44:  8.73  45:  7.09  46:  4.01  47:  1.94  48:  1.53
  49:  1.65  50: 11.47  51: 11.49  52:  1.94  53:  2.02  54:  1.45  55:  1.50  56:  1.95
  57:  1.91  58:  1.28  59:  1.78  60:  1.74  61:  1.82  62:  1.88  63:  1.92
 IR intensities (km·mol⁻¹)
   1:  0.01   2:  0.03   3:  0.02   4:  0.00   5:  0.01   6:  0.00   7:  0.04   8:  0.00
   9:  0.12  10:  0.00  11:  0.06  12:  0.40  13:  0.04  14:  0.00  15:  1.98  16:  1.70
  17:  0.01  18:  3.22  19: 22.89  20:  7.26  21:  0.60  22:  0.03  23:  0.76  24:  0.23
  25:  0.00  26:  0.00  27:  2.57  28:  0.36  29:  0.44  30:  0.16  31:  0.21  32: 11.94
  33:  0.00  34:  0.03  35:  1.09  36:  0.36  37: 13.80  38:  0.04  39:  3.06  40:  0.09
  41:  1.34  42:  8.09  43:  0.43  44:  2.01  45:  3.10  46:  0.09  47:  1.20  48:  1.17
  49:  0.44  50:  0.01  51: 13.93  52: 17.27  53:131.97  54:  1.17  55:116.90  56: 88.04
  57: 82.56  58: 51.21  59:  9.82  60: 32.09  61: 87.54  62:299.75  63: 88.26
 Raman intensities (Ä⁴*amu⁻¹)
   1:  0.00   2:  0.00   3:  0.00   4:  0.00   5:  0.00   6:  0.00   7:  0.00   8:  0.00
   9:  0.00  10:  0.00  11:  0.00  12:  0.00  13:  0.00  14:  0.00  15:  0.00  16:  0.00
  17:  0.00  18:  0.00  19:  0.00  20:  0.00  21:  0.00  22:  0.00  23:  0.00  24:  0.00
  25:  0.00  26:  0.00  27:  0.00  28:  0.00  29:  0.00  30:  0.00  31:  0.00  32:  0.00
  33:  0.00  34:  0.00  35:  0.00  36:  0.00  37:  0.00  38:  0.00  39:  0.00  40:  0.00
  41:  0.00  42:  0.00  43:  0.00  44:  0.00  45:  0.00  46:  0.00  47:  0.00  48:  0.00
  49:  0.00  50:  0.00  51:  0.00  52:  0.00  53:  0.00  54:  0.00  55:  0.00  56:  0.00
  57:  0.00  58:  0.00  59:  0.00  60:  0.00  61:  0.00  62:  0.00  63:  0.00
 output can be read by thermo (or use thermo option).
 writing <g98.out> molden fake output.
 recommended (thermochemical) frequency scaling factor: 1.0
           -------------------------------------------------
          |             Thermodynamic Functions             |
           -------------------------------------------------

Molecule has the following symmetry elements: (sigma) 
It seems to be the Cs point group
cs  symmetry found (for desy threshold:  0.10E+00) used in thermo

          ...................................................
          :                      SETUP                      :
          :.................................................:
          :  # frequencies                          57      :
          :  # imaginary freq.                       0      :
          :  linear?                             false      :
          :  only rotor calc.                    false      :
          :  symmetry                               cs      :
          :  rotational number                       1      :
          :  scaling factor                  1.0000000      :
          :  rotor cutoff                    0.0000000 cm⁻¹ :
          :  imag. cutoff                 -100.0000000 cm⁻¹ :
          :.................................................:

    mode    ω/cm⁻¹     T·S(HO)/kcal·mol⁻¹    T·S(FR)/kcal·mol⁻¹   T·S(vib)
   ------------------------------------------------------------------------
       1     38.62    -1.58877 (100.00%)    -1.13278 (  0.00%)    -1.58877
       2     77.16    -1.18126 (100.00%)    -0.92790 (  0.00%)    -1.18126
       3     97.44    -1.04499 (100.00%)    -0.85878 (  0.00%)    -1.04499
       4    230.60    -0.55882 (100.00%)    -0.60365 (  0.00%)    -0.55882
       5    263.58    -0.48834 (100.00%)    -0.56405 (  0.00%)    -0.48834
   ------------------------------------------------------------------------

   temp. (K)  partition function   enthalpy   heat capacity  entropy
                                   cal/mol     cal/K/mol   cal/K/mol   J/K/mol
 298.15  VIB   321.                 3811.257     27.490     24.255
         ROT  0.502E+06              888.752      2.981     29.066
         INT  0.161E+09             4700.010     30.471     53.321
         TR   0.127E+28             1481.254      4.968     40.248
         TOT                        6181.2634    35.4388    93.5691   391.4929

       T/K    H(0)-H(T)+PV         H(T)/Eh          T*S/Eh         G(T)/Eh
   ------------------------------------------------------------------------
    298.15    0.985047E-02    0.191132E+00    0.444577E-01    0.146674E+00
   ------------------------------------------------------------------------

         :::::::::::::::::::::::::::::::::::::::::::::::::::::
         ::                  THERMODYNAMIC                  ::
         :::::::::::::::::::::::::::::::::::::::::::::::::::::
         :: total free energy         -25.234241582298 Eh   ::
         ::.................................................::
         :: total energy              -25.380915504612 Eh   ::
         :: zero point energy           0.181281128971 Eh   ::
         :: G(RRHO) w/o ZPVE           -0.034607206657 Eh   ::
         :: G(RRHO) contrib.            0.146673922315 Eh   ::
         :::::::::::::::::::::::::::::::::::::::::::::::::::::

optimized geometry written to: xtbopt.coord


           -------------------------------------------------
          | TOTAL ENERGY              -25.380915504612 Eh   |
          | TOTAL ENTHALPY            -25.189783905352 Eh   |
          | TOTAL FREE ENERGY         -25.234241582298 Eh   |
          | GRADIENT NORM               0.000026624799 Eh/α |
          | HOMO-LUMO GAP               4.699788319953 eV   |
           -------------------------------------------------

------------------------------------------------------------------------
 * finished run on 2025/04/11 at 12:37:31.048     
------------------------------------------------------------------------
 total:
 * wall-time:     0 d,  0 h,  0 min,  2.330 sec
 *  cpu-time:     0 d,  0 h,  0 min,  2.221 sec
 * ratio c/w:     0.953 speedup
 SCF:
 * wall-time:     0 d,  0 h,  0 min,  0.027 sec
 *  cpu-time:     0 d,  0 h,  0 min,  0.015 sec
 * ratio c/w:     0.563 speedup
 ANC optimizer:
 * wall-time:     0 d,  0 h,  0 min,  0.932 sec
 *  cpu-time:     0 d,  0 h,  0 min,  0.913 sec
 * ratio c/w:     0.979 speedup
 analytical hessian:
 * wall-time:     0 d,  0 h,  0 min,  1.294 sec
 *  cpu-time:     0 d,  0 h,  0 min,  1.281 sec
 * ratio c/w:     0.990 speedup

