21
 energy: -25.377580882250 gnorm: 0.021602858577 xtb: 6.7.1 (edcfbbe)
C           -3.84121104426251        0.17752370097898       -0.15681511119325
C           -2.37536504041995        0.58254996929462       -0.28580228158154
C           -1.44271424111284       -0.57726843792336        0.05238208157940
C            0.03759539156862       -0.27239834753450        0.05608250417055
C            0.92496338131410       -1.21514872412586        0.59344078972070
C            2.29670829841205       -0.98791212586504        0.60889299213072
C            2.81581891569565        0.19672705061724        0.08633843554362
C            1.94720462452392        1.14264825623845       -0.44858942482905
C            0.57100783678338        0.91017894255780       -0.46414883962274
H           -4.07797789233550       -0.65922454410809       -0.82363344191216
H           -4.07175987901224       -0.13699150463331        0.86722204807815
H           -4.50763835487014        1.00776402496812       -0.41095065933109
H           -2.16670269995376        1.42903366654342        0.38084729106730
H           -2.18206323679311        0.93241420504319       -1.30715496711587
H           -1.62638677361069       -1.39877997117819       -0.65495662196024
H           -1.71198677255182       -0.97759840310139        1.03885530707444
H            0.52752773773431       -2.13932794334523        1.00638231083448
H            2.96266318930002       -1.73389956445427        1.03266391787210
H            3.88586906792423        0.37935921463898        0.09964829986289
H            2.33821391182349        2.07009811713426       -0.85672388778044
H           -0.08480688865172        1.66437658960600       -0.88629014897143
21
 energy: -25.378532299060 gnorm: 0.005923084805 xtb: 6.7.1 (edcfbbe)
C           -3.83006696635024        0.17439585786236       -0.15509230705361
C           -2.36825717020214        0.58275671119907       -0.28445088333257
C           -1.43844471157650       -0.57873862727829        0.05380494947723
C            0.03692579549911       -0.26741735816096        0.05560953625932
C            0.91826500175968       -1.20670736705543        0.59017822989387
C            2.28280868871655       -0.98220188509527        0.60643946715924
C            2.79995085692753        0.19500714311625        0.08719587051727
C            1.93750313352761        1.13674040709397       -0.44563264881444
C            0.56941366082037        0.90749206916232       -0.46239307529721
H           -4.05966685991924       -0.65636140282145       -0.82241839072550
H           -4.05573176011226       -0.13654891728734        0.86492333304639
H           -4.48600732338457        1.00571562935378       -0.40965693158817
H           -2.16659769615465        1.42218878758038        0.38802493803252
H           -2.18345403968334        0.92140086771124       -1.30788834300088
H           -1.61567734415905       -1.39301967299250       -0.65949341272551
H           -1.70585465757385       -0.96934894333739        1.04202196865668
H            0.52333882986098       -2.12802363958675        0.99876773326480
H            2.94608016686603       -1.72602714208194        1.02651282672331
H            3.86587900812042        0.37479342762027        0.09933070453405
H            2.32887658927733        2.05898007213950       -0.85300502648102
H           -0.08032367075432        1.65904815421000       -0.88508794490921
21
 energy: -25.378582589305 gnorm: 0.001367794062 xtb: 6.7.1 (edcfbbe)
C           -3.82765327467856        0.17337339194130       -0.15414581485918
C           -2.36560216692533        0.58331560593923       -0.28456803432763
C           -1.43696186814896       -0.57945079397498        0.05408644451691
C            0.03649561608724       -0.26552657005054        0.05502320393739
C            0.91520293941254       -1.20495806332295        0.58912159908234
C            2.27847576545990       -0.98157259611767        0.60594478833774
C            2.79523648277606        0.19439408142978        0.08747036528834
C            1.93431019903135        1.13585682707012       -0.44549287495210
C            0.56786132554149        0.90776990032850       -0.46271606708568
H           -4.05346336388551       -0.65571541480398       -0.82155898722180
H           -4.04981525395341       -0.13757718513645        0.86451226656586
H           -4.48091726708755        1.00477662160224       -0.40807206309065
H           -2.16331000158838        1.41940829023123        0.38902232819841
H           -2.18156275047050        0.91817411781901       -1.30761939859743
H           -1.61190622578798       -1.39092225962736       -0.66054103303587
H           -1.70343948221241       -0.96694781253455        1.04214640724830
H            0.51988903042968       -2.12480648096764        0.99699593357652
H            2.94059835713431       -1.72469187033417        1.02575125512342
H            3.85993489323187        0.37368628389218        0.10017265504056
H            2.32598123823765        2.05672017232894       -0.85239659757821
H           -0.08039466109802        1.65881792563956       -0.88544578253070
21
 energy: -25.378584627526 gnorm: 0.000219241545 xtb: 6.7.1 (edcfbbe)
C           -3.82783983067836        0.17313232632270       -0.15353335581843
C           -2.36525117451988        0.58370666923757       -0.28493308778793
C           -1.43671325276616       -0.57980704275287        0.05360860860079
C            0.03649281589152       -0.26505086982704        0.05444924475054
C            0.91436558282926       -1.20493288084242        0.58917314122989
C            2.27792358317476       -0.98180918247977        0.60660160952171
C            2.79472564498431        0.19432901822909        0.08799895644866
C            1.93412715911819        1.13616860701139       -0.44560738420683
C            0.56743219783960        0.90837759829921       -0.46344024186614
H           -4.05235980182806       -0.65560925646261       -0.82135927326459
H           -4.04768455975995       -0.13843734555859        0.86515583394905
H           -4.48110401174800        1.00452676189728       -0.40644591066670
H           -2.16222373910043        1.41902571502552        0.38863937104280
H           -2.18170812822460        0.91753232225620       -1.30789295892789
H           -1.61123600199792       -1.39065514909881       -0.66108655621686
H           -1.70297331347437       -0.96668922393250        1.04144367363323
H            0.51810737465968       -2.12448147065778        0.99659479546654
H            2.93978536269243       -1.72505318586628        1.02638627770260
H            3.85935479008309        0.37359067175795        0.10092298811845
H            2.32632237070059        2.05675422893422       -0.85253575913891
H           -0.08058353637023        1.65950585985938       -0.88644937893341
21
 energy: -25.378584894750 gnorm: 0.000108529050 xtb: 6.7.1 (edcfbbe)
C           -3.82806164154648        0.17299089701076       -0.15307212216041
C           -2.36549350456173        0.58377562296127       -0.28527260606220
C           -1.43669319014002       -0.57967700863066        0.05305892617620
C            0.03668568655721       -0.26498605706942        0.05416014873439
C            0.91446328612944       -1.20494660086611        0.58909827951125
C            2.27807279211996       -0.98188798604541        0.60682549909312
C            2.79491737173467        0.19427546246705        0.08828672641969
C            1.93451041018597        1.13612238520710       -0.44560511245567
C            0.56771259441732        0.90844239125288       -0.46375158754498
H           -4.05309977313646       -0.65550290172511       -0.82112383607162
H           -4.04733502325561       -0.13905453741667        0.86566666049782
H           -4.48168718144580        1.00439648711476       -0.40517180158021
H           -2.16228287471191        1.41921815731941        0.38816995476396
H           -2.18245494105229        0.91764029546438       -1.30836191843318
H           -1.61131311233489       -1.39043817455727       -0.66179557885453
H           -1.70304382906423       -0.96682889632429        1.04082239999881
H            0.51778626023949       -2.12434226876997        0.99659897491667
H            2.93986101553795       -1.72499742010848        1.02710766574816
H            3.85959963233413        0.37368889024338        0.10157712397270
H            2.32700850276880        2.05669499567705       -0.85243489602352
H           -0.08019294927004        1.65954043814717       -0.88709230700989
21
 energy: -25.378584902129 gnorm: 0.000221653803 xtb: 6.7.1 (edcfbbe)
C           -3.82828345241461        0.17284946769883       -0.15261088850239
C           -2.36573583460357        0.58384457668497       -0.28561212433648
C           -1.43667312751387       -0.57954697450844        0.05250924375161
C            0.03687855722290       -0.26492124431180        0.05387105271825
C            0.91456098942963       -1.20496032088980        0.58902341779261
C            2.27822200106515       -0.98196678961106        0.60704938866453
C            2.79510909848503        0.19422190670501        0.08857449639072
C            1.93489366125374        1.13607616340281       -0.44560284070451
C            0.56799299099503        0.90850718420654       -0.46406293322381
H           -4.05383974444486       -0.65539654698761       -0.82088839887865
H           -4.04698548675127       -0.13967172927475        0.86617748704659
H           -4.48227035114360        1.00426621233225       -0.40389769249371
H           -2.16234201032339        1.41941059961331        0.38770053848512
H           -2.18320175387998        0.91774826867256       -1.30883087793848
H           -1.61139022267186       -1.39022120001573       -0.66250460149220
H           -1.70311434465409       -0.96696856871608        1.04020112636438
H            0.51746514581929       -2.12420306688216        0.99660315436680
H            2.93993666838348       -1.72494165435068        1.02782905379372
H            3.85984447458517        0.37378710872881        0.10223125982695
H            2.32769463483701        2.05663576241989       -0.85233403290813
H           -0.07980236216985        1.65957501643496       -0.88773523508637
21
 energy: -25.378585117077 gnorm: 0.000123654321 xtb: 6.7.1 (edcfbbe)
C           -3.82811438148210        0.17278485657804       -0.15229605422981
C           -2.36571482846482        0.58383976417700       -0.28569415993439
C           -1.43661298846170       -0.57955933491123        0.05209608170678
C            0.03684407736162       -0.26485671462192        0.05357247672487
C            0.91435460101409       -1.20474494143536        0.58914411926291
C            2.27794553435534       -0.98176867186597        0.60749540074301
C            2.79496576236482        0.19428465717920        0.08892700938113
C            1.93489456101394        1.13603478178980       -0.44559046071672
C            0.56805688706649        0.90844709927521       -0.46439586818049
H           -4.05390355610661       -0.65520719360043       -0.82076298743658
H           -4.04626740964273       -0.14012300590650        0.86644757580293
H           -4.48217223374036        1.00431344687577       -0.40296441530742
H           -2.16221526140992        1.41944833767436        0.38750276334935
H           -2.18358259043138        0.91767452400898       -1.30897709479585
H           -1.61111738322417       -1.39006825275907       -0.66312673824745
H           -1.70302043039453       -0.96717160027098        1.03970259897978
H            0.51719257864758       -2.12401877912796        0.99648666356008
H            2.93957394925954       -1.72487713316041        1.02807362590256
H            3.85968549636881        0.37372219784889        0.10256839141157
H            2.32781095579948        2.05647213754435       -0.85237765384569
H           -0.07964380838790        1.65949799606006       -0.88814068049401
21
 energy: -25.378585299898 gnorm: 0.000072189062 xtb: 6.7.1 (edcfbbe)
C           -3.82786908043252        0.17273931894737       -0.15168362274367
C           -2.36567142215750        0.58380649454163       -0.28585911744636
C           -1.43653707781937       -0.57962839165115        0.05127059394759
C            0.03672687548365       -0.26471772364385        0.05322638407127
C            0.91401845945867       -1.20448104167897        0.58922865421962
C            2.27754127248506       -0.98158101243078        0.60793202096473
C            2.79480700602915        0.19433711576662        0.08932939329443
C            1.93490771130156        1.13597689576035       -0.44564142090939
C            0.56814356057396        0.90839595862149       -0.46481821650864
H           -4.05413812738399       -0.65469328401882       -0.82062060378342
H           -4.04514457278798       -0.14102854787035        0.86693805824813
H           -4.48207939057542        1.00448516984444       -0.40113326322872
H           -2.16177210404531        1.41931332763120        0.38730460469233
H           -2.18406046065011        0.91775782102303       -1.30917343948980
H           -1.61069037478144       -1.38965702562059       -0.66453712393092
H           -1.70297678653714       -0.96791229153978        1.03857082865658
H            0.51681481260382       -2.12362440570285        0.99669277663034
H            2.93895743213907       -1.72455924796466        1.02894120172184
H            3.85946047820927        0.37372589993195        0.10336487069102
H            2.32793585774590        2.05624284841438       -0.85256269909351
H           -0.07941453735386        1.65922629299116       -0.88907928636690
21
 energy: -25.378585298519 gnorm: 0.000215462972 xtb: 6.7.1 (edcfbbe)
C           -3.82762241893955        0.17269413448348       -0.15106457233359
C           -2.36562784025974        0.58377300968421       -0.28602544570465
C           -1.43646054363702       -0.57969907457972        0.05043540756752
C            0.03660903343229       -0.26457874516929        0.05287561823340
C            0.91367987089923       -1.20421500002160        0.58931457067579
C            2.27713410432280       -0.98139077885184        0.60837471922242
C            2.79464728873164        0.19439083075605        0.08973676085491
C            1.93492146095715        1.13591830203869       -0.44569349625484
C            0.56823138322984        0.90834319696809       -0.46524651058947
H           -4.05437731704703       -0.65417282814613       -0.82047701483966
H           -4.04401168545049       -0.14194299235052        0.86743399922738
H           -4.48198672316420        1.00465984488268       -0.39928228213700
H           -2.16132359425580        1.41917621728276        0.38710575349659
H           -2.18454362420226        0.91784350437671       -1.30937121063957
H           -1.61026016969678       -1.38924176076026       -0.66596404117144
H           -1.70293337903668       -0.96866295419262        1.03742568309487
H            0.51643423029174       -2.12322678871776        0.99690173048711
H            2.93833631228864       -1.72423737111776        1.02981944087001
H            3.85923400842587        0.37373083299301        0.10417032604939
H            2.32806219763039        2.05601166945823       -0.85275007537748
H           -0.07918306301455        1.65895092233544       -0.89002876709513
21
 energy: -25.378585479149 gnorm: 0.000135236048 xtb: 6.7.1 (edcfbbe)
C           -3.82774215222769        0.17277505722595       -0.15082329786746
C           -2.36569573010537        0.58380200401602       -0.28603166312457
C           -1.43646522707135       -0.57982158300522        0.04998381899810
C            0.03668107738464       -0.26475511010712        0.05256540913630
C            0.91373799919847       -1.20418448485222        0.58949775612095
C            2.27720944506628       -0.98119218202377        0.60887317280364
C            2.79472904951590        0.19452244814592        0.09004517955980
C            1.93504200554167        1.13586915428684       -0.44580288291996
C            0.56833527331289        0.90814867359180       -0.46568189311441
H           -4.05481943055762       -0.65385357780788       -0.82047769350723
H           -4.04388035735323       -0.14221517593664        0.86765665168706
H           -4.48218788256363        1.00485245366762       -0.39852384416003
H           -2.16114735448800        1.41910528331846        0.38720202554751
H           -2.18484335653209        0.91808940594451       -1.30937424506495
H           -1.61030979851677       -1.38913488467966       -0.66670247334715
H           -1.70303982882533       -0.96920043070568        1.03681217317462
H            0.51646445797495       -2.12324899086617        0.99703477352176
H            2.93843802619458       -1.72408944023337        1.03028047004555
H            3.85935229219848        0.37386331635518        0.10447168398645
H            2.32819957065429        2.05600250026939       -0.85285210204081
H           -0.07909854729560        1.65878973474788       -0.89046242579863
21
 energy: -25.378585712039 gnorm: 0.000065738125 xtb: 6.7.1 (edcfbbe)
C           -3.82792733811693        0.17304943963327       -0.15043464734601
C           -2.36571437422927        0.58385267055077       -0.28583723518261
C           -1.43647847324701       -0.58025332482526        0.04911065829583
C            0.03679814695605       -0.26516297952931        0.05216494606761
C            0.91390700901841       -1.20424000209132        0.58975097858395
C            2.27740320800904       -0.98090176476401        0.60948931410620
C            2.79480461486116        0.19475447774798        0.09040906810289
C            1.93510378054112        1.13576876245107       -0.44601269665711
C            0.56839175288502        0.90775106551319       -0.46629454409718
H           -4.05548100028108       -0.65311036471059       -0.82056433717684
H           -4.04387951125528       -0.14248897372334        0.86795871029935
H           -4.48225919649508        1.00545163121155       -0.39741091353077
H           -2.16078390872591        1.41868171447318        0.38791643196196
H           -2.18520007039836        0.91881488651720       -1.30904103045519
H           -1.61041986159235       -1.38889870828508       -0.66836722752533
H           -1.70323564084619       -0.97059411271973        1.03553912243145
H            0.51665849380873       -2.12327769540650        0.99751067670137
H            2.93868619697146       -1.72352341384710        1.03143764574099
H            3.85945116467356        0.37434821934223        0.10511833400732
H            2.32820262425118        2.05592661391457       -0.85321841769061
H           -0.07906808528278        1.65817602989905       -0.89153424300071
21
 energy: -25.378586001058 gnorm: 0.000128105049 xtb: 6.7.1 (edcfbbe)
C           -3.82799875137981        0.17344767606500       -0.14972594274488
C           -2.36563163384666        0.58386289097520       -0.28544752672950
C           -1.43645838216575       -0.58090560568526        0.04764790929470
C            0.03684659016203       -0.26567554969410        0.05152924524947
C            0.91394687180321       -1.20417614096851        0.59018033809732
C            2.27742149514556       -0.98037007733782        0.61054034168713
C            2.79476489921864        0.19513981475323        0.09105205920159
C            1.93507833493834        1.13556698090603       -0.44647621782401
C            0.56842474078536        0.90709870437271       -0.46739618434824
H           -4.05625826031376       -0.65188661256405       -0.82065866697718
H           -4.04365085904917       -0.14309997457654        0.86844331602512
H           -4.48212840945293        1.00638181567725       -0.39548965049578
H           -2.15996289036367        1.41778000974233        0.38922586604371
H           -2.18555676812133        0.92003977017114       -1.30834282422081
H           -1.61033577874928       -1.38824694637726       -0.67133312858742
H           -1.70345345645286       -0.97305088041892        1.03330631038536
H            0.51679981851237       -2.12310963889782        0.99834767327332
H            2.93870094633800       -1.72256784389981        1.03331776479063
H            3.85938288626825        0.37505458017732        0.10624428817550
H            2.32807119007725        2.05570347323599       -0.85391106305876
H           -0.07904305184831        1.65713772569573       -0.89336331360071
21
 energy: -25.378586584753 gnorm: 0.000191385271 xtb: 6.7.1 (edcfbbe)
C           -3.82796461233845        0.17418310358755       -0.14834989885817
C           -2.36539639375815        0.58390938216194       -0.28448028580357
C           -1.43639326009566       -0.58220767769290        0.04472210204829
C            0.03686284781328       -0.26656867283292        0.05029305671031
C            0.91388138625498       -1.20394444697119        0.59103050647952
C            2.27727717712921       -0.97934062822971        0.61254459466294
C            2.79456088628447        0.19583887888165        0.09225442023968
C            1.93493781503268        1.13519906705998       -0.44730672494015
C            0.56843527010231        0.90590007788699       -0.46947980923930
H           -4.05742123173394       -0.64959651976597       -0.82081430464738
H           -4.04302193383873       -0.14428316905988        0.86936651274085
H           -4.48169859359002        1.00811306967418       -0.39184669324889
H           -2.15841828760335        1.41601987182337        0.39205058259742
H           -2.18622914148125        0.92255559937809       -1.30672717151300
H           -1.60996688326572       -1.38691781789909       -0.67731306432968
H           -1.70377284336392       -0.97801023598552        1.02881579162315
H            0.51688979088726       -2.12262039524253        0.99998141966515
H            2.93849712978233       -1.72065532638365        1.03702807217387
H            3.85907666812512        0.37638917222254        0.10847961974410
H            2.32780791515380        2.05511278685441       -0.85542384883756
H           -0.07898417399076        1.65504805188450       -0.89713428363103
21
 energy: -25.378587985397 gnorm: 0.000270878073 xtb: 6.7.1 (edcfbbe)
C           -3.82775700624310        0.17565308960218       -0.14498456505946
C           -2.36489307738640        0.58406864901071       -0.28223689118189
C           -1.43618141160619       -0.58501120928603        0.03779341500670
C            0.03687436238264       -0.26837462364924        0.04735397065238
C            0.91352268420018       -1.20320753628851        0.59300098651082
C            2.27668561256478       -0.97693872388894        0.61732562327743
C            2.79398889463631        0.19736977360645        0.09515875060037
C            1.93469456819673        1.13422155936974       -0.44938475698487
C            0.56856484182765        0.90319659335482       -0.47450503067915
H           -4.05977763027487       -0.64445678515752       -0.82107187282083
H           -4.04127915410790       -0.14746907726453        0.87160921216768
H           -4.48072442474928        1.01177394785355       -0.38308600099653
H           -2.15496816287973        1.41184990768266        0.39872903202235
H           -2.18791927470273        0.92862526547222       -1.30290499943667
H           -1.60891671463119       -1.38342491658980       -0.69149908984444
H           -1.70438559400642       -0.98945385080856        1.01816646709742
H            0.51669311461333       -2.12117806497248        1.00371722008025
H            2.93764454255559       -1.71624620159642        1.04576419564814
H            3.85824974272317        0.37927317284961        0.11379718596064
H            2.32746466597737        2.05354629309292       -0.85895190888809
H           -0.07862104758446        1.65030690895900       -0.90610034949568
21
 energy: -25.378591510309 gnorm: 0.000909486424 xtb: 6.7.1 (edcfbbe)
C           -3.82705818570194        0.17965368633924       -0.13430670510592
C           -2.36356059991090        0.58483453223404       -0.27502088228769
C           -1.43543268283290       -0.59322898477242        0.01577754782247
C            0.03695136595001       -0.27359705505216        0.03778728507004
C            0.91206434011386       -1.20057292800471        0.59915268344920
C            2.27449817470496       -0.96946769631337        0.63252991399940
C            2.79225963161559        0.20191633149030        0.10441623865253
C            1.93435419464821        1.13115381178911       -0.45576034673593
C            0.56935204028035        0.89503689881408       -0.49046431439909
H           -4.06687829589570       -0.62880162289884       -0.82195218788915
H           -4.03521296951262       -0.15864213552708        0.87863932350808
H           -4.47822813147312        1.02227651517218       -0.35486104091329
H           -2.14467250809615        1.39908466110637        0.41978781430221
H           -2.19378751290358        0.94810146595773       -1.29063578527661
H           -1.60545081745652       -1.37182928153042       -0.73613734781256
H           -1.70610328385739       -1.02476523292182        0.98433710822009
H            0.51529684885616       -2.11616924508544        1.01530387064494
H            2.93436393974667       -1.70263775573753        1.07341131489289
H            3.85575548043634        0.38774080666045        0.13063612329623
H            2.32728404139376        2.04823662174662       -0.87028343091156
H           -0.07683553859961        1.63580077788548       -0.93466658888971
21
 energy: -25.378593883422 gnorm: 0.001560559525 xtb: 6.7.1 (edcfbbe)
C           -3.82644615451341        0.18279226024627       -0.12427748650813
C           -2.36247335128725        0.58543531038084       -0.26852221148687
C           -1.43466981093889       -0.60008054514831       -0.00454353655053
C            0.03712206824632       -0.27817755130117        0.02871539302490
C            0.91045189642673       -1.19802038724007        0.60454151700208
C            2.27220133716626       -0.96262665212121        0.64642562116318
C            2.79069084068531        0.20594623068454        0.11293990910254
C            1.93447359988669        1.12815601053043       -0.46178569984623
C            0.57051676415775        0.88758586584074       -0.50540215290127
H           -4.07326145563505       -0.61476566774542       -0.82238075014816
H           -4.02964588906678       -0.16957737417948        0.88505948664779
H           -4.47623506262407        1.03083678773462       -0.32850655846057
H           -2.13544792965373        1.38705962066271        0.43866836157076
H           -2.19909351386699        0.96588317352112       -1.27909978246887
H           -1.60262777080867       -1.36028040781765       -0.77625598952895
H           -1.70755243867400       -1.05578026019239        0.95270270792710
H            0.51340115926354       -2.11137329780347        1.02549208810809
H            2.93078975704797       -1.69020459185140        1.09875143432721
H            3.85345190859248        0.39533823673306        0.14642908950961
H            2.32783112761083        2.04330907163604       -0.88030137521295
H           -0.07451755050954        1.62266833878201       -0.96095947163416
21
 energy: -25.378599477199 gnorm: 0.000904510858 xtb: 6.7.1 (edcfbbe)
C           -3.82604680275341        0.18316022257447       -0.12030254638850
C           -2.36213038260783        0.58553859284758       -0.26630003253694
C           -1.43432599609411       -0.60166991453644       -0.01209904122324
C            0.03722874293156       -0.27957021656982        0.02487175333020
C            0.90935670947844       -1.19694895450758        0.60594905218732
C            2.27079554383889       -0.96018394099114        0.65133602119100
C            2.79000454052717        0.20729290009603        0.11626781223543
C            1.93498154802768        1.12696806131504       -0.46391544422538
C            0.57146383611951        0.88497657115489       -0.51118634642847
H           -4.07528301246774       -0.61032580429769       -0.82175962666997
H           -4.02719497294906       -0.17429559339117        0.88745157832253
H           -4.47566578444482        1.03243677207157       -0.31835372394201
H           -2.13225394638355        1.38239762840031        0.44479946057098
H           -2.20101382462582        0.97209050568619       -1.27456419055629
H           -1.60201050452069       -1.35485726729763       -0.78970884993036
H           -1.70776311125806       -1.06508134724546        0.94045570515595
H            0.51172798716613       -2.10935554776073        1.02841999374699
H            2.92849197601340       -1.68576923093264        1.10787943653427
H            3.85243778526362        0.39788866725663        0.15278574768536
H            2.32894172523967        2.04137833091173       -0.88350640789027
H           -0.07278252499546        1.61805373656768       -0.97082975753198
21
 energy: -25.378616210452 gnorm: 0.001505135244 xtb: 6.7.1 (edcfbbe)
C           -3.82320094245487        0.18570588765872       -0.09952859777839
C           -2.35998268254626        0.58736580910563       -0.25393329461477
C           -1.43292719271918       -0.61176236606492       -0.05251161220548
C            0.03720735437744       -0.28668225968683        0.00518563538885
C            0.90355621899540       -1.19079024761422        0.61485669284891
C            2.26336960314760       -0.94695522441220        0.67879264424619
C            2.78620151118418        0.21451055505528        0.13443077302292
C            1.93687380448657        1.12084612422919       -0.47530804596117
C            0.57552849119955        0.87145639405986       -0.54160120759635
H           -4.08526619348666       -0.58597559092942       -0.82075333018532
H           -4.01154308039450       -0.20067571096241        0.90043897433951