15
 energy: -16.905704120715 gnorm: 0.019863993795 xtb: 6.7.1 (edcfbbe)
C            2.83752051734795       -0.41951328561199       -0.08357894747527
C            1.39413500010103       -0.35891342893615        0.40788118003054
C            0.62497783715359        0.80303912083810       -0.21905699174537
C           -0.78886272134490        0.98501591394046        0.31417794209248
S           -1.83372744657128       -0.50228415755664       -0.08405185777505
H            3.38223915179188       -1.24980182538924        0.37660520304521
H            3.37177676412508        0.50688657071748        0.15533861975064
H            2.87498915446871       -0.55518474145033       -1.17038405585752
H            1.37524227171175       -0.25392170537155        1.50053809855784
H            0.89234497402927       -1.30697601604187        0.17659120942949
H            0.59847306023507        0.68543220333168       -1.31021330566554
H            1.16527225979536        1.73768728796672       -0.01686830814886
H           -0.77649947188363        1.12163194585588        1.39969980776442
H           -1.26153879433960        1.85610762416397       -0.14562158500859
H           -3.01669221861110        0.05568941399758        0.23122123718079
15
 energy: -16.906509997879 gnorm: 0.007255801248 xtb: 6.7.1 (edcfbbe)
C            2.82708158229276       -0.41696308341864       -0.08337355735421
C            1.38826785464248       -0.35292070960699        0.40974155648912
C            0.63589681405879        0.81448346061596       -0.22303638724620
C           -0.77616604497276        0.97924072485121        0.31292392666141
S           -1.81372037579242       -0.49768182041751       -0.08663533795931
H            3.35542803648475       -1.24891126819485        0.37947648873230
H            3.35857609675308        0.50322014193089        0.15940645019674
H            2.85761341875894       -0.55277997232510       -1.16438493308902
H            1.37809696429026       -0.24314957991742        1.49867022531273
H            0.87755880069382       -1.29130879705062        0.17077833697327
H            0.59785748004937        0.67923816777824       -1.30846997347117
H            1.17799817950128        1.74475515768990       -0.02166962339519
H           -0.77877797262245        1.08938939814355        1.39865268062816
H           -1.26401248158551        1.83693795089362       -0.14911149840268
H           -2.98204801454322        0.06134514948187        0.23930989209928
15
 energy: -16.906619221667 gnorm: 0.001993069736 xtb: 6.7.1 (edcfbbe)
C            2.82428576968384       -0.42093714728243       -0.08294345698307
C            1.38596956463535       -0.34654572887612        0.41079014171677
C            0.63570104742869        0.82128221158685       -0.22404133414562
C           -0.77561274112470        0.98046359978408        0.31275538564378
S           -1.79908561407868       -0.49779663843875       -0.09787392617492
H            3.34471935838277       -1.25482701375521        0.38046083430202
H            3.35607396855127        0.49575289760046        0.16075191764518
H            2.85020141477247       -0.55604712886761       -1.16156187554347
H            1.37831249755018       -0.23334524237083        1.49752644572351
H            0.86797180098124       -1.27892024667171        0.17123570093103
H            0.59383963786399        0.67874312521420       -1.30655245308129
H            1.17818622112820        1.74921848825719       -0.02559289747630
H           -0.77526863275805        1.07923370016040        1.39807404573624
H           -1.26552224064829        1.83791288622688       -0.14441074560465
H           -2.96012171435913        0.05070715788671        0.24366046348601
15
 energy: -16.906647625463 gnorm: 0.001637245186 xtb: 6.7.1 (edcfbbe)
C            2.82272180678447       -0.42490030290137       -0.08310338112657
C            1.38466835580032       -0.34060841053936        0.41296397799992
C            0.63749478796341        0.82838998525785       -0.22587724969282
C           -0.77507573673719        0.98094601993202        0.31155844338470
S           -1.79414882329532       -0.49497367739563       -0.11328998645236
H            3.33604154814935       -1.26236668832609        0.38117515182426
H            3.36053465353256        0.48826513928934        0.15975367181176
H            2.84555771826548       -0.56149347295639       -1.16134289110863
H            1.37879678770276       -0.22265197116155        1.49880603566713
H            0.86122274010392       -1.27056491307289        0.17747467101689
H            0.59577610235551        0.68300389840959       -1.30760534828593
H            1.17886847108784        1.75652382544445       -0.02951503789419
H           -0.77263661441173        1.07145720038361        1.39734930183149
H           -1.26532922969998        1.84245832915101       -0.13693117704360
H           -2.95484222959224        0.03140995893953        0.25086206424318
15
 energy: -16.906668536056 gnorm: 0.001062046037 xtb: 6.7.1 (edcfbbe)
C            2.82203591756650       -0.42865140698260       -0.08334858013925
C            1.38507784072707       -0.33548337578105        0.41527621269080
C            0.63734525243803        0.83191377491433       -0.22684244503651
C           -0.77699726371825        0.98214517034002        0.30870836870823
S           -1.79163415993021       -0.49113182303726       -0.13540698417029
H            3.33104570495301       -1.26894850249741        0.38149015968951
H            3.36704003404118        0.48161191416896        0.15674060555293
H            2.84217996103630       -0.56764072574126       -1.16184051752849
H            1.38222237600454       -0.21138580380490        1.50075509508209
H            0.85844140840057       -1.26547999695592        0.18665108411087
H            0.59889036019045        0.68667210375697       -1.30900910523243
H            1.17625059949128        1.76152359714483       -0.03007710271044
H           -0.77613023347921        1.06186861109574        1.39588639865951
H           -1.26675105459643        1.84940083058752       -0.13061739203570
H           -2.94936640511566        0.01848055324616        0.26391244853440
15
 energy: -16.906682880489 gnorm: 0.002077544626 xtb: 6.7.1 (edcfbbe)
C            2.82007057162582       -0.43298322544560       -0.08469195556672
C            1.38657003272368       -0.32868060130134        0.42004345542775
C            0.63938752428265        0.83648395034904       -0.22583128033352
C           -0.77824178604536        0.98188708932445        0.30266562527346
S           -1.79349705793190       -0.48336088801923       -0.16626898519609
H            3.32507427099600       -1.27618950418757        0.37974035407548
H            3.37413554106536        0.47337892820066        0.15047743232348
H            2.83525245412875       -0.57488428658685       -1.16323345484805
H            1.38992152325798       -0.19599214633892        1.50485522430241
H            0.85545338158770       -1.25883557908652        0.20140505021961
H            0.60610620063473        0.69169716679288       -1.30860378252457
H            1.17483665039053        1.76814895684261       -0.02680016399453
H           -0.78402130680358        1.04649123547639        1.39107268580436
H           -1.26487522344627        1.85621595147343       -0.12708653321170
H           -2.94652243845693        0.00151787296068        0.28453457442385
15
 energy: -16.906688995548 gnorm: 0.001309842934 xtb: 6.7.1 (edcfbbe)
C            2.81913089707489       -0.43358546796151       -0.08580703847346
C            1.38707118943200       -0.32767759995993        0.42197268419066
C            0.63966279766953        0.83664180236184       -0.22456030748653
C           -0.77847439928543        0.98180594007603        0.30192480653092
S           -1.79374303591309       -0.48196864759545       -0.17117097790418
H            3.32462094137664       -1.27654228070380        0.37832576304815
H            3.37440437953898        0.47250736544385        0.14694095351744
H            2.83177835215463       -0.57670481465465       -1.16416659423828
H            1.39315792672498       -0.19292356976517        1.50646590503434
H            0.85472192052028       -1.25779802440295        0.20632304612989
H            0.60808153757385        0.69208632014140       -1.30745264014208
H            1.17415177021424        1.76870239615263       -0.02469134947021
H           -0.78682107407422        1.04388699346227        1.39013203735236
H           -1.26372684399994        1.85686737501403       -0.12761422441604
H           -2.94436602099815       -0.00040286715448        0.28565618250224
15
 energy: -16.906695754606 gnorm: 0.000607275579 xtb: 6.7.1 (edcfbbe)
C            2.81623009321240       -0.43584432455985       -0.08942696149456
C            1.38845587880085       -0.32481881128709        0.42848189426736
C            0.64119591725421        0.83800339282134       -0.21997232495915
C           -0.77928164940972        0.98168709779451        0.29897931451921
S           -1.79527268514083       -0.47698000994622       -0.18960672182853
H            3.32429494935803       -1.27723252616287        0.37437728564034
H            3.37418299269696        0.47046216915487        0.13470490113928
H            2.82010588469128       -0.58364833570763       -1.16708929292462
H            1.40291701655994       -0.18421663040479        1.51193510548774
H            0.85202319412521       -1.25454513923842        0.22181908627370
H            0.61506986855820        0.69398858627828       -1.30307822766420
H            1.17332581699035        1.77081254501167       -0.01724373654165
H           -0.79494073966783        1.03674481203843        1.38670583416983
H           -1.25988623671271        1.85939761704276       -0.12979757759070
H           -2.93876996330717       -0.00891552238087        0.29148966768117
15
 energy: -16.906696951425 gnorm: 0.000280153839 xtb: 6.7.1 (edcfbbe)
C            2.81580736106971       -0.43684209321509       -0.08986015192996
C            1.38845646521685       -0.32398867918348        0.42949700368131
C            0.64178472281995        0.83924837969780       -0.21950389238884
C           -0.77947645451066        0.98234623046886        0.29798727177044
S           -1.79477495864726       -0.47533870142370       -0.19508103931241
H            3.32411133804749       -1.27750645428194        0.37510078906872
H            3.37430023336675        0.46987258576438        0.13163427100139
H            2.81808096989074       -0.58698714363285       -1.16716865989523
H            1.40392900791435       -0.18251508424412        1.51279054362245
H            0.85107648013555       -1.25331669447964        0.22387658059984
H            0.61678545738912        0.69540246151438       -1.30260514447689
H            1.17379870028990        1.77183788635510       -0.01594981668710
H           -0.79635778522627        1.03497597818455        1.38607761489658
H           -1.25976843158887        1.86122055152121       -0.12910295385126
H           -2.93810276815817       -0.01351430259135        0.29458583007615
15
 energy: -16.906697704989 gnorm: 0.000203196871 xtb: 6.7.1 (edcfbbe)
C            2.81553210908702       -0.43744971000086       -0.09020763969050
C            1.38822165145443       -0.32390111197581        0.42962675188480
C            0.64214970163395        0.84025455827870       -0.21899602535570
C           -0.77952766003620        0.98282604636237        0.29794787951979
S           -1.79392244607916       -0.47488012254024       -0.19640423576343
H            3.32472206647235       -1.27629003465508        0.37721597331913
H            3.37342936819404        0.47048156363599        0.12808074023543
H            2.81710270289872       -0.59107490290317       -1.16699414746512
H            1.40384284019376       -0.18275125445826        1.51291012831278
H            0.85046554012280       -1.25281014257234        0.22358413884825
H            0.61751559358541        0.69688972854022       -1.30211028982029
H            1.17441180982937        1.77245820099394       -0.01462221339082
H           -0.79661403692192        1.03526099058858        1.38615451854765
H           -1.25999002466117        1.86203144877250       -0.12844728799327
H           -2.93768887776422       -0.01615033761244        0.29453995498653
15
 energy: -16.906698109296 gnorm: 0.000266580489 xtb: 6.7.1 (edcfbbe)
C            2.81500021918791       -0.43808300059840       -0.09059605508147
C            1.38800801566815       -0.32337876268231        0.42986838775663
C            0.64239326127834        0.84120873538756       -0.21853899649794
C           -0.77960394085949        0.98289244680616        0.29777557833503
S           -1.79307231505700       -0.47418033484613       -0.19990905647370
H            3.32471779325981       -1.27506730931487        0.37955407587609
H            3.37276883660688        0.47076473470262        0.12412921625801
H            2.81595282001173       -0.59560687852681       -1.16681194922492
H            1.40419128354561       -0.18206344772999        1.51312878840965
H            0.84942813966857       -1.25187959464871        0.22411467494712
H            0.61848519906975        0.69871557770208       -1.30178523885012
H            1.17434287033950        1.77331508398103       -0.01304690430019
H           -0.79729403398933        1.03400992380956        1.38605324260365
H           -1.25969000238347        1.86271574423230       -0.12775776591291
H           -2.93597780833777       -0.01846799781995        0.29610024833029
15
 energy: -16.906698288659 gnorm: 0.000100353643 xtb: 6.7.1 (edcfbbe)
C            2.81500510327614       -0.43831654341410       -0.09068464311186
C            1.38808487765564       -0.32327026953927        0.42958438473739
C            0.64242479962403        0.84143227607553       -0.21831270890224
C           -0.77966010929372        0.98291464193357        0.29772945353783
S           -1.79317120340571       -0.47394444941580       -0.20006673653321
H            3.32519509188501       -1.27411184783005        0.38106053111766
H            3.37233333383233        0.47118911235169        0.12223160988717
H            2.81607983122585       -0.59791880732413       -1.16660203876326
H            1.40426107883487       -0.18225040174357        1.51291022792926
H            0.84931257857389       -1.25167458918966        0.22371553168398
H            0.61881529386191        0.69969803409698       -1.30169768549400
H            1.17415847819992        1.77356227394524       -0.01218815977637
H           -0.79754793735834        1.03340271799998        1.38598849754891
H           -1.25978450465719        1.86282082724717       -0.12758349983896
H           -2.93585637424545       -0.01863805473946        0.29619348215291
15
 energy: -16.906698321963 gnorm: 0.000049073845 xtb: 6.7.1 (edcfbbe)
C            2.81498598483740       -0.43817644515728       -0.09066476489963
C            1.38802635622168       -0.32344661879232        0.42943418787351
C            0.64243135852027        0.84131139329716       -0.21833049808571
C           -0.77958261488633        0.98280866197294        0.29783635498165
S           -1.79337679701019       -0.47400827147473       -0.19985994864814
H            3.32540637947586       -1.27356979565356        0.38151382676293
H            3.37200401330637        0.47159603841979        0.12190379640126
H            2.81632239756782       -0.59826628694628       -1.16651216504215
H            1.40407207944042       -0.18259276222376        1.51280426080125
H            0.84941929461591       -1.25192879471421        0.22339685628106
H            0.61878347715267        0.69973635101346       -1.30175538756686
H            1.17414176258417        1.77347146471990       -0.01210495399520
H           -0.79736275267825        1.03336819303078        1.38603543905630
H           -1.25967211095151        1.86268857742790       -0.12751610915867
H           -2.93594849018711       -0.01809678446567        0.29609735141361
