      -----------------------------------------------------------      
     |                   =====================                   |     
     |                           x T B                           |     
     |                   =====================                   |     
     |                         S. Grimme                         |     
     |          Mulliken Center for Theoretical Chemistry        |     
     |                    University of Bonn                     |     
      -----------------------------------------------------------      

   * xtb version 6.7.1 (edcfbbe) compiled by 'albert@albert-system' on 2024-07-22

   xtb is free software: you can redistribute it and/or modify it under
   the terms of the GNU Lesser General Public License as published by
   the Free Software Foundation, either version 3 of the License, or
   (at your option) any later version.
   
   xtb is distributed in the hope that it will be useful,
   but WITHOUT ANY WARRANTY; without even the implied warranty of
   MERCHANTABILITY or FITNESS FOR A PARTICULAR PURPOSE.  See the
   GNU Lesser General Public License for more details.
   
   Cite this work as:
   * C. Bannwarth, E. Caldeweyher, S. Ehlert, A. Hansen, P. Pracht,
     J. Seibert, S. Spicher, S. Grimme, WIREs Comput. Mol. Sci., 2020, 11,
     e01493. DOI: 10.1002/wcms.1493
   
   for GFN2-xTB:
   * C. Bannwarth, S. Ehlert and S. Grimme., J. Chem. Theory Comput., 2019,
     15, 1652-1671. DOI: 10.1021/acs.jctc.8b01176
   for GFN1-xTB:
   * S. Grimme, C. Bannwarth, P. Shushkov, J. Chem. Theory Comput., 2017,
     13, 1989-2009. DOI: 10.1021/acs.jctc.7b00118
   for GFN0-xTB:
   * P. Pracht, E. Caldeweyher, S. Ehlert, S. Grimme, ChemRxiv, 2019, preprint.
     DOI: 10.26434/chemrxiv.8326202.v1
   for GFN-FF:
   * S. Spicher and S. Grimme, Angew. Chem. Int. Ed., 2020, 59, 15665-15673.
     DOI: 10.1002/anie.202004239
   
   for ALPB and GBSA implicit solvation:
   * S. Ehlert, M. Stahn, S. Spicher, S. Grimme, J. Chem. Theory Comput.,
     2021, 17, 4250-4261. DOI: 10.1021/acs.jctc.1c00471
   
   for ddCOSMO and CPCM-X implicit solvation:
   * M. Stahn, S. Ehlert, S. Grimme, J. Phys. Chem. A,
     2023, XX, XXXX-XXXX. DOI: 10.1021/acs.jpca.3c04382
   
   for DFT-D4:
   * E. Caldeweyher, C. Bannwarth and S. Grimme, J. Chem. Phys., 2017,
     147, 034112. DOI: 10.1063/1.4993215
   * E. Caldeweyher, S. Ehlert, A. Hansen, H. Neugebauer, S. Spicher,
     C. Bannwarth and S. Grimme, J. Chem. Phys., 2019, 150, 154122.
     DOI: 10.1063/1.5090222
   * E. Caldeweyher, J.-M. Mewes, S. Ehlert and S. Grimme, Phys. Chem. Chem. Phys.
     2020, 22, 8499-8512. DOI: 10.1039/D0CP00502A
   
   for sTDA-xTB:
   * S. Grimme and C. Bannwarth, J. Chem. Phys., 2016, 145, 054103.
     DOI: 10.1063/1.4959605
   
   in the mass-spec context:
   * V. Asgeirsson, C. Bauer and S. Grimme, Chem. Sci., 2017, 8, 4879.
     DOI: 10.1039/c7sc00601b
   * J. Koopman and S. Grimme, ACS Omega 2019, 4, 12, 15120-15133.
     DOI: 10.1021/acsomega.9b02011
   
   for metadynamics refer to:
   * S. Grimme, J. Chem. Theory Comput., 2019, 155, 2847-2862
     DOI: 10.1021/acs.jctc.9b00143
   
   for SPH calculations refer to:
   * S. Spicher and S. Grimme, J. Chem. Theory Comput., 2021, 17, 1701-1714
     DOI: 10.1021/acs.jctc.0c01306
   
   for ONIOM refer to:
   * C. Plett, A. Katbashev, S. Ehlert, S. Grimme, M. Bursch,
     Phys. Chem. Chem. Phys., 2023, 25, 17860-17868. DOI: 10.1039/D3CP02178E
   
   for DIPRO refer to:
   * J. Kohn, N. Gildemeister, S. Grimme, D. Fazzi, A. Hansen,
     J. Chem. Phys., 2023, just accepted.
   
   for PTB refer to:
   * S. Grimme, M. Mueller, A. Hansen, J. Chem. Phys., 2023, 158, 124111.
     DOI: 10.1063/5.0137838
   
   with help from (in alphabetical order)
   P. Atkinson, C. Bannwarth, F. Bohle, G. Brandenburg, E. Caldeweyher
   M. Checinski, S. Dohm, S. Ehlert, S. Ehrlich, I. Gerasimov, C. Hölzer
   A. Katbashev, J. Kohn, J. Koopman, C. Lavigne, S. Lehtola, F. März, M. Müller,
   F. Musil, H. Neugebauer, J. Pisarek, C. Plett, P. Pracht, F. Pultar,
   J. Seibert, P. Shushkov, S. Spicher, M. Stahn, M. Steiner, T. Strunk,
   J. Stückrath, T. Rose, and J. Unsleber
   
 * started run on 2025/04/11 at 11:41:24.879     
   ID    Z sym.   atoms
    1    6 C      1-5
    2    7 N      6
    3    1 H      7-15

           -------------------------------------------------
          |                Calculation Setup                |
           -------------------------------------------------

          program call               : /srv/scratch/z5358697/.xtb/bin/xtb solv.coord --gfn2 --sp --chrg 0 --norestart --parallel 1 --alpb water reference -I xtb_sp-xcontrol-inp
          hostname                   : k062
          coordinate file            : solv.coord
          omp threads                :                     1


           -------------------------------------------------
          |                 G F N 2 - x T B                 |
           -------------------------------------------------

        Reference                      10.1021/acs.jctc.8b01176
      * Hamiltonian:
        H0-scaling (s, p, d)           1.850000    2.230000    2.230000
        zeta-weighting                 0.500000
      * Dispersion:
        s8                             2.700000
        a1                             0.520000
        a2                             5.000000
        s9                             5.000000
      * Repulsion:
        kExp                           1.500000    1.000000
        rExp                           1.000000
      * Coulomb:
        alpha                          2.000000
        third order                    shell-resolved
        anisotropic                    true
        a3                             3.000000
        a5                             4.000000
        cn-shift                       1.200000
        cn-exp                         4.000000
        max-rad                        5.000000

      * Solvation model:               ALPB
        Solvent                        water
        Parameter file                 internal GFN2-xTB/ALPB
        Dielectric constant                8.0200E+01
        Reference state                gsolv=reference [X=1]
        Free energy shift                  2.8945E-03 Eh       1.8164E+00 kcal/mol
        Temperature                        2.9815E+02 K
        Density                            1.0000E+00 kg/L
        Solvent mass                       1.8000E+01 g/mol
        Interaction kernel             P16
        Born radius scaling (c1)           1.4744E+00
        Born radii integrator          GBOBC
        Born offset                        0.0000E+00 a0       0.0000E+00 AA
        H-bond correction              true
        Ion screening                  false
        Surface tension                    1.0000E-05 Eh       1.5569E+01 dyn/cm
        Grid points                               974 per atom

          ...................................................
          :                      SETUP                      :
          :.................................................:
          :  # basis functions                  33          :
          :  # atomic orbitals                  33          :
          :  # shells                           21          :
          :  # electrons                        34          :
          :  max. iterations                   250          :
          :  Hamiltonian                  GFN2-xTB          :
          :  restarted?                      false          :
          :  GBSA solvation                   true          :
          :  PC potential                    false          :
          :  electronic temp.          300.0000000     K    :
          :  accuracy                    1.0000000          :
          :  -> integral cutoff          0.2500000E+02      :
          :  -> integral neglect         0.1000000E-07      :
          :  -> SCF convergence          0.1000000E-05 Eh   :
          :  -> wf. convergence          0.1000000E-03 e    :
          :  Broyden damping             0.4000000          :
          :  net charge                          0          :
          :  unpaired electrons                  0          :
          ...................................................

 iter      E             dE          RMSdq      gap      omega  full diag
   1    -18.4926631 -0.184927E+02  0.379E+00    6.57       0.0  T
   2    -18.5043024 -0.116394E-01  0.220E+00    6.27       1.0  T
   3    -18.5047099 -0.407464E-03  0.530E-01    5.89       1.0  T
   4    -18.5052783 -0.568395E-03  0.226E-01    5.75       1.0  T
   5    -18.5058019 -0.523631E-03  0.115E-01    5.81       1.0  T
   6    -18.5058477 -0.457277E-04  0.228E-02    5.82       1.1  T
   7    -18.5058481 -0.442001E-06  0.965E-03    5.82       2.7  T
   8    -18.5058483 -0.197328E-06  0.191E-03    5.82      13.5  T
   9    -18.5058483 -0.762608E-08  0.809E-04    5.82      31.9  T
  10    -18.5058483 -0.728452E-09  0.131E-04    5.82     197.5  T

   *** convergence criteria satisfied after 10 iterations ***

         #    Occupation            Energy/Eh            Energy/eV
      -------------------------------------------------------------
         1        2.0000           -0.6516071             -17.7311
       ...           ...                  ...                  ...
        11        2.0000           -0.4751201             -12.9287
        12        2.0000           -0.4657676             -12.6742
        13        2.0000           -0.4549644             -12.3802
        14        2.0000           -0.4462923             -12.1442
        15        2.0000           -0.4356330             -11.8542
        16        2.0000           -0.4325149             -11.7693
        17        2.0000           -0.4236961             -11.5294 (HOMO)
        18                         -0.2096609              -5.7052 (LUMO)
        19                         -0.2046939              -5.5700
        20                          0.0728864               1.9833
        21                          0.1094329               2.9778
        22                          0.1176583               3.2016
       ...                                ...                  ...
        33                          1.1323666              30.8133
      -------------------------------------------------------------
                  HL-Gap            0.2140352 Eh            5.8242 eV
             Fermi-level           -0.3166785 Eh           -8.6173 eV

 SCC (total)                   0 d,  0 h,  0 min,  0.027 sec
 SCC setup                      ...        0 min,  0.002 sec (  6.422%)
 Dispersion                     ...        0 min,  0.000 sec (  0.490%)
 classical contributions        ...        0 min,  0.000 sec (  0.113%)
 integral evaluation            ...        0 min,  0.002 sec (  7.714%)
 iterations                     ...        0 min,  0.018 sec ( 66.283%)
 molecular gradient             ...        0 min,  0.005 sec ( 18.122%)
 printout                       ...        0 min,  0.000 sec (  0.769%)

         :::::::::::::::::::::::::::::::::::::::::::::::::::::
         ::                     SUMMARY                     ::
         :::::::::::::::::::::::::::::::::::::::::::::::::::::
         :: total energy             -18.188167839897 Eh    ::
         :: total w/o Gsasa/hb       -18.184381161167 Eh    ::
         :: gradient norm              0.000119998306 Eh/a0 ::
         :: HOMO-LUMO gap              5.824194745080 eV    ::
         ::.................................................::
         :: SCC energy               -18.505834269051 Eh    ::
         :: -> isotropic ES            0.017283930272 Eh    ::
         :: -> anisotropic ES          0.004274659282 Eh    ::
         :: -> anisotropic XC          0.023554188912 Eh    ::
         :: -> dispersion             -0.008020735975 Eh    ::
         :: -> Gsolv                  -0.008893751478 Eh    ::
         ::    -> Gelec               -0.005107072747 Eh    ::
         ::    -> Gsasa               -0.005448339403 Eh    ::
         ::    -> Ghb                 -0.001232888487 Eh    ::
         ::    -> Gshift               0.002894549160 Eh    ::
         :: repulsion energy           0.317666429154 Eh    ::
         :: add. restraining           0.000000000000 Eh    ::
         :: total charge              -0.000000000000 e     ::
         :::::::::::::::::::::::::::::::::::::::::::::::::::::

           -------------------------------------------------
          |                Property Printout                |
           -------------------------------------------------

    * Orbital Energies and Occupations

         #    Occupation            Energy/Eh            Energy/eV
      -------------------------------------------------------------
         1        2.0000           -0.6516071             -17.7311
       ...           ...                  ...                  ...
         5        2.0000           -0.5656354             -15.3917
         6        2.0000           -0.5438002             -14.7976
         7        2.0000           -0.5228251             -14.2268
         8        2.0000           -0.5175951             -14.0845
         9        2.0000           -0.5056927             -13.7606
        10        2.0000           -0.4850327             -13.1984
        11        2.0000           -0.4751201             -12.9287
        12        2.0000           -0.4657676             -12.6742
        13        2.0000           -0.4549644             -12.3802
        14        2.0000           -0.4462923             -12.1442
        15        2.0000           -0.4356330             -11.8542
        16        2.0000           -0.4325149             -11.7693
        17        2.0000           -0.4236961             -11.5294 (HOMO)
        18                         -0.2096609              -5.7052 (LUMO)
        19                         -0.2046939              -5.5700
        20                          0.0728864               1.9833
        21                          0.1094329               2.9778
        22                          0.1176583               3.2016
        23                          0.1426354               3.8813
        24                          0.1547615               4.2113
        25                          0.1605366               4.3684
        26                          0.1782338               4.8500
        27                          0.1897913               5.1645
        28                          0.2151845               5.8555
       ...                                ...                  ...
        33                          1.1323666              30.8133
      -------------------------------------------------------------
                  HL-Gap            0.2140352 Eh            5.8242 eV
             Fermi-level           -0.3166785 Eh           -8.6173 eV

     #   Z          covCN         q      C6AA      α(0)
     1   6 C        3.752    -0.114    22.739     6.800
     2   6 C        3.800    -0.056    21.581     6.614
     3   6 C        3.808    -0.056    21.566     6.611
     4   6 C        3.804    -0.068    21.808     6.648
     5   6 C        1.897     0.129    27.945     8.538
     6   7 N        0.911    -0.308    27.918     7.642
     7   1 H        0.925     0.043     2.414     2.430
     8   1 H        0.925     0.041     2.433     2.439
     9   1 H        0.925     0.038     2.474     2.460
    10   1 H        0.924     0.029     2.605     2.524
    11   1 H        0.924     0.037     2.487     2.466
    12   1 H        0.924     0.043     2.404     2.425
    13   1 H        0.924     0.055     2.261     2.352
    14   1 H        0.924     0.092     1.859     2.132
    15   1 H        0.924     0.094     1.837     2.119

 Mol. C6AA /au·bohr⁶  :       1838.741428
 Mol. C8AA /au·bohr⁸  :      40450.418313
 Mol. α(0) /au        :         64.200584


Wiberg/Mayer (AO) data.
largest (>0.10) Wiberg bond orders for each atom

 ---------------------------------------------------------------------------
     #   Z sym  total        # sym  WBO       # sym  WBO       # sym  WBO
 ---------------------------------------------------------------------------
     1   6 C    3.996 --     2 C    1.019     9 H    0.988     7 H    0.987
                             8 H    0.987
     2   6 C    3.997 --     1 C    1.019     3 C    1.010    11 H    0.978
                            10 H    0.978
     3   6 C    3.992 --     2 C    1.010    12 H    0.978    13 H    0.974
                             4 C    0.973
     4   6 C    3.992 --     5 C    1.068     3 C    0.973    14 H    0.937
                            15 H    0.935
     5   6 C    3.936 --     6 N    2.819     4 C    1.068
     6   7 N    2.987 --     5 C    2.819
     7   1 H    0.998 --     1 C    0.987
     8   1 H    0.998 --     1 C    0.987
     9   1 H    0.999 --     1 C    0.988
    10   1 H    0.999 --     2 C    0.978
    11   1 H    0.999 --     2 C    0.978
    12   1 H    0.998 --     3 C    0.978
    13   1 H    0.997 --     3 C    0.974
    14   1 H    0.992 --     4 C    0.937
    15   1 H    0.991 --     4 C    0.935
 ---------------------------------------------------------------------------

Topologies differ in total number of bonds
Writing topology from bond orders to xtbtopo.mol

molecular dipole:
                 x           y           z       tot (Debye)
 q only:       -0.975      -0.987      -0.314
   full:       -1.190      -1.286      -0.400       4.568
molecular quadrupole (traceless):
                xx          xy          yy          xz          yz          zz
 q only:       -4.765      -4.594       2.577      -1.388       0.070       2.189
  q+dip:       -7.663      -5.391       4.155      -2.190      -0.236       3.508
   full:       -7.312      -6.937       3.337      -2.413      -0.518       3.975


           -------------------------------------------------
          | TOTAL ENERGY              -18.188167839897 Eh   |
          | GRADIENT NORM               0.000119998306 Eh/α |
          | HOMO-LUMO GAP               5.824194745080 eV   |
           -------------------------------------------------

------------------------------------------------------------------------
 * finished run on 2025/04/11 at 11:41:24.950     
------------------------------------------------------------------------
 total:
 * wall-time:     0 d,  0 h,  0 min,  0.069 sec
 *  cpu-time:     0 d,  0 h,  0 min,  0.027 sec
 * ratio c/w:     0.389 speedup
 SCF:
 * wall-time:     0 d,  0 h,  0 min,  0.028 sec
 *  cpu-time:     0 d,  0 h,  0 min,  0.016 sec
 * ratio c/w:     0.587 speedup

