21
 energy: -312.206524186473 gnorm: 0.000895201302 xtb: 6.7.1 (edcfbbe)
C            2.23087874740787       -1.14257879266925        0.48897935516560
C            1.51151558848253       -0.23263954858585       -0.50521628400597
C            0.29661071856494        0.49544355181851        0.08594153538186
H            0.38576733441398        0.51396932322537        1.18524852834041
C           -1.05179103287755       -0.14373697660862       -0.28128196366738
C           -1.12042319986045       -1.60386209695892        0.17024403840544
C           -2.22602777380285        0.63500983888382        0.31719918802340
O            0.36120850427560        1.86129168612962       -0.40127430256954
H            3.07203275573227       -1.65151567048987        0.00784114119841
H            1.56909463815806       -1.90923338299168        0.90120327982527
H            2.62672861523582       -0.55932232186426        1.32714342773578
H            2.21782004150804        0.52861829036502       -0.85250565072426
H            1.20539049781299       -0.80245994485749       -1.39091765658886
H           -1.12793964853481       -0.11313101493437       -1.37811672339524
H           -0.35386608718699       -2.22124418779550       -0.30571307753431
H           -0.99873252565536       -1.68148145629363        1.25730189602620
H           -2.09596763253115       -2.02915001429709       -0.08650150629934
H           -2.28924047251447        1.66156821197337       -0.05805520694469
H           -2.14709381111515        0.67119090256934        1.41054099396861
H           -3.17272651809996        0.14534103072258        0.06724353718506
H           -0.34490938394831        2.36042019927335        0.02740373166576
21
 energy: -312.206526817799 gnorm: 0.000280423968 xtb: 6.7.1 (edcfbbe)
C            2.22994085771918       -1.14282396823265        0.48932834656013
C            1.51151034529235       -0.23240392582090       -0.50531812244144
C            0.29660130127007        0.49608742609771        0.08531823248240
H            0.38551371466377        0.51422026506117        1.18503751408712
C           -1.05162526740876       -0.14393392223700       -0.28180767822795
C           -1.12005295581629       -1.60393722077315        0.16986145872971
C           -2.22553872113336        0.63474023722633        0.31731196117656
O            0.36074841836151        1.86191109977767       -0.40237997648749
H            3.07244981583707       -1.65131275580817        0.00958944998294
H            1.56804452797539       -1.91041987500759        0.90057866279612
H            2.62456478291288       -0.55986514244020        1.32867291282392
H            2.21863560142585        0.52905266853887       -0.85188045274742
H            1.20591556993561       -0.80187303227979       -1.39193988404408
H           -1.12823797249243       -0.11360529709455       -1.37877977787716
H           -0.35493219227003       -2.22181743389146       -0.30821084799549
H           -0.99560764529469       -1.68233596358776        1.25675272102629
H           -2.09645390635435       -2.02922977736481       -0.08433188016075
H           -2.28974672144499        1.66130499730406       -0.05871758967103
H           -2.14551386172249        0.67236009851134        1.41098581612127
H           -3.17291955473882        0.14511323832414        0.06917069437882
H           -0.34496672338147        2.36126600527747        0.02746660830548
21
 energy: -312.206526817799 gnorm: 0.000280423968 xtb: 6.7.1 (edcfbbe)
C            2.22994085771918       -1.14282396823265        0.48932834656013
C            1.51151034529235       -0.23240392582090       -0.50531812244144
C            0.29660130127007        0.49608742609771        0.08531823248240
H            0.38551371466377        0.51422026506117        1.18503751408712
C           -1.05162526740876       -0.14393392223700       -0.28180767822795
C           -1.12005295581629       -1.60393722077315        0.16986145872971
C           -2.22553872113336        0.63474023722633        0.31731196117656
O            0.36074841836151        1.86191109977767       -0.40237997648749
H            3.07244981583707       -1.65131275580817        0.00958944998294
H            1.56804452797539       -1.91041987500759        0.90057866279612
H            2.62456478291288       -0.55986514244020        1.32867291282392
H            2.21863560142585        0.52905266853887       -0.85188045274742
H            1.20591556993561       -0.80187303227979       -1.39193988404408
H           -1.12823797249243       -0.11360529709455       -1.37877977787716
H           -0.35493219227003       -2.22181743389146       -0.30821084799549
H           -0.99560764529469       -1.68233596358776        1.25675272102629
H           -2.09645390635435       -2.02922977736481       -0.08433188016075
H           -2.28974672144499        1.66130499730406       -0.05871758967103
H           -2.14551386172249        0.67236009851134        1.41098581612127
H           -3.17291955473882        0.14511323832414        0.06917069437882
H           -0.34496672338147        2.36126600527747        0.02746660830548
