      -----------------------------------------------------------      
     |                   =====================                   |     
     |                           x T B                           |     
     |                   =====================                   |     
     |                         S. Grimme                         |     
     |          Mulliken Center for Theoretical Chemistry        |     
     |                    University of Bonn                     |     
      -----------------------------------------------------------      

   * xtb version 6.7.1 (edcfbbe) compiled by 'albert@albert-system' on 2024-07-22

   xtb is free software: you can redistribute it and/or modify it under
   the terms of the GNU Lesser General Public License as published by
   the Free Software Foundation, either version 3 of the License, or
   (at your option) any later version.
   
   xtb is distributed in the hope that it will be useful,
   but WITHOUT ANY WARRANTY; without even the implied warranty of
   MERCHANTABILITY or FITNESS FOR A PARTICULAR PURPOSE.  See the
   GNU Lesser General Public License for more details.
   
   Cite this work as:
   * C. Bannwarth, E. Caldeweyher, S. Ehlert, A. Hansen, P. Pracht,
     J. Seibert, S. Spicher, S. Grimme, WIREs Comput. Mol. Sci., 2020, 11,
     e01493. DOI: 10.1002/wcms.1493
   
   for GFN2-xTB:
   * C. Bannwarth, S. Ehlert and S. Grimme., J. Chem. Theory Comput., 2019,
     15, 1652-1671. DOI: 10.1021/acs.jctc.8b01176
   for GFN1-xTB:
   * S. Grimme, C. Bannwarth, P. Shushkov, J. Chem. Theory Comput., 2017,
     13, 1989-2009. DOI: 10.1021/acs.jctc.7b00118
   for GFN0-xTB:
   * P. Pracht, E. Caldeweyher, S. Ehlert, S. Grimme, ChemRxiv, 2019, preprint.
     DOI: 10.26434/chemrxiv.8326202.v1
   for GFN-FF:
   * S. Spicher and S. Grimme, Angew. Chem. Int. Ed., 2020, 59, 15665-15673.
     DOI: 10.1002/anie.202004239
   
   for ALPB and GBSA implicit solvation:
   * S. Ehlert, M. Stahn, S. Spicher, S. Grimme, J. Chem. Theory Comput.,
     2021, 17, 4250-4261. DOI: 10.1021/acs.jctc.1c00471
   
   for ddCOSMO and CPCM-X implicit solvation:
   * M. Stahn, S. Ehlert, S. Grimme, J. Phys. Chem. A,
     2023, XX, XXXX-XXXX. DOI: 10.1021/acs.jpca.3c04382
   
   for DFT-D4:
   * E. Caldeweyher, C. Bannwarth and S. Grimme, J. Chem. Phys., 2017,
     147, 034112. DOI: 10.1063/1.4993215
   * E. Caldeweyher, S. Ehlert, A. Hansen, H. Neugebauer, S. Spicher,
     C. Bannwarth and S. Grimme, J. Chem. Phys., 2019, 150, 154122.
     DOI: 10.1063/1.5090222
   * E. Caldeweyher, J.-M. Mewes, S. Ehlert and S. Grimme, Phys. Chem. Chem. Phys.
     2020, 22, 8499-8512. DOI: 10.1039/D0CP00502A
   
   for sTDA-xTB:
   * S. Grimme and C. Bannwarth, J. Chem. Phys., 2016, 145, 054103.
     DOI: 10.1063/1.4959605
   
   in the mass-spec context:
   * V. Asgeirsson, C. Bauer and S. Grimme, Chem. Sci., 2017, 8, 4879.
     DOI: 10.1039/c7sc00601b
   * J. Koopman and S. Grimme, ACS Omega 2019, 4, 12, 15120-15133.
     DOI: 10.1021/acsomega.9b02011
   
   for metadynamics refer to:
   * S. Grimme, J. Chem. Theory Comput., 2019, 155, 2847-2862
     DOI: 10.1021/acs.jctc.9b00143
   
   for SPH calculations refer to:
   * S. Spicher and S. Grimme, J. Chem. Theory Comput., 2021, 17, 1701-1714
     DOI: 10.1021/acs.jctc.0c01306
   
   for ONIOM refer to:
   * C. Plett, A. Katbashev, S. Ehlert, S. Grimme, M. Bursch,
     Phys. Chem. Chem. Phys., 2023, 25, 17860-17868. DOI: 10.1039/D3CP02178E
   
   for DIPRO refer to:
   * J. Kohn, N. Gildemeister, S. Grimme, D. Fazzi, A. Hansen,
     J. Chem. Phys., 2023, just accepted.
   
   for PTB refer to:
   * S. Grimme, M. Mueller, A. Hansen, J. Chem. Phys., 2023, 158, 124111.
     DOI: 10.1063/5.0137838
   
   with help from (in alphabetical order)
   P. Atkinson, C. Bannwarth, F. Bohle, G. Brandenburg, E. Caldeweyher
   M. Checinski, S. Dohm, S. Ehlert, S. Ehrlich, I. Gerasimov, C. Hölzer
   A. Katbashev, J. Kohn, J. Koopman, C. Lavigne, S. Lehtola, F. März, M. Müller,
   F. Musil, H. Neugebauer, J. Pisarek, C. Plett, P. Pracht, F. Pultar,
   J. Seibert, P. Shushkov, S. Spicher, M. Stahn, M. Steiner, T. Strunk,
   J. Stückrath, T. Rose, and J. Unsleber
   
 * started run on 2025/04/11 at 12:27:52.357     
   ID    Z sym.   atoms
    1    6 C      1-4
    2    8 O      5
    3    1 H      6-13

           -------------------------------------------------
          |                Calculation Setup                |
           -------------------------------------------------

          program call               : /srv/scratch/z5358697/.xtb/bin/xtb xtb_rrho.coord --gfn2 --ohess vtight --chrg 0 --enso --norestart -I rrho-xcontrol-inp --parallel 1 --alpb water
          hostname                   : k075
          coordinate file            : xtb_rrho.coord
          omp threads                :                     1


           -------------------------------------------------
          |                 G F N 2 - x T B                 |
           -------------------------------------------------

        Reference                      10.1021/acs.jctc.8b01176
      * Hamiltonian:
        H0-scaling (s, p, d)           1.850000    2.230000    2.230000
        zeta-weighting                 0.500000
      * Dispersion:
        s8                             2.700000
        a1                             0.520000
        a2                             5.000000
        s9                             5.000000
      * Repulsion:
        kExp                           1.500000    1.000000
        rExp                           1.000000
      * Coulomb:
        alpha                          2.000000
        third order                    shell-resolved
        anisotropic                    true
        a3                             3.000000
        a5                             4.000000
        cn-shift                       1.200000
        cn-exp                         4.000000
        max-rad                        5.000000

      * Solvation model:               ALPB
        Solvent                        water
        Parameter file                 internal GFN2-xTB/ALPB
        Dielectric constant                8.0200E+01
        Reference state                gsolv [1 M gas/solution]
        Free energy shift                  1.0808E-03 Eh       6.7819E-01 kcal/mol
        Temperature                        2.9815E+02 K
        Density                            1.0000E+00 kg/L
        Solvent mass                       1.8000E+01 g/mol
        Interaction kernel             P16
        Born radius scaling (c1)           1.4744E+00
        Born radii integrator          GBOBC
        Born offset                        0.0000E+00 a0       0.0000E+00 AA
        H-bond correction              true
        Ion screening                  false
        Surface tension                    1.0000E-05 Eh       1.5569E+01 dyn/cm
        Grid points                               974 per atom

          ...................................................
          :                      SETUP                      :
          :.................................................:
          :  # basis functions                  28          :
          :  # atomic orbitals                  28          :
          :  # shells                           18          :
          :  # electrons                        30          :
          :  max. iterations                   250          :
          :  Hamiltonian                  GFN2-xTB          :
          :  restarted?                      false          :
          :  GBSA solvation                   true          :
          :  PC potential                    false          :
          :  electronic temp.          300.0000000     K    :
          :  accuracy                    1.0000000          :
          :  -> integral cutoff          0.2500000E+02      :
          :  -> integral neglect         0.1000000E-07      :
          :  -> SCF convergence          0.1000000E-05 Eh   :
          :  -> wf. convergence          0.1000000E-03 e    :
          :  Broyden damping             0.4000000          :
          :  net charge                          0          :
          :  unpaired electrons                  0          :
          ...................................................

 iter      E             dE          RMSdq      gap      omega  full diag
   1    -16.8307111 -0.168307E+02  0.436E+00    4.46       0.0  T
   2    -16.8869519 -0.562408E-01  0.199E+00    3.46       1.0  T
   3    -16.8903374 -0.338556E-02  0.125E+00    3.83       1.0  T
   4    -16.8921134 -0.177598E-02  0.163E-01    3.62       1.0  T
   5    -16.8922960 -0.182635E-03  0.749E-02    3.67       1.0  T
   6    -16.8922997 -0.367623E-05  0.217E-02    3.66       1.3  T
   7    -16.8923004 -0.690265E-06  0.691E-03    3.66       4.0  T
   8    -16.8923005 -0.563140E-07  0.254E-03    3.66      10.9  T
   9    -16.8923005 -0.221056E-07  0.919E-04    3.66      30.2  T
  10    -16.8923005 -0.136556E-08  0.245E-04    3.66     113.1  T

   *** convergence criteria satisfied after 10 iterations ***

         #    Occupation            Energy/Eh            Energy/eV
      -------------------------------------------------------------
         1        2.0000           -0.7228933             -19.6709
       ...           ...                  ...                  ...
         9        2.0000           -0.5010039             -13.6330
        10        2.0000           -0.4918306             -13.3834
        11        2.0000           -0.4773506             -12.9894
        12        2.0000           -0.4496698             -12.2361
        13        2.0000           -0.4452334             -12.1154
        14        2.0000           -0.4369554             -11.8902
        15        2.0000           -0.4081836             -11.1072 (HOMO)
        16                         -0.2735200              -7.4429 (LUMO)
        17                          0.0804238               2.1884
        18                          0.0964684               2.6250
        19                          0.1199976               3.2653
        20                          0.1220433               3.3210
       ...                                ...                  ...
        28                          0.5409066              14.7188
      -------------------------------------------------------------
                  HL-Gap            0.1346637 Eh            3.6644 eV
             Fermi-level           -0.3408518 Eh           -9.2751 eV

 SCC (total)                   0 d,  0 h,  0 min,  0.019 sec
 SCC setup                      ...        0 min,  0.001 sec (  3.783%)
 Dispersion                     ...        0 min,  0.000 sec (  0.277%)
 classical contributions        ...        0 min,  0.000 sec (  0.067%)
 integral evaluation            ...        0 min,  0.001 sec (  4.122%)
 iterations                     ...        0 min,  0.016 sec ( 80.160%)
 molecular gradient             ...        0 min,  0.002 sec ( 10.762%)
 printout                       ...        0 min,  0.000 sec (  0.740%)

         :::::::::::::::::::::::::::::::::::::::::::::::::::::
         ::                     SUMMARY                     ::
         :::::::::::::::::::::::::::::::::::::::::::::::::::::
         :: total energy             -16.688030729877 Eh    ::
         :: total w/o Gsasa/hb       -16.689305847534 Eh    ::
         :: gradient norm              0.029426553316 Eh/a0 ::
         :: HOMO-LUMO gap              3.664384658973 eV    ::
         ::.................................................::
         :: SCC energy               -16.892292607216 Eh    ::
         :: -> isotropic ES            0.034593951960 Eh    ::
         :: -> anisotropic ES          0.001991492714 Eh    ::
         :: -> anisotropic XC          0.008322610373 Eh    ::
         :: -> dispersion             -0.006215796327 Eh    ::
         :: -> Gsolv                  -0.005978545115 Eh    ::
         ::    -> Gelec               -0.007253662772 Eh    ::
         ::    -> Gsasa                0.001803129279 Eh    ::
         ::    -> Ghb                 -0.001608771321 Eh    ::
         ::    -> Gshift               0.001080759698 Eh    ::
         :: repulsion energy           0.204261877339 Eh    ::
         :: add. restraining           0.000000000000 Eh    ::
         :: total charge               0.000000000000 e     ::
         :::::::::::::::::::::::::::::::::::::::::::::::::::::

      ----------------------------------------------------------- 
     |                   =====================                   |
     |                        A N C O P T                        |
     |                   =====================                   |
     |               Approximate Normal Coordinate               |
     |                Rational Function Optimizer                |
      ----------------------------------------------------------- 
      ----------------------------------------------------------- 
     |                   =====================                   |
     |                        A N C O P T                        |
     |                   =====================                   |
     |               Approximate Normal Coordinate               |
     |                Rational Function Optimizer                |
      ----------------------------------------------------------- 

          ...................................................
          :                      SETUP                      :
          :.................................................:
          :   optimization level         verytight          :
          :   max. optcycles                   260          :
          :   ANC micro-cycles                  20          :
          :   degrees of freedom                33          :
          :.................................................:
          :   RF solver                   davidson          :
          :   write xtbopt.log                true          :
          :   linear?                        false          :
          :   energy convergence         0.1000000E-06 Eh   :
          :   grad. convergence          0.2000000E-03 Eh/α :
          :   maxmium RF displ.          1.0000000          :
          :   Hlow (freq-cutoff)         0.1000000E-01      :
          :   Hmax (freq-cutoff)         5.0000000          :
          :   S6 in model hess.         20.0000000          :
          ...................................................

generating ANC from exact Hessian ...
Using Lindh-Hessian (1995)
 Shifting diagonal of input Hessian by   6.031273193714570E-003
 Lowest  eigenvalues of input Hessian
    0.000000    0.000000    0.000000    0.000000    0.000000    0.000000
    0.010000    0.012577    0.014569    0.020160    0.026821    0.043690
    0.052208    0.056990    0.060427    0.062238    0.068555    0.077301
 Highest eigenvalues
    1.083415    1.138519    1.203455    1.243043    1.342028    2.109335
 

........................................................................
.............................. CYCLE    1 ..............................
........................................................................

 iter      E             dE          RMSdq      gap      omega  full diag
   1    -16.8923005 -0.168923E+02  0.975E-05    3.66       0.0  T
   2    -16.8923005 -0.489386E-10  0.441E-05    3.66     628.2  T
   3    -16.8923005 -0.114930E-10  0.251E-05    3.66    1107.2  T
     SCC iter.                  ...        0 min,  0.001 sec
     gradient                   ...        0 min,  0.002 sec
 * total energy  :   -16.6880307 Eh     change       -0.4819753E-09 Eh
   gradient norm :     0.0294224 Eh/α   predicted     0.0000000E+00 (-100.00%)
   displ. norm   :     0.0878681 α      lambda       -0.1018467E-02
   maximum displ.:     0.0384338 α      in ANC's #9, #5, #2, ...

........................................................................
.............................. CYCLE    2 ..............................
........................................................................

 iter      E             dE          RMSdq      gap      omega  full diag
   1    -16.9013786 -0.169014E+02  0.107E-01    3.74       0.0  T
   2    -16.9013918 -0.131833E-04  0.602E-02    3.73       1.0  T
   3    -16.9013921 -0.316128E-06  0.176E-02    3.73       1.6  T
   4    -16.9013925 -0.323955E-06  0.367E-03    3.73       7.6  T
   5    -16.9013925 -0.442080E-07  0.184E-03    3.73      15.0  T
   6    -16.9013925 -0.717397E-08  0.580E-04    3.73      47.8  T
   7    -16.9013925 -0.365592E-09  0.274E-04    3.73     101.4  T
     SCC iter.                  ...        0 min,  0.001 sec
     gradient                   ...        0 min,  0.002 sec
 * total energy  :   -16.6886367 Eh     change       -0.6059251E-03 Eh
   gradient norm :     0.0074911 Eh/α   predicted    -0.5131658E-03 ( -15.31%)
   displ. norm   :     0.0401548 α      lambda       -0.9904594E-04
   maximum displ.:     0.0240134 α      in ANC's #2, #4, #5, ...

........................................................................
.............................. CYCLE    3 ..............................
........................................................................

 iter      E             dE          RMSdq      gap      omega  full diag
   1    -16.9038110 -0.169038E+02  0.397E-02    3.75       0.0  T
   2    -16.9038128 -0.174438E-05  0.224E-02    3.75       1.2  T
   3    -16.9038128 -0.242612E-07  0.648E-03    3.75       4.3  T
   4    -16.9038128 -0.287375E-07  0.114E-03    3.75      24.2  T
   5    -16.9038128 -0.678013E-08  0.555E-04    3.75      50.0  T
   6    -16.9038128 -0.633005E-09  0.164E-04    3.75     169.6  T
     SCC iter.                  ...        0 min,  0.001 sec
     gradient                   ...        0 min,  0.002 sec
 * total energy  :   -16.6886867 Eh     change       -0.5008866E-04 Eh
   gradient norm :     0.0020057 Eh/α   predicted    -0.4960238E-04 (  -0.97%)
   displ. norm   :     0.0562305 α      lambda       -0.4869229E-04
   maximum displ.:     0.0322124 α      in ANC's #4, #2, #3, ...

........................................................................
.............................. CYCLE    4 ..............................
........................................................................

 iter      E             dE          RMSdq      gap      omega  full diag
   1    -16.9045197 -0.169045E+02  0.642E-02    3.76       0.0  T
   2    -16.9045201 -0.422553E-06  0.382E-02    3.75       1.0  T
   3    -16.9045202 -0.632906E-07  0.227E-03    3.75      12.2  T
   4    -16.9045202 -0.679284E-08  0.114E-03    3.75      24.2  T
   5    -16.9045202 -0.654712E-09  0.434E-04    3.75      63.9  T
   6    -16.9045202 -0.121300E-09  0.105E-04    3.75     263.3  T
     SCC iter.                  ...        0 min,  0.001 sec
     gradient                   ...        0 min,  0.002 sec
 * total energy  :   -16.6887030 Eh     change       -0.1626645E-04 Eh
   gradient norm :     0.0033573 Eh/α   predicted    -0.2442265E-04 (  50.14%)
   displ. norm   :     0.0267751 α      lambda       -0.2354948E-04
   maximum displ.:     0.0166548 α      in ANC's #3, #1, #2, ...

........................................................................
.............................. CYCLE    5 ..............................
........................................................................

 iter      E             dE          RMSdq      gap      omega  full diag
   1    -16.9038089 -0.169038E+02  0.266E-02    3.75       0.0  T
   2    -16.9038090 -0.109602E-06  0.158E-02    3.75       1.8  T
   3    -16.9038090 -0.321129E-08  0.149E-03    3.75      18.6  T
   4    -16.9038090 -0.936755E-08  0.455E-04    3.75      60.9  T
   5    -16.9038090 -0.192422E-09  0.168E-04    3.75     165.2  T
     SCC iter.                  ...        0 min,  0.001 sec
     gradient                   ...        0 min,  0.002 sec
 * total energy  :   -16.6887209 Eh     change       -0.1788812E-04 Eh
   gradient norm :     0.0014917 Eh/α   predicted    -0.1178211E-04 ( -34.13%)
   displ. norm   :     0.1093021 α      lambda       -0.2760013E-04
   maximum displ.:     0.0771597 α      in ANC's #3, #1, #5, ...

........................................................................
.............................. CYCLE    6 ..............................
........................................................................

 iter      E             dE          RMSdq      gap      omega  full diag
   1    -16.9023867 -0.169024E+02  0.110E-01    3.74       0.0  T
   2    -16.9023876 -0.938193E-06  0.650E-02    3.74       1.0  T
   3    -16.9023877 -0.776241E-07  0.413E-03    3.74       6.7  T
   4    -16.9023878 -0.943439E-07  0.159E-03    3.74      17.4  T
   5    -16.9023878 -0.246965E-08  0.550E-04    3.74      50.4  T
   6    -16.9023878 -0.429161E-09  0.269E-04    3.74     103.2  T
     SCC iter.                  ...        0 min,  0.001 sec
     gradient                   ...        0 min,  0.002 sec
 * total energy  :   -16.6887398 Eh     change       -0.1894313E-04 Eh
   gradient norm :     0.0033611 Eh/α   predicted    -0.1387430E-04 ( -26.76%)
   displ. norm   :     0.0228003 α      lambda       -0.1191042E-04
   maximum displ.:     0.0168802 α      in ANC's #3, #5, #1, ...

........................................................................
.............................. CYCLE    7 ..............................
........................................................................

 iter      E             dE          RMSdq      gap      omega  full diag
   1    -16.9027300 -0.169027E+02  0.250E-02    3.75       0.0  T
   2    -16.9027300 -0.214043E-07  0.147E-02    3.75       1.9  T
   3    -16.9027300 -0.685150E-08  0.739E-04    3.75      37.5  T
   4    -16.9027300 -0.233385E-08  0.404E-04    3.75      68.6  T
     SCC iter.                  ...        0 min,  0.001 sec
     gradient                   ...        0 min,  0.002 sec
 * total energy  :   -16.6887503 Eh     change       -0.1042393E-04 Eh
   gradient norm :     0.0022327 Eh/α   predicted    -0.5959101E-05 ( -42.83%)
   displ. norm   :     0.1042274 α      lambda       -0.3187114E-04
   maximum displ.:     0.0787298 α      in ANC's #3, #5, #1, ...

........................................................................
.............................. CYCLE    8 ..............................
........................................................................

 iter      E             dE          RMSdq      gap      omega  full diag
   1    -16.9033752 -0.169034E+02  0.117E-01    3.75       0.0  T
   2    -16.9033757 -0.449224E-06  0.689E-02    3.75       1.0  T
   3    -16.9033758 -0.151091E-06  0.297E-03    3.75       9.3  T
   4    -16.9033759 -0.322495E-07  0.174E-03    3.75      16.0  T
   5    -16.9033759 -0.259683E-08  0.692E-04    3.75      40.1  T
   6    -16.9033759 -0.108781E-08  0.192E-04    3.75     144.5  T
     SCC iter.                  ...        0 min,  0.001 sec
     gradient                   ...        0 min,  0.002 sec
 * total energy  :   -16.6887698 Eh     change       -0.1952425E-04 Eh
   gradient norm :     0.0009519 Eh/α   predicted    -0.1611005E-04 ( -17.49%)
   displ. norm   :     0.0707812 α      lambda       -0.4752002E-05
   maximum displ.:     0.0534506 α      in ANC's #3, #5, #1, ...

........................................................................
.............................. CYCLE    9 ..............................
........................................................................

 iter      E             dE          RMSdq      gap      omega  full diag
   1    -16.9034587 -0.169035E+02  0.820E-02    3.75       0.0  T
   2    -16.9034590 -0.257584E-06  0.483E-02    3.75       1.0  T
   3    -16.9034590 -0.641073E-07  0.217E-03    3.75      12.8  T
   4    -16.9034591 -0.212698E-07  0.115E-03    3.75      24.2  T
   5    -16.9034591 -0.121970E-08  0.407E-04    3.75      68.1  T
   6    -16.9034591 -0.295604E-09  0.149E-04    3.75     185.8  T
     SCC iter.                  ...        0 min,  0.001 sec
     gradient                   ...        0 min,  0.002 sec
 * total energy  :   -16.6887736 Eh     change       -0.3794302E-05 Eh
   gradient norm :     0.0009014 Eh/α   predicted    -0.2380054E-05 ( -37.27%)
   displ. norm   :     0.0086673 α      lambda       -0.1153270E-05
   maximum displ.:     0.0065047 α      in ANC's #2, #4, #1, ...

........................................................................
.............................. CYCLE   10 ..............................
........................................................................

 iter      E             dE          RMSdq      gap      omega  full diag
   1    -16.9036616 -0.169037E+02  0.880E-03    3.76       0.0  T
   2    -16.9036616 -0.339532E-07  0.520E-03    3.76       5.3  T
   3    -16.9036616 -0.130228E-08  0.757E-04    3.76      36.6  T
   4    -16.9036616 -0.115623E-08  0.199E-04    3.76     139.5  T
     SCC iter.                  ...        0 min,  0.001 sec
     gradient                   ...        0 min,  0.002 sec
 * total energy  :   -16.6887745 Eh     change       -0.8762200E-06 Eh
   gradient norm :     0.0004951 Eh/α   predicted    -0.5776731E-06 ( -34.07%)
   displ. norm   :     0.0197682 α      lambda       -0.8964284E-06
   maximum displ.:     0.0117414 α      in ANC's #3, #4, #2, ...

........................................................................
.............................. CYCLE   11 ..............................
........................................................................

 iter      E             dE          RMSdq      gap      omega  full diag
   1    -16.9035519 -0.169036E+02  0.270E-02    3.76       0.0  T
   2    -16.9035519 -0.242510E-07  0.159E-02    3.76       1.7  T
   3    -16.9035519 -0.663562E-08  0.653E-04    3.76      42.5  T
   4    -16.9035519 -0.193029E-08  0.346E-04    3.76      80.2  T
     SCC iter.                  ...        0 min,  0.001 sec
     gradient                   ...        0 min,  0.002 sec
 * total energy  :   -16.6887754 Eh     change       -0.9719391E-06 Eh
   gradient norm :     0.0004004 Eh/α   predicted    -0.4468920E-06 ( -54.02%)
   displ. norm   :     0.0208947 α      lambda       -0.8102890E-06
   maximum displ.:     0.0129725 α      in ANC's #2, #4, #1, ...

........................................................................
.............................. CYCLE   12 ..............................
........................................................................

 iter      E             dE          RMSdq      gap      omega  full diag
   1    -16.9034931 -0.169035E+02  0.230E-02    3.76       0.0  T
   2    -16.9034931 -0.182254E-07  0.136E-02    3.76       2.0  T
   3    -16.9034931 -0.507429E-08  0.568E-04    3.76      48.9  T
   4    -16.9034931 -0.137090E-08  0.306E-04    3.76      90.5  T
     SCC iter.                  ...        0 min,  0.001 sec
     gradient                   ...        0 min,  0.002 sec
 * total energy  :   -16.6887763 Eh     change       -0.8841318E-06 Eh
   gradient norm :     0.0001500 Eh/α   predicted    -0.4037306E-06 ( -54.34%)
   displ. norm   :     0.0154380 α      lambda       -0.3602899E-06
   maximum displ.:     0.0102741 α      in ANC's #2, #1, #4, ...

........................................................................
.............................. CYCLE   13 ..............................
........................................................................

 iter      E             dE          RMSdq      gap      omega  full diag
   1    -16.9035164 -0.169035E+02  0.997E-03    3.76       0.0  T
   2    -16.9035164 -0.210193E-08  0.591E-03    3.76       4.7  T
   3    -16.9035164 -0.973504E-09  0.220E-04    3.76     126.3  T
   4    -16.9035164 -0.139881E-09  0.134E-04    3.76     206.5  T
     SCC iter.                  ...        0 min,  0.001 sec
     gradient                   ...        0 min,  0.002 sec
 * total energy  :   -16.6887767 Eh     change       -0.3603538E-06 Eh
   gradient norm :     0.0000759 Eh/α   predicted    -0.1811456E-06 ( -49.73%)
   displ. norm   :     0.0069248 α      lambda       -0.7993493E-07
   maximum displ.:     0.0048996 α      in ANC's #1, #2, #3, ...

........................................................................
.............................. CYCLE   14 ..............................
........................................................................

 iter      E             dE          RMSdq      gap      omega  full diag
   1    -16.9035267 -0.169035E+02  0.341E-03    3.76       0.0  T
   2    -16.9035267 -0.323926E-09  0.203E-03    3.76      13.7  T
   3    -16.9035267 -0.613838E-10  0.943E-05    3.76     294.2  T
   4    -16.9035267 -0.520188E-10  0.436E-05    3.76     636.4  T
     SCC iter.                  ...        0 min,  0.001 sec
     gradient                   ...        0 min,  0.002 sec
 * total energy  :   -16.6887767 Eh     change       -0.7171446E-07 Eh
   gradient norm :     0.0000455 Eh/α   predicted    -0.3977708E-07 ( -44.53%)
   displ. norm   :     0.0028261 α      lambda       -0.1771293E-07
   maximum displ.:     0.0023435 α      in ANC's #1, #2, #3, ...

   *** GEOMETRY OPTIMIZATION CONVERGED AFTER 14 ITERATIONS ***

------------------------------------------------------------------------
 total energy gain   :        -0.0007460 Eh       -0.4681 kcal/mol
 total RMSD          :         0.1218853 a0        0.0645 Å
 total power (kW/mol):        -0.1399051 (step)  -25.5488 (real)
------------------------------------------------------------------------

 ANCopt (total)                0 d,  0 h,  0 min,  0.077 sec
 optimizer setup                ...        0 min,  0.000 sec (  0.429%)
 model hessian                  ...        0 min,  0.003 sec (  3.481%)
 ANC generation                 ...        0 min,  0.000 sec (  0.275%)
 coordinate transformation      ...        0 min,  0.000 sec (  0.090%)
 single point calculation       ...        0 min,  0.065 sec ( 85.173%)
 optimization log               ...        0 min,  0.006 sec (  7.981%)
 hessian update                 ...        0 min,  0.000 sec (  0.096%)
 rational function              ...        0 min,  0.001 sec (  1.611%)

================
 final structure:
================
$coord
       -3.49839980405500       -1.43552002860799       -0.23025938225930      C
       -2.50751727043931        1.14180713413697        0.59080584396927      C
        0.13765075709099        1.63689165459678       -0.46621137446868      C
        2.06341722933018       -0.09510918909691        0.63800307744220      C
        3.79220644848128       -1.06532238150776       -0.49419280597149      O
       -2.24562356710715       -2.93211750753067        0.41875207630682      H
       -5.37072184944996       -1.76852443780088        0.54520177045083      H
       -3.61531252588941       -1.54371935794859       -2.27910253513191      H
       -2.44907224854214        1.23783628755510        2.65017692931107      H
       -3.78400555423843        2.61320832392169       -0.08039320803067      H
        0.16720853057842        1.48580899984137       -2.52211236709058      H
        0.73010815669979        3.54984121387009        0.04770504582855      H
        1.83078624339515       -0.44500496557481        2.68575614099586      H
$end
 
 Bond Distances (Angstroems)
 ---------------------------
C1-C2=1.5244         C1-H6=1.0884         C1-H7=1.0868         C1-H8=1.0875         C2-C1=1.5244         C2-C3=1.5300         
C2-H9=1.0914         C2-H10=1.0903        C3-C2=1.5300         C3-C4=1.4900         C3-H11=1.0910        C3-H12=1.0941        
C4-C3=1.4900         C4-O5=1.2081         C4-H13=1.1062        O5-C4=1.2081         H6-C1=1.0884         H7-C1=1.0868         
H8-C1=1.0875         H9-C2=1.0914         H10-C2=1.0903        H11-C3=1.0910        H12-C3=1.0941        H13-C4=1.1062        
 C  H  Rav=1.0920 sigma=0.0058  Rmin=1.0868  Rmax=1.1062     8
 C  C  Rav=1.5148 sigma=0.0177  Rmin=1.4900  Rmax=1.5300     3
 O  C  Rav=1.2081 sigma=0.0000  Rmin=1.2081  Rmax=1.2081     1
 
 selected bond angles (degree)
 --------------------
H6-C1-C2=110.58                H7-C1-C2=110.55                H7-C1-H6=108.55                H8-C1-C2=110.54                
H8-C1-H6=108.12                H8-C1-H7=108.42                C3-C2-C1=111.33                H9-C2-C1=109.63                
H9-C2-C3=109.34                H10-C2-C1=109.45               H10-C2-C3=108.99               H10-C2-H9=108.03               
C4-C3-C2=112.15                H11-C3-C2=111.42               H11-C3-C4=109.65               H12-C3-C2=109.25               
H12-C3-C4=106.00               H12-C3-H11=108.15              O5-C4-C3=125.79                H13-C4-C3=114.27               
H13-C4-O5=119.93               
 
 selected dihedral angles (degree)
 ---------------------------------
C3-C2-C1-H6= 59.31            C3-C2-C1-H7=179.55            C3-C2-C1-H8=299.61            H9-C2-C1-H6=298.19            
H9-C2-C1-H7= 58.44            H9-C2-C1-H8=178.50            H10-C2-C1-H6=179.86           H10-C2-C1-H7=300.11           
H10-C2-C1-H8= 60.17           C4-C3-C2-C1=293.24            C4-C3-C2-H9= 54.53            C4-C3-C2-H10=172.42           
H11-C3-C2-C1= 56.58           H11-C3-C2-H9=177.86           H11-C3-C2-H10=295.75          H12-C3-C2-C1=176.02           
H12-C3-C2-H9=297.30           H12-C3-C2-H10= 55.19          O5-C4-C3-C2=140.64            O5-C4-C3-H11= 16.31           
O5-C4-C3-H12=259.79           H13-C4-C3-C2=319.66           H13-C4-C3-H11=195.33          H13-C4-C3-H12= 78.81          
           -------------------------------------------------
          |                Final Singlepoint                |
           -------------------------------------------------

          ...................................................
          :                      SETUP                      :
          :.................................................:
          :  # basis functions                  28          :
          :  # atomic orbitals                  28          :
          :  # shells                           18          :
          :  # electrons                        30          :
          :  max. iterations                   250          :
          :  Hamiltonian                  GFN2-xTB          :
          :  restarted?                      false          :
          :  GBSA solvation                   true          :
          :  PC potential                    false          :
          :  electronic temp.          300.0000000     K    :
          :  accuracy                    1.0000000          :
          :  -> integral cutoff          0.2500000E+02      :
          :  -> integral neglect         0.1000000E-07      :
          :  -> SCF convergence          0.1000000E-05 Eh   :
          :  -> wf. convergence          0.1000000E-03 e    :
          :  Broyden damping             0.4000000          :
          :  net charge                          0          :
          :  unpaired electrons                  0          :
          ...................................................

 iter      E             dE          RMSdq      gap      omega  full diag
   1    -16.9035267 -0.169035E+02  0.195E-05    3.76       0.0  T
   2    -16.9035267 -0.515143E-12  0.118E-05    3.76    2350.7  T
   3    -16.9035267 -0.603961E-13  0.642E-06    3.76    4318.0  T

   *** convergence criteria satisfied after 3 iterations ***

         #    Occupation            Energy/Eh            Energy/eV
      -------------------------------------------------------------
         1        2.0000           -0.7260486             -19.7568
       ...           ...                  ...                  ...
         9        2.0000           -0.5019883             -13.6598
        10        2.0000           -0.4920136             -13.3884
        11        2.0000           -0.4776682             -12.9980
        12        2.0000           -0.4485255             -12.2050
        13        2.0000           -0.4451321             -12.1127
        14        2.0000           -0.4373683             -11.9014
        15        2.0000           -0.4072615             -11.0822 (HOMO)
        16                         -0.2692273              -7.3260 (LUMO)
        17                          0.0897965               2.4435
        18                          0.1046513               2.8477
        19                          0.1232930               3.3550
        20                          0.1300052               3.5376
       ...                                ...                  ...
        28                          0.5824883              15.8503
      -------------------------------------------------------------
                  HL-Gap            0.1380342 Eh            3.7561 eV
             Fermi-level           -0.3382444 Eh           -9.2041 eV

 SCC (total)                   0 d,  0 h,  0 min,  0.005 sec
 SCC setup                      ...        0 min,  0.001 sec ( 15.780%)
 Dispersion                     ...        0 min,  0.000 sec (  0.767%)
 classical contributions        ...        0 min,  0.000 sec (  0.266%)
 integral evaluation            ...        0 min,  0.001 sec ( 16.459%)
 iterations                     ...        0 min,  0.001 sec ( 18.541%)
 molecular gradient             ...        0 min,  0.002 sec ( 45.045%)
 printout                       ...        0 min,  0.000 sec (  2.755%)

         :::::::::::::::::::::::::::::::::::::::::::::::::::::
         ::                     SUMMARY                     ::
         :::::::::::::::::::::::::::::::::::::::::::::::::::::
         :: total energy             -16.688776748618 Eh    ::
         :: total w/o Gsasa/hb       -16.690083093246 Eh    ::
         :: gradient norm              0.000045473152 Eh/a0 ::
         :: HOMO-LUMO gap              3.756102959941 eV    ::
         ::.................................................::
         :: SCC energy               -16.903519250970 Eh    ::
         :: -> isotropic ES            0.033759325258 Eh    ::
         :: -> anisotropic ES          0.001860460820 Eh    ::
         :: -> anisotropic XC          0.007949202446 Eh    ::
         :: -> dispersion             -0.006209645075 Eh    ::
         :: -> Gsolv                  -0.005569166641 Eh    ::
         ::    -> Gelec               -0.006875511269 Eh    ::
         ::    -> Gsasa                0.001838784495 Eh    ::
         ::    -> Ghb                 -0.001613199565 Eh    ::
         ::    -> Gshift               0.001080759698 Eh    ::
         :: repulsion energy           0.214742502352 Eh    ::
         :: add. restraining           0.000000000000 Eh    ::
         :: total charge              -0.000000000000 e     ::
         :::::::::::::::::::::::::::::::::::::::::::::::::::::

           ------------------------------------------------- 
          |                Numerical Hessian                |
           ------------------------------------------------- 
step length          :   0.00500
SCC accuracy         :   0.30000
Hessian scale factor :   1.00000
frozen atoms in %    :   0.00000    0
RMS gradient         :   0.00005
estimated CPU  time      0.01 min
estimated wall time      0.01 min

writing file <hessian>.

 projected vibrational frequencies (cm⁻¹)
eigval :       -0.00    -0.00    -0.00    -0.00     0.00     0.00
eigval :       66.73   130.16   205.88   301.06   392.52   513.97
eigval :      741.78   814.98   928.50   940.62   990.26  1075.30
eigval :     1113.98  1138.09  1172.76  1242.66  1297.35  1334.28
eigval :     1376.60  1412.91  1419.21  1481.31  1496.08  1501.81
eigval :     1727.15  2771.41  2950.52  2980.24  2998.99  3001.45
eigval :     3023.44  3036.01  3045.37
           -------------------------------------------------
          |                Property Printout                |
           -------------------------------------------------

    * Orbital Energies and Occupations

         #    Occupation            Energy/Eh            Energy/eV
      -------------------------------------------------------------
         1        2.0000           -0.7260486             -19.7568
       ...           ...                  ...                  ...
         3        2.0000           -0.6150337             -16.7359
         4        2.0000           -0.5966650             -16.2361
         5        2.0000           -0.5753299             -15.6555
         6        2.0000           -0.5499630             -14.9653
         7        2.0000           -0.5442409             -14.8095
         8        2.0000           -0.5323354             -14.4856
         9        2.0000           -0.5019883             -13.6598
        10        2.0000           -0.4920136             -13.3884
        11        2.0000           -0.4776682             -12.9980
        12        2.0000           -0.4485255             -12.2050
        13        2.0000           -0.4451321             -12.1127
        14        2.0000           -0.4373683             -11.9014
        15        2.0000           -0.4072615             -11.0822 (HOMO)
        16                         -0.2692273              -7.3260 (LUMO)
        17                          0.0897965               2.4435
        18                          0.1046513               2.8477
        19                          0.1232930               3.3550
        20                          0.1300052               3.5376
        21                          0.1587288               4.3192
        22                          0.1850483               5.0354
        23                          0.2046204               5.5680
        24                          0.2225770               6.0566
        25                          0.2582551               7.0275
        26                          0.2699597               7.3460
       ...                                ...                  ...
        28                          0.5824883              15.8503
      -------------------------------------------------------------
                  HL-Gap            0.1380342 Eh            3.7561 eV
             Fermi-level           -0.3382444 Eh           -9.2041 eV

     #   Z          covCN         q      C6AA      α(0)
     1   6 C        3.752    -0.114    22.749     6.802
     2   6 C        3.802    -0.062    21.690     6.631
     3   6 C        3.804    -0.096    22.323     6.726
     4   6 C        2.759     0.227    23.236     7.894
     5   8 O        0.856    -0.403    21.748     6.252
     6   1 H        0.925     0.032     2.565     2.504
     7   1 H        0.925     0.049     2.332     2.388
     8   1 H        0.925     0.044     2.393     2.419
     9   1 H        0.924     0.049     2.334     2.389
    10   1 H        0.924     0.058     2.220     2.330
    11   1 H        0.924     0.079     1.989     2.206
    12   1 H        0.924     0.102     1.763     2.076
    13   1 H        0.922     0.036     2.509     2.477

 Mol. C6AA /au·bohr⁶  :       1264.716484
 Mol. C8AA /au·bohr⁸  :      27019.716999
 Mol. α(0) /au        :         53.095066


Wiberg/Mayer (AO) data.
largest (>0.10) Wiberg bond orders for each atom

 ---------------------------------------------------------------------------
     #   Z sym  total        # sym  WBO       # sym  WBO       # sym  WBO
 ---------------------------------------------------------------------------
     1   6 C    3.995 --     2 C    1.020     8 H    0.987     6 H    0.986
                             7 H    0.986
     2   6 C    3.993 --     1 C    1.020     3 C    0.991    10 H    0.976
                             9 H    0.976
     3   6 C    3.991 --     4 C    1.032     2 C    0.991    11 H    0.965
                            12 H    0.919
     4   6 C    3.890 --     5 O    1.870     3 C    1.032    13 H    0.932
     5   8 O    2.039 --     4 C    1.870
     6   1 H    0.999 --     1 C    0.986
     7   1 H    0.998 --     1 C    0.986
     8   1 H    0.998 --     1 C    0.987
     9   1 H    0.998 --     2 C    0.976
    10   1 H    0.997 --     2 C    0.976
    11   1 H    0.994 --     3 C    0.965
    12   1 H    0.990 --     3 C    0.919
    13   1 H    0.999 --     4 C    0.932
 ---------------------------------------------------------------------------

Topologies differ in total number of bonds
Writing topology from bond orders to xtbtopo.mol

molecular dipole:
                 x           y           z       tot (Debye)
 q only:       -1.200       0.775       0.343
   full:       -1.227       0.804       0.446       3.898
molecular quadrupole (traceless):
                xx          xy          yy          xz          yz          zz
 q only:       -4.546       2.429       2.384       1.646      -0.504       2.162
  q+dip:       -6.154       2.694       2.322       2.421      -0.983       3.832
   full:       -5.841       3.434       2.868       2.465      -0.659       2.972

           -------------------------------------------------
          |                Geometry Summary                 |
           -------------------------------------------------

      molecular mass/u    :       72.1058745
   center of mass at/Å    :        0.0008833       0.0011778      -0.0002597
  moments of inertia/u·Å² :        0.4728198E+02   0.1733911E+03   0.1977279E+03
rotational constants/cm⁻¹ :        0.3565340E+00   0.9722317E-01   0.8525673E-01

 * 10 selected distances

     #   Z          #   Z                                           value/Å
     1   6 C        2   6 C                                       1.5244174
     2   6 C        3   6 C                                       1.5299821 (max)
     4   6 C        5   8 O                                       1.2080890
     1   6 C        6   1 H                                       1.0884172
     1   6 C        7   1 H                                       1.0867891 (min)
     1   6 C        8   1 H                                       1.0874733
     2   6 C        9   1 H                                       1.0913948
     2   6 C       10   1 H                                       1.0902788
     3   6 C       11   1 H                                       1.0909819
     3   6 C       12   1 H                                       1.0940657

 * 3 distinct bonds (by element types)

   Z      Z             #   av. dist./Å        max./Å        min./Å
   1 H    6 C           7     1.0899144     1.0940657     1.0867891
   6 C    6 C           2     1.5271997     1.5299821     1.5244174
   6 C    8 O           1     1.2080890     1.2080890     1.2080890

           -------------------------------------------------
          |               Frequency Printout                |
           -------------------------------------------------
 projected vibrational frequencies (cm⁻¹)
eigval :       -0.00    -0.00    -0.00    -0.00     0.00     0.00
eigval :       66.73   130.16   205.88   301.06   392.52   513.97
eigval :      741.78   814.98   928.50   940.62   990.26  1075.30
eigval :     1113.98  1138.09  1172.76  1242.66  1297.35  1334.28
eigval :     1376.60  1412.91  1419.21  1481.31  1496.08  1501.81
eigval :     1727.15  2771.41  2950.52  2980.24  2998.99  3001.45
eigval :     3023.44  3036.01  3045.37
 reduced masses (amu)
   1: 13.65   2: 10.27   3: 10.26   4: 12.22   5: 10.23   6:  9.95   7: 11.67   8:  6.04
   9:  3.29  10:  6.91  11:  7.72  12: 10.78  13:  4.31  14:  3.38  15:  4.13  16:  7.09
  17:  6.45  18:  4.85  19:  7.97  20:  6.98  21:  5.23  22:  3.63  23:  4.18  24:  4.70
  25:  3.09  26:  2.91  27:  2.21  28:  1.93  29:  1.52  30:  1.58  31: 13.42  32:  1.68
  33:  1.77  34:  1.88  35:  1.56  36:  1.73  37:  1.88  38:  1.84  39:  1.44
 IR intensities (km·mol⁻¹)
   1:  1.48   2:  1.56   3:  0.71   4:  3.63   5:  1.05   6:  1.44   7:  9.14   8:  2.80
   9:  1.81  10:  6.47  11:  4.30  12: 15.07  13:  7.83  14: 20.67  15:  4.10  16: 10.58
  17: 21.94  18:  6.02  19: 14.22  20: 38.59  21: 17.95  22:  0.49  23:  0.76  24:  4.38
  25: 26.54  26:  8.52  27: 10.25  28:  0.05  29:  3.39  30:  0.15  31:527.02  32:169.64
  33:  4.74  34: 36.56  35: 37.92  36: 34.74  37: 89.11  38: 69.05  39: 37.04
 Raman intensities (Ä⁴*amu⁻¹)
   1:  0.00   2:  0.00   3:  0.00   4:  0.00   5:  0.00   6:  0.00   7:  0.00   8:  0.00
   9:  0.00  10:  0.00  11:  0.00  12:  0.00  13:  0.00  14:  0.00  15:  0.00  16:  0.00
  17:  0.00  18:  0.00  19:  0.00  20:  0.00  21:  0.00  22:  0.00  23:  0.00  24:  0.00
  25:  0.00  26:  0.00  27:  0.00  28:  0.00  29:  0.00  30:  0.00  31:  0.00  32:  0.00
  33:  0.00  34:  0.00  35:  0.00  36:  0.00  37:  0.00  38:  0.00  39:  0.00
 output can be read by thermo (or use thermo option).
 writing <g98.out> molden fake output.
 recommended (thermochemical) frequency scaling factor: 1.0
           -------------------------------------------------
          |             Thermodynamic Functions             |
           -------------------------------------------------

Molecule has no symmetry elements
It seems to be the C1 point group
c1  symmetry found (for desy threshold:  0.10E+00) used in thermo

          ...................................................
          :                      SETUP                      :
          :.................................................:
          :  # frequencies                          33      :
          :  # imaginary freq.                       0      :
          :  linear?                             false      :
          :  only rotor calc.                    false      :
          :  symmetry                               c1      :
          :  rotational number                       1      :
          :  scaling factor                  1.0000000      :
          :  rotor cutoff                    0.0000000 cm⁻¹ :
          :  imag. cutoff                 -100.0000000 cm⁻¹ :
          :.................................................:

    mode    ω/cm⁻¹     T·S(HO)/kcal·mol⁻¹    T·S(FR)/kcal·mol⁻¹   T·S(vib)
   ------------------------------------------------------------------------
       1     66.73    -1.26638 (100.00%)    -0.97049 (  0.00%)    -1.26638
       2    130.16    -0.87767 (100.00%)    -0.77286 (  0.00%)    -0.87767
       3    205.88    -0.62012 (100.00%)    -0.63711 (  0.00%)    -0.62012
   ------------------------------------------------------------------------

   temp. (K)  partition function   enthalpy   heat capacity  entropy
                                   cal/mol     cal/K/mol   cal/K/mol   J/K/mol
 298.15  VIB   23.1                 2164.738     14.860     13.501
         ROT  0.973E+05              888.752      2.981     25.805
         INT  0.225E+07             3053.490     17.841     39.306
         TR   0.592E+27             1481.254      4.968     38.726
         TOT                        4534.7441    22.8089    78.0317   326.4847

       T/K    H(0)-H(T)+PV         H(T)/Eh          T*S/Eh         G(T)/Eh
   ------------------------------------------------------------------------
    298.15    0.722657E-02    0.117999E+00    0.370754E-01    0.809234E-01
   ------------------------------------------------------------------------

         :::::::::::::::::::::::::::::::::::::::::::::::::::::
         ::                  THERMODYNAMIC                  ::
         :::::::::::::::::::::::::::::::::::::::::::::::::::::
         :: total free energy         -16.607853361547 Eh   ::
         ::.................................................::
         :: total energy              -16.688776748544 Eh   ::
         :: zero point energy           0.110772196637 Eh   ::
         :: G(RRHO) w/o ZPVE           -0.029848809640 Eh   ::
         :: G(RRHO) contrib.            0.080923386997 Eh   ::
         :::::::::::::::::::::::::::::::::::::::::::::::::::::

optimized geometry written to: xtbopt.coord


           -------------------------------------------------
          | TOTAL ENERGY              -16.688776748544 Eh   |
          | TOTAL ENTHALPY            -16.570777977144 Eh   |
          | TOTAL FREE ENERGY         -16.607853361547 Eh   |
          | GRADIENT NORM               0.000045478623 Eh/α |
          | HOMO-LUMO GAP               3.756101920071 eV   |
           -------------------------------------------------

------------------------------------------------------------------------
 * finished run on 2025/04/11 at 12:27:52.920     
------------------------------------------------------------------------
 total:
 * wall-time:     0 d,  0 h,  0 min,  0.563 sec
 *  cpu-time:     0 d,  0 h,  0 min,  0.473 sec
 * ratio c/w:     0.841 speedup
 SCF:
 * wall-time:     0 d,  0 h,  0 min,  0.020 sec
 *  cpu-time:     0 d,  0 h,  0 min,  0.008 sec
 * ratio c/w:     0.397 speedup
 ANC optimizer:
 * wall-time:     0 d,  0 h,  0 min,  0.094 sec
 *  cpu-time:     0 d,  0 h,  0 min,  0.077 sec
 * ratio c/w:     0.824 speedup
 analytical hessian:
 * wall-time:     0 d,  0 h,  0 min,  0.389 sec
 *  cpu-time:     0 d,  0 h,  0 min,  0.379 sec
 * ratio c/w:     0.974 speedup

