
                                 *****************
                                 * O   R   C   A *
                                 *****************

                                            #,                                       
                                            ###                                      
                                            ####                                     
                                            #####                                    
                                            ######                                   
                                           ########,                                 
                                     ,,################,,,,,                         
                               ,,#################################,,                 
                          ,,##########################################,,             
                       ,#########################################, ''#####,          
                    ,#############################################,,   '####,        
                  ,##################################################,,,,####,       
                ,###########''''           ''''###############################       
              ,#####''   ,,,,##########,,,,          '''####'''          '####       
            ,##' ,,,,###########################,,,                        '##       
           ' ,,###''''                  '''############,,,                           
         ,,##''                                '''############,,,,        ,,,,,,###''
      ,#''                                            '''#######################'''  
     '                                                          ''''####''''         
             ,#######,   #######,   ,#######,      ##                                
            ,#'     '#,  ##    ##  ,#'     '#,    #''#        ,####,   ,####,        
            ##       ##  ##   ,#'  ##            #'  '#       #'       #'  '#        
            ##       ##  #######   ##           ,######,      #####,   #    #        
            '#,     ,#'  ##    ##  '#,     ,#' ,#      #,     #,   #   #,  ,#        
             '#######'   ##     ##  '#######'  #'      '#     '####' # '####'        



                #########################################################
                #                        -***-                          #
                #          Department of theory and spectroscopy        #
                #                                                       #
                #                      Frank Neese                      #
                #                                                       #
                #     Directorship, Architecture, Infrastructure        #
                #                    SHARK, DRIVERS                     #
                #        Core code/Algorithms in most modules           #
                #                                                       #
                #        Max Planck Institute fuer Kohlenforschung      #
                #                Kaiser Wilhelm Platz 1                 #
                #                 D-45470 Muelheim/Ruhr                 #
                #                      Germany                          #
                #                                                       #
                #                  All rights reserved                  #
                #                        -***-                          #
                #########################################################


                         Program Version 6.0.0  -   RELEASE  -


 With contributions from (in alphabetic order):
   Daniel Aravena         : Magnetic Suceptibility
   Michael Atanasov       : Ab Initio Ligand Field Theory (pilot matlab implementation)
   Alexander A. Auer      : GIAO ZORA, VPT2 properties, NMR spectrum
   Ute Becker             : All parallelization in ORCA, NUMFREQ, NUMCALC
   Giovanni Bistoni       : ED, misc. LED, open-shell LED, HFLD
   Martin Brehm           : Molecular dynamics
   Dmytro Bykov           : pre 5.0 version of the SCF Hessian
   Marcos Casanova-Páez   : Triplet and SCS-CIS(D). UHF-(DLPNO)-IP/EA/STEOM-CCSD. UHF-CVS-IP/STEOM-CCSD
   Vijay G. Chilkuri      : MRCI spin determinant printing, contributions to CSF-ICE
   Pauline Colinet        : FMM embedding
   Dipayan Datta          : RHF DLPNO-CCSD density
   Achintya Kumar Dutta   : EOM-CC, STEOM-CC
   Nicolas Foglia         : Exact transition moments, OPA infrastructure, MCD improvements
   Dmitry Ganyushin       : Spin-Orbit,Spin-Spin,Magnetic field MRCI
   Miquel Garcia          : C-PCM and meta-GGA Hessian, CCSD/C-PCM, Gaussian charge scheme
   Tiago L. C. Gouveia    : GS-ROHF, GS-ROCIS
   Yang Guo               : DLPNO-NEVPT2, F12-NEVPT2, CIM, IAO-localization
   Andreas Hansen         : Spin unrestricted coupled pair/coupled cluster methods
   Ingolf Harden          : AUTO-CI MPn and infrastructure 
   Benjamin Helmich-Paris : MC-RPA, TRAH-(SCF,CASSCF), AVAS, COSX integrals, SCF dyn. polar.
   Lee Huntington         : MR-EOM, pCC
   Robert Izsak           : Overlap fitted RIJCOSX, COSX-SCS-MP3, EOM
   Riya Kayal             : Wick's Theorem for AUTO-CI, AUTO-CI UHF-CCSDT
   Emily Kempfer          : AUTO-CI, RHF CISDT and CCSDT
   Christian Kollmar      : KDIIS, OOCD, Brueckner-CCSD(T), CCSD density, CASPT2, CASPT2-K, improved NEVPT2
   Axel Koslowski         : Symmetry handling
   Simone Kossmann        : Meta GGA functionals, TD-DFT gradient, OOMP2, (MP2 Hessian; deprecated post 5.0)
   Lucas Lang             : DCDCAS
   Marvin Lechner         : AUTO-CI (C++ implementation), FIC-MRCC
   Spencer Leger          : CASSCF response
   Dagmar Lenk            : GEPOL surface, SMD, ORCA-2-JSON
   Dimitrios Liakos       : Extrapolation schemes; Compound Job, initial MDCI parallelization
   Dimitrios Manganas     : Further ROCIS development; embedding schemes. LFT, Crystal Embedding
   Dimitrios Pantazis     : SARC Basis sets
   Anastasios Papadopoulos: AUTO-CI, single reference methods and gradients
   Taras Petrenko         : pre 6.0 DFT Hessian and TD-DFT gradient, (ASA, deprecated), ECA, 1-Electron XAS/XES, NRVS
   Peter Pinski           : DLPNO-MP2, DLPNO-MP2 Gradient
   Christoph Reimann      : Effective Core Potentials
   Marius Retegan         : Local ZFS, SOC
   Christoph Riplinger    : Optimizer, TS searches, QM/MM, DLPNO-CCSD(T), (RO)-DLPNO pert. Triples
   Michael Roemelt        : Original ROCIS implementation
   Masaaki Saitow         : Open-shell DLPNO-CCSD energy and density
   Barbara Sandhoefer     : DKH picture change effects
   Kantharuban Sivalingam : CASSCF convergence/infrastructure, NEVPT2 and variants, FIC-MRCI
   Bernardo de Souza      : ESD, SOC TD-DFT
   Georgi Stoychev        : AutoAux, RI-MP2 NMR, DLPNO-MP2 response, X2C
   Van Anh Tran           : RI-MP2 g-tensors
   Willem Van den Heuvel  : Paramagnetic NMR
   Zikuan Wang            : NOTCH, Electric field optimization 
   Frank Wennmohs         : Technical directorship and infrastructure
   Hang Xu                : AUTO-CI-Response properties 


 We gratefully acknowledge several colleagues who have allowed us to
 interface, adapt or use parts of their codes:
   Stefan Grimme, W. Hujo, H. Kruse, P. Pracht,  : VdW corrections, initial TS optimization,
                  C. Bannwarth, S. Ehlert,         DFT functionals, gCP, sTDA/sTD-DF
                  L. Wittmann, M. Mueller
   Ed Valeev, F. Pavosevic, A. Kumar             : LibInt (2-el integral package), F12 methods
   Garnet Chan, S. Sharma, J. Yang, R. Olivares  : DMRG
   Ulf Ekstrom                                   : XCFun DFT Library
   Mihaly Kallay                                 : mrcc  (arbitrary order and MRCC methods)
   Frank Weinhold                                : gennbo (NPA and NBO analysis)
   Simon Mueller                                 : openCOSMO-RS
   Christopher J. Cramer and Donald G. Truhlar   : smd solvation model
   Lars Goerigk                                  : TD-DFT with DH, B97 family of functionals
   V. Asgeirsson, H. Jonsson                     : NEB implementation
   FAccTs GmbH                                   : IRC, NEB, NEB-TS, DLPNO-Multilevel, CI-OPT
                                                   MM, QMMM, 2- and 3-layer-ONIOM, Crystal-QMMM,
                                                   LR-CPCM, SF, NACMEs, symmetry and pop. for TD-DFT,
                                                   nearIR, NL-DFT gradient (VV10), updates on ESD,
                                                   ML-optimized integration grids, MBIS, APM,
                                                   GOAT, DOCKER, SOLVATOR, interface openCOSMO-RS
   S Lehtola, MJT Oliveira, MAL Marques          : LibXC Library
   Liviu Ungur et al                             : ANISO software


 Your calculation uses the libint2 library for the computation of 2-el integrals
 For citations please refer to: http://libint.valeyev.net

 Your ORCA version has been built with support for libXC version: 6.2.2
 For citations please refer to: https://libxc.gitlab.io

 This ORCA versions uses:
   CBLAS   interface :  Fast vector & matrix operations
   LAPACKE interface :  Fast linear algebra routines
   SCALAPACK package :  Parallel linear algebra routines
   Shared memory     :  Shared parallel matrices
   BLAS/LAPACK       :  OpenBLAS 0.3.27  USE64BITINT DYNAMIC_ARCH NO_AFFINITY SkylakeX SINGLE_THREADED
        Core in use  :  SkylakeX
   Copyright (c) 2011-2014, The OpenBLAS Project


Your calculation utilizes the geometrical counterpoise correction gCP
Please cite in your paper:
H.Kruse, S. Grimme J.Chem.Phys., 136, (2012), 154101 
   

Your calculation utilizes the atom-pairwise dispersion correction
based on EEQ partial charges (D4)


Your calculation utilizes the SMD solvation module
Please cite in your paper:
A.V. Marenich, C.J. Cramer, D.G. Truhlar J. Phys. Chem. B, 113, (2009), 6378 

================================================================================

----- Orbital basis set information -----
Your calculation utilizes the basis: def2-mTZVPP
   Stefan Grimme, Andreas Hansen, Sebastian Ehlert, and Jan-Michael Mewes 
   J. Chem. Phys. 154, 064103 (2021). DOI: 10.1063/5.0040021

----- AuxJ basis set information -----
Your calculation utilizes the auxiliary basis: def2/J
   F. Weigend, Phys. Chem. Chem. Phys. 8, 1057 (2006).

================================================================================
                                        WARNINGS
                       Please study these warnings very carefully!
================================================================================

Using LibXC functional ID 497 : Re-regularized SCAN exchange by Furness et al
[ 1]  J. W. Furness, A. D. Kaplan, J. Ning, J. P. Perdew, and J. Sun.,  J. Phys. Chem. Lett. 11, 8208-8215 (2020)
[ 2]  J. W. Furness, A. D. Kaplan, J. Ning, J. P. Perdew, and J. Sun.,  J. Phys. Chem. Lett. 11, 9248-9248 (2020)
Using LibXC functional ID 498 : Re-regularized SCAN correlation by Furness et al
[ 1]  J. W. Furness, A. D. Kaplan, J. Ning, J. P. Perdew, and J. Sun.,  J. Phys. Chem. Lett. 11, 8208-8215 (2020)
[ 2]  J. W. Furness, A. D. Kaplan, J. Ning, J. P. Perdew, and J. Sun.,  J. Phys. Chem. Lett. 11, 9248-9248 (2020)
Using LibXC functional ID 497 : Re-regularized SCAN exchange by Furness et al
[ 1]  J. W. Furness, A. D. Kaplan, J. Ning, J. P. Perdew, and J. Sun.,  J. Phys. Chem. Lett. 11, 8208-8215 (2020)
[ 2]  J. W. Furness, A. D. Kaplan, J. Ning, J. P. Perdew, and J. Sun.,  J. Phys. Chem. Lett. 11, 9248-9248 (2020)
Using LibXC functional ID 498 : Re-regularized SCAN correlation by Furness et al
[ 1]  J. W. Furness, A. D. Kaplan, J. Ning, J. P. Perdew, and J. Sun.,  J. Phys. Chem. Lett. 11, 8208-8215 (2020)
[ 2]  J. W. Furness, A. D. Kaplan, J. Ning, J. P. Perdew, and J. Sun.,  J. Phys. Chem. Lett. 11, 9248-9248 (2020)

================================================================================
                                       INPUT FILE
================================================================================
NAME = sp_solv.inp
|  1> ! r2scan-3c def2/J RI DEFGRID2 scfconv6 printgap
|  2> %output
|  3>     printlevel normal
|  4> end
|  5> %cpcm
|  6>     smd true
|  7>     smdsolvent "water"
|  8> end
|  9> * xyz 0 1
| 10> C -1.1455963867 0.1981156657 -0.5120136162
| 11> C -0.040390156 0.5162860066 0.4982605515
| 12> C 0.9380876084 -0.6593096083 0.6146802476
| 13> O 1.5795450927 -0.8676480201 -0.6245734539
| 14> O 0.5748502732 1.7109881775 0.0793708679
| 15> O -1.9686524933 -0.810424656 0.0280557817
| 16> H -0.6735633199 -0.1223444253 -1.4476804902
| 17> H -1.7106273334 1.1203527181 -0.6947876466
| 18> H -0.5123183708 0.6530901325 1.485537896
| 19> H 0.3545725697 -1.5381318661 0.9130577394
| 20> H 1.6779149889 -0.4377557983 1.3965278681
| 21> H 2.1288667378 -1.6609022281 -0.5685294001
| 22> H 1.389213384 1.8479919995 0.5839638752
| 23> H -2.6484301506 -1.0412633502 -0.6199494282
| 24> *
| 25> 
| 26>                          ****END OF INPUT****
================================================================================

                       ****************************
                       * Single Point Calculation *
                       ****************************

---------------------------------
CARTESIAN COORDINATES (ANGSTROEM)
---------------------------------
  C     -1.145596    0.198116   -0.512014
  C     -0.040390    0.516286    0.498261
  C      0.938088   -0.659310    0.614680
  O      1.579545   -0.867648   -0.624573
  O      0.574850    1.710988    0.079371
  O     -1.968652   -0.810425    0.028056
  H     -0.673563   -0.122344   -1.447680
  H     -1.710627    1.120353   -0.694788
  H     -0.512318    0.653090    1.485538
  H      0.354573   -1.538132    0.913058
  H      1.677915   -0.437756    1.396528
  H      2.128867   -1.660902   -0.568529
  H      1.389213    1.847992    0.583964
  H     -2.648430   -1.041263   -0.619949

----------------------------
CARTESIAN COORDINATES (A.U.)
----------------------------
  NO LB      ZA    FRAG     MASS         X           Y           Z
   0 C     6.0000    0    12.011   -2.164863    0.374384   -0.967566
   1 C     6.0000    0    12.011   -0.076326    0.975639    0.941576
   2 C     6.0000    0    12.011    1.772729   -1.245915    1.161577
   3 O     8.0000    0    15.999    2.984908   -1.639617   -1.180273
   4 O     8.0000    0    15.999    1.086310    3.233299    0.149989
   5 O     8.0000    0    15.999   -3.720214   -1.531481    0.053018
   6 H     1.0000    0     1.008   -1.272850   -0.231197   -2.735720
   7 H     1.0000    0     1.008   -3.232617    2.117160   -1.312958
   8 H     1.0000    0     1.008   -0.968141    1.234161    2.807260
   9 H     1.0000    0     1.008    0.670045   -2.906648    1.725429
  10 H     1.0000    0     1.008    3.170800   -0.827239    2.639055
  11 H     1.0000    0     1.008    4.022975   -3.138650   -1.074365
  12 H     1.0000    0     1.008    2.625233    3.492199    1.103532
  13 H     1.0000    0     1.008   -5.004808   -1.967703   -1.171535

--------------------------------
INTERNAL COORDINATES (ANGSTROEM)
--------------------------------
 C      0   0   0     0.000000000000     0.00000000     0.00000000
 C      1   0   0     1.530806020412     0.00000000     0.00000000
 C      2   1   0     1.533948281670   110.56896580     0.00000000
 O      3   2   1     1.410894161402   109.66472698    62.99318049
 O      2   1   3     1.407587521223   107.19214897   123.84144853
 O      1   2   3     1.409343779798   108.50988569    69.11288205
 H      1   2   3     1.095893418712   108.25659578   307.73277721
 H      1   2   3     1.096899037167   107.88581676   189.92027390
 H      2   1   3     1.102791078922   107.91793747   242.72838543
 H      3   2   1     1.096288050107   107.18726480   302.08404618
 H      3   2   1     1.098961484923   109.20296705   184.08814067
 H      4   3   2     0.966513033669   109.18757800   185.44963199
 H      5   2   1     0.967766204458   109.43853174   191.52675616
 H      6   1   2     0.967106466818   108.93745018   182.23232438

---------------------------
INTERNAL COORDINATES (A.U.)
---------------------------
 C      0   0   0     0.000000000000     0.00000000     0.00000000
 C      1   0   0     2.892804142736     0.00000000     0.00000000
 C      2   1   0     2.898742155955   110.56896580     0.00000000
 O      3   2   1     2.666203568998   109.66472698    62.99318049
 O      2   1   3     2.659954924636   107.19214897   123.84144853
 O      1   2   3     2.663273772363   108.50988569    69.11288205
 H      1   2   3     2.070938433333   108.25659578   307.73277721
 H      1   2   3     2.072838776807   107.88581676   189.92027390
 H      2   1   3     2.083973122095   107.91793747   242.72838543
 H      3   2   1     2.071684178592   107.18726480   302.08404618
 H      3   2   1     2.076736238232   109.20296705   184.08814067
 H      4   3   2     1.826444938499   109.18757800   185.44963199
 H      5   2   1     1.828813088090   109.43853174   191.52675616
 H      6   1   2     1.827566364631   108.93745018   182.23232438

---------------------
BASIS SET INFORMATION
---------------------
There are 3 groups of distinct atoms

 Group   1 Type C   : 11s6p1d contracted to 5s3p1d pattern {62111/411/1}
 Group   2 Type O   : 11s6p2d contracted to 5s3p2d pattern {62111/411/11}
 Group   3 Type H   : 4s1p contracted to 2s1p pattern {31/1}

Atom   0C    basis set group =>   1
Atom   1C    basis set group =>   1
Atom   2C    basis set group =>   1
Atom   3O    basis set group =>   2
Atom   4O    basis set group =>   2
Atom   5O    basis set group =>   2
Atom   6H    basis set group =>   3
Atom   7H    basis set group =>   3
Atom   8H    basis set group =>   3
Atom   9H    basis set group =>   3
Atom  10H    basis set group =>   3
Atom  11H    basis set group =>   3
Atom  12H    basis set group =>   3
Atom  13H    basis set group =>   3
---------------------------------
AUXILIARY/J BASIS SET INFORMATION
---------------------------------
There are 3 groups of distinct atoms

 Group   1 Type C   : 12s5p4d2f1g contracted to 6s4p3d1f1g pattern {711111/2111/211/2/1}
 Group   2 Type O   : 12s5p4d2f1g contracted to 6s4p3d1f1g pattern {711111/2111/211/2/1}
 Group   3 Type H   : 5s2p1d contracted to 3s1p1d pattern {311/2/1}

Atom   0C    basis set group =>   1
Atom   1C    basis set group =>   1
Atom   2C    basis set group =>   1
Atom   3O    basis set group =>   2
Atom   4O    basis set group =>   2
Atom   5O    basis set group =>   2
Atom   6H    basis set group =>   3
Atom   7H    basis set group =>   3
Atom   8H    basis set group =>   3
Atom   9H    basis set group =>   3
Atom  10H    basis set group =>   3
Atom  11H    basis set group =>   3
Atom  12H    basis set group =>   3
Atom  13H    basis set group =>   3

Checking for AutoStart:
The File: sp_solv.gbw exists
Trying to determine its content:
     ... Fine, the file contains calculation information
     ... Fine, the calculation information was read
     ... Fine, the file contains a basis set
     ... Fine, the basis set was read
     ... Fine, the file contains a geometry
     ... Fine, the geometry was read
     ... Fine, the file contains a set of orbitals
     ... Fine, the orbitals can be read
     => possible old guess file was deleted
     => GBW file was renamed to GES file
     => GES file is set as startup file
     => Guess is set to MORead
     ... now leaving AutoStart

------------------------------------------------------------------------------
                             ORCA STARTUP CALCULATIONS
                           -- RI-GTO INTEGRALS CHOSEN --
------------------------------------------------------------------------------
------------------------------------------------------------------------------
                   ___                                                        
                  /   \      - P O W E R E D   B Y -                         
                 /     \                                                     
                 |  |  |   _    _      __       _____    __    __             
                 |  |  |  | |  | |    /  \     |  _  \  |  |  /  |          
                  \  \/   | |  | |   /    \    | | | |  |  | /  /          
                 / \  \   | |__| |  /  /\  \   | |_| |  |  |/  /          
                |  |  |   |  __  | /  /__\  \  |    /   |      \           
                |  |  |   | |  | | |   __   |  |    \   |  |\   \          
                \     /   | |  | | |  |  |  |  | |\  \  |  | \   \       
                 \___/    |_|  |_| |__|  |__|  |_| \__\ |__|  \__/        
                                                                              
                      - O R C A' S   B I G   F R I E N D -                    
                                      &                                       
                       - I N T E G R A L  F E E D E R -                       
                                                                              
 v1 FN, 2020, v2 2021, v3 2022-2024                                           
------------------------------------------------------------------------------


----------------------
SHARK INTEGRAL PACKAGE
----------------------

Number of atoms                             ...     14
Number of basis functions                   ...    169
Number of shells                            ...     81
Maximum angular momentum                    ...      2
Integral batch strategy                     ... SHARK/LIBINT Hybrid
RI-J (if used) integral strategy            ... SPLIT-RIJ (Revised 2003 algorithm where possible)
Printlevel                                  ...      1
Contraction scheme used                     ... SEGMENTED contraction
Prescreening option                         ... SCHWARTZ
   Thresh                                   ... 1.000e-10
   Tcut                                     ... 1.000e-11
   Tpresel                                  ... 1.000e-11 
Coulomb Range Separation                    ... NOT USED
Exchange Range Separation                   ... NOT USED
Multipole approximations                    ... NOT USED
Finite Nucleus Model                        ... NOT USED
CABS basis                                  ... NOT available
Auxiliary Coulomb fitting basis             ... AVAILABLE
   # of basis functions in Aux-J            ...    382
   # of shells in Aux-J                     ...    130
   Maximum angular momentum in Aux-J        ...      4
Auxiliary J/K fitting basis                 ... NOT available
Auxiliary Correlation fitting basis         ... NOT available
Auxiliary 'external' fitting basis          ... NOT available

Checking pre-screening integrals            ... done (  0.0 sec) Dimension = 81
Check shell pair data                       ... done (  0.0 sec)
Shell pair information
Shell pair cut-off parameter TPreSel        ...   1.0e-11
Total number of shell pairs                 ...      3321
Shell pairs after pre-screening             ...      3112
Total number of primitive shell pairs       ...     11632
Primitive shell pairs kept                  ...      8113
          la=0 lb=0:    985 shell pairs
          la=1 lb=0:   1120 shell pairs
          la=1 lb=1:    336 shell pairs
          la=2 lb=0:    400 shell pairs
          la=2 lb=1:    226 shell pairs
          la=2 lb=2:     45 shell pairs

Calculating one electron integrals          ... done (  0.0 sec)
Calculating RI/J V-Matrix + Cholesky decomp.... done (  0.1 sec)
Calculating Nuclear repulsion               ... done (  0.0 sec) ENN=    264.306569629190 Eh

Diagonalization of the overlap matrix:
Smallest eigenvalue                        ... 1.770e-04
Time for diagonalization                   ...    0.003 sec
Threshold for overlap eigenvalues          ... 1.000e-07
Number of eigenvalues below threshold      ... 0
Time for construction of square roots      ...    0.013 sec
Total time needed                          ...    0.026 sec

-------------------
DFT GRID GENERATION
-------------------

General Integration Accuracy     IntAcc      ... 4.388
Radial Grid Type                 RadialGrid  ... OptM3 with GC (2021)
Angular Grid (max. ang.)         AngularGrid ... 4 (Lebedev-302)
Angular grid pruning method      GridPruning ... 4 (adaptive)
Weight generation scheme         WeightScheme... mBecke (2022)
Basis function cutoff            BFCut       ... 1.0000e-10
Integration weight cutoff        WCut        ... 1.0000e-14
Partially contracted basis set               ... off
Rotationally invariant grid construction     ... off
Angular grids for H and He will be reduced by one unit
Diffuse basis detected: some atoms will have their outermost
                        angular grid increased by 1.

Total number of grid points                  ...    63063
Total number of batches                      ...      993
Average number of points per batch           ...       63
Average number of grid points per atom       ...     4504
Initializing property integral containers    ... done (  0.0 sec)

SHARK setup successfully completed in   0.9 seconds

Maximum memory used throughout the entire STARTUP-calculation: 27.8 MB
-------------------------------------------------------------------------------
                                 ORCA GUESS
                   Start orbitals & Density for SCF / CASSCF
-------------------------------------------------------------------------------

------------
SCF SETTINGS
------------
Hamiltonian:
 Density Functional     Method          .... DFT(GTOs)
  Functional kind                       .... Exchange
  Functional name                       .... Re-regularized SCAN exchange by Furness et al
  Functional family                     .... MGGA
  Functional refs                              
    [ 0] J. W. Furness, A. D. Kaplan, J. Ning, J. P. Perdew, and J. Sun.,  J. Phys. Chem. Lett. 11, 8208-8215 (2020), doi: 10.1021/acs.jpclett.0c02405
    [ 1] J. W. Furness, A. D. Kaplan, J. Ning, J. P. Perdew, and J. Sun.,  J. Phys. Chem. Lett. 11, 9248-9248 (2020), doi: 10.1021/acs.jpclett.0c03077
  Functional external parameters        .... 6
    Parameter  0 _c1        =  6.670000e-01 : c1 parameter        
    Parameter  1 _c2        =  8.000000e-01 : c2 parameter        
    Parameter  2 _d         =  1.240000e+00 : d parameter         
    Parameter  3 _k1        =  6.500000e-02 : k1 parameter        
    Parameter  4 _eta       =  1.000000e-03 : eta parameter       
    Parameter  5 _dp2       =  3.610000e-01 : dp2 parameter       
  Functional kind                       .... Correlation
  Functional name                       .... Re-regularized SCAN correlation by Furness et al
  Functional family                     .... MGGA
  Functional refs                              
    [ 0] J. W. Furness, A. D. Kaplan, J. Ning, J. P. Perdew, and J. Sun.,  J. Phys. Chem. Lett. 11, 8208-8215 (2020), doi: 10.1021/acs.jpclett.0c02405
    [ 1] J. W. Furness, A. D. Kaplan, J. Ning, J. P. Perdew, and J. Sun.,  J. Phys. Chem. Lett. 11, 9248-9248 (2020), doi: 10.1021/acs.jpclett.0c03077
  Functional external parameters        .... 1
    Parameter  0 _eta       =  1.000000e-03 : Regularization parameter
 Gradients option       PostSCFGGA      .... off
 RI-approximation to the Coulomb term is turned on
   Number of AuxJ basis functions       .... 382


General Settings:
 Integral files         IntName         .... sp_solv
 Hartree-Fock type      HFTyp           .... RHF
 Total Charge           Charge          ....    0
 Multiplicity           Mult            ....    1
 Number of Electrons    NEL             ....   50
 Basis Dimension        Dim             ....  169
 Nuclear Repulsion      ENuc            ....    264.3065696292 Eh

Convergence Acceleration:
 AO-DIIS                CNVDIIS         .... on
   Start iteration      DIISMaxIt       ....    12
   Startup error        DIISStart       ....  0.200000
   # of expansion vecs  DIISMaxEq       ....     5
   Bias factor          DIISBfac        ....   1.050
   Max. coefficient     DIISMaxC        ....  10.000
 MO-DIIS                CNVKDIIS        .... off
 Trust-Rad. Augm. Hess. CNVTRAH         .... auto
   Auto Start mean grad. ratio tolernc. ....  1.125000
   Auto Start start iteration           ....     1
   Auto Start num. interpolation iter.  ....    10
   Max. Number of Micro iterations      ....    24
   Max. Number of Macro iterations      .... Maxiter - #DIIS iter
   Number of Davidson start vectors     ....     2
   Converg. threshold    (grad. norm)   ....   3.330e-04
   Grad. Scal. Fac. for Micro threshold ....   0.100
   Minimum threshold for Micro iter.    ....   1.000e-02
   NR start threshold (gradient norm)   ....   1.000e-04
   Initial trust radius                 ....   0.400
   Minimum AH scaling param. (alpha)    ....   1.000
   Maximum AH scaling param. (alpha)    .... 1000.000
   Quad. conv. algorithm                .... NR
   White noise on init. David. guess    .... on
   Maximum white noise                  ....   0.010
   Pseudo random numbers                .... off
   Inactive MOs                         .... canonical
   Orbital update algorithm             .... Taylor
   Preconditioner                       .... Diag
   Full preconditioner red. dimension   ....   250
   COSX micro iterations for RIJONX calc.... off
 SOSCF                  CNVSOSCF        .... on
   Start iteration      SOSCFMaxIt      ....   150
   Startup grad/error   SOSCFStart      ....  0.003300
   Hessian update       SOSCFHessUp     .... L-BFGS
 Level Shifting         CNVShift        .... on
   Level shift para.    LevelShift      ....    0.2500
   Turn off err/grad.   ShiftErr        ....    0.0010
 Zerner damping         CNVZerner       .... off
 Static damping         CNVDamp         .... on
   Fraction old density DampFac         ....    0.7000
   Max. Damping (<1)    DampMax         ....    0.9800
   Min. Damping (>=0)   DampMin         ....    0.0000
   Turn off err/grad.   DampErr         ....    0.1000

SCF Procedure:
 Maximum # iterations   MaxIter         ....   125
 SCF integral mode      SCFMode         .... Direct
   Integral package                     .... SHARK and LIBINT hybrid scheme
 Reset frequency        DirectResetFreq ....    20
 Integral Threshold     Thresh          ....  1.000e-10 Eh
 Primitive CutOff       TCut            ....  1.000e-11 Eh

Convergence Tolerance:
 Convergence Check Mode ConvCheckMode   .... Total+1el-Energy
 Convergence forced     ConvForced      .... 0
 Energy Change          TolE            ....  1.000e-06 Eh
 1-El. energy change                    ....  1.000e-03 Eh
 Orbital Gradient       TolG            ....  3.330e-04
 Orbital Rotation angle TolX            ....  3.330e-04
 DIIS Error             TolErr          ....  1.000e-06

---------------------
INITIAL GUESS: MOREAD
---------------------
Guess MOs are being read from file: sp_solv.ges
Input Geometry matches current geometry (good)
Atom 0: N(Shells)= 9 and 6 - projection required
Input basis set needs projection
NBasis(read)= 100
NBasis(calc)= 169
Basis set overlap was calculated
Using GuessMode=FMatrix for the initial guess
C*T matrix was formed
Effective Fockian was calculated
Effective Fockian was diagonalized
Initial density was built
                      ------------------
                      INITIAL GUESS DONE (   0.0 sec)
                      ------------------
             **** ENERGY FILE WAS UPDATED (sp_solv.en.tmp) ****
Finished Guess after   0.3 sec
Maximum memory used throughout the entire GUESS-calculation: 11.5 MB

-------------------------------------------------------------------------------------------
                                      ORCA LEAN-SCF
                              memory conserving SCF solver
-------------------------------------------------------------------------------------------

--------------------
CPCM SOLVATION MODEL
--------------------
CPCM parameters:
  Epsilon                                         ...      78.3550
  Refrac                                          ...       1.3328
  Rsolv                                           ...       1.3000
  Surface type                                    ... GAUSSIAN VDW
  Discretization scheme                           ... Constant charge density
    Threshold for H atoms                         ...       5.0000 (charges/Ang^2)
    Threshold for non-H atoms                     ...       5.0000 (charges/Ang^2)
  Epsilon function type                           ...         CPCM
Solvent:                                          ... WATER
SMD-CDS solvent descriptors:
  Soln                                            ...       1.3328
  Soln25                                          ...       1.3323
  Sola                                            ...       0.0000
  Solb                                            ...       0.0000
  Solg                                            ...       0.0000
  Solc                                            ...       0.0000
  Solh                                            ...       0.0000
Radii:
  Scheme                                          ... Element-dependent radii
  Radius for C  used is    3.4960 Bohr (=   1.8500 Ang.)
  Radius for O  used is    2.8724 Bohr (=   1.5200 Ang.)
  Radius for H  used is    2.2677 Bohr (=   1.2000 Ang.)
Calculating surface                               ...        done! (  0.0s)
Cavity surface points                             ...         1021
Cavity Volume                                     ...     607.1270
Cavity Surface-area                               ...     429.2864
Calculating surface distance matrix               ...        done! (  0.0s)
Performing Cholesky decomposition & store         ...        done! (  0.1s)
Overall time for CPCM initialization              ...                 0.1s

----------------------------------------D-I-I-S--------------------------------------------
Iteration    Energy (Eh)           Delta-E    RMSDP     MaxDP     DIISErr   Damp  Time(sec)
-------------------------------------------------------------------------------------------
               ***  Starting incremental Fock matrix formation  ***
    1    -344.5366554075512227     0.00e+00  3.94e-03  1.25e-01  6.28e-01  0.700   2.2
    2    -344.6005401990665291    -6.39e-02  3.29e-03  6.91e-02  4.42e-01  0.700   2.1
    3    -344.6461051310828339    -4.56e-02  2.46e-03  3.96e-02  3.10e-01  0.700   2.0
    4    -344.6782403178106620    -3.21e-02  1.78e-03  2.83e-02  2.17e-01  0.700   2.0
                               ***Turning on AO-DIIS***
    5    -344.7008530514057725    -2.26e-02  1.31e-03  2.13e-02  1.52e-01  0.700   2.0
    6    -344.7167400222797937    -1.59e-02  9.31e-04  1.51e-02  1.06e-01  0.700   2.0
    7    -344.7279028886977699    -1.12e-02  6.56e-04  1.05e-02  7.43e-02  0.700   2.0
    8    -344.7357359028325732    -7.83e-03  1.54e-03  2.46e-02  5.21e-02  0.000   1.9
                              *** Initializing SOSCF ***
---------------------------------------S-O-S-C-F--------------------------------------
Iteration    Energy (Eh)           Delta-E    RMSDP     MaxDP     MaxGrad    Time(sec)
--------------------------------------------------------------------------------------
    9    -344.7540811681912487    -1.83e-02  1.82e-05  4.90e-04  1.64e-04     2.0
               *** Restarting incremental Fock matrix formation ***
   10    -344.7540814788337116    -3.11e-07  9.99e-06  1.46e-04  3.28e-05     2.2
                  *** Gradient check signals convergence ***

               *****************************************************
               *                     SUCCESS                       *
               *           SCF CONVERGED AFTER  10 CYCLES          *
               *****************************************************


SMD CDS free energy correction energy :                 3.20274     Kcal/mol
Total Energy after SMD CDS correction =              -344.748977590 Eh
             **** ENERGY FILE WAS UPDATED (sp_solv.en.tmp) ****

----------------
TOTAL SCF ENERGY
----------------

Total Energy       :       -344.74897759041733 Eh           -9381.09661 eV

Components:
Nuclear Repulsion  :        264.30656962918982 Eh            7192.14740 eV
Electronic Energy  :       -609.02680110017536 Eh          -16572.46179 eV
One Electron Energy:       -995.94775516266554 Eh          -27101.11621 eV
Two Electron Energy:        386.92095406249024 Eh           10528.65443 eV
CPCM Dielectric    :         -0.03385000784832 Eh              -0.92111 eV
SMD CDS (Gcds)     :          0.00510388841638 Eh               0.13888 eV

Virial components:
Potential Energy   :       -688.08349891981925 Eh          -18723.70390 eV
Kinetic Energy     :        343.33452132940192 Eh            9342.60729 eV
Virial Ratio       :          2.00411976126239

DFT components:
N(Alpha)           :       24.999980315792 electrons
N(Beta)            :       24.999980315792 electrons
N(Total)           :       49.999960631584 electrons
E(X)               :      -43.326274045643 Eh       
E(C)               :       -1.628451816301 Eh       
E(XC)              :      -44.954725861944 Eh       

CPCM Solvation Model Properties:
Surface-charge          :         -0.03960045539610
Corrected charge        :          0.00000000000000
Outlying charge corr.   :          0.00013880693378 Eh               0.00378 eV
Free-energy (cav+disp)  :          0.00510388841638 Eh               0.13888 eV

---------------
SCF CONVERGENCE
---------------

  Last Energy change         ...    3.1064e-07  Tolerance :   1.0000e-06
  Last MAX-Density change    ...    1.4586e-04  Tolerance :   1.0000e-05
  Last RMS-Density change    ...    9.9939e-06  Tolerance :   1.0000e-06
  Last DIIS Error            ...    1.6401e-04  Tolerance :   1.0000e-06
  Last Orbital Gradient      ...    3.2826e-05  Tolerance :   3.3300e-04
  Last Orbital Rotation      ...    6.8805e-05  Tolerance :   3.3300e-04


----------------
ORBITAL ENERGIES
----------------

  NO   OCC          E(Eh)            E(eV) 
   0   2.0000     -18.957124      -515.8496 
   1   2.0000     -18.955920      -515.8168 
   2   2.0000     -18.953452      -515.7497 
   3   2.0000     -10.082396      -274.3559 
   4   2.0000     -10.071897      -274.0702 
   5   2.0000     -10.071422      -274.0573 
   6   2.0000      -1.004719       -27.3398 
   7   2.0000      -0.989165       -26.9166 
   8   2.0000      -0.982394       -26.7323 
   9   2.0000      -0.724564       -19.7164 
  10   2.0000      -0.641706       -17.4617 
  11   2.0000      -0.553236       -15.0543 
  12   2.0000      -0.510452       -13.8901 
  13   2.0000      -0.477146       -12.9838 
  14   2.0000      -0.448422       -12.2022 
  15   2.0000      -0.437865       -11.9149 
  16   2.0000      -0.419335       -11.4107 
  17   2.0000      -0.376862       -10.2549 
  18   2.0000      -0.360667        -9.8142 
  19   2.0000      -0.344177        -9.3655 
  20   2.0000      -0.325619        -8.8605 
  21   2.0000      -0.279733        -7.6119 
  22   2.0000      -0.251162        -6.8345 
  23   2.0000      -0.245639        -6.6842 
  24   2.0000      -0.238788        -6.4978 
  25   0.0000       0.058307         1.5866 
  26   0.0000       0.068271         1.8577 
  27   0.0000       0.105093         2.8597 
  28   0.0000       0.125810         3.4235 
  29   0.0000       0.145851         3.9688 
  30   0.0000       0.147644         4.0176 
  31   0.0000       0.152135         4.1398 
  32   0.0000       0.169230         4.6050 
  33   0.0000       0.181437         4.9371 
  34   0.0000       0.200978         5.4689 
  35   0.0000       0.207211         5.6385 
*Only the first 10 virtual orbitals were printed.

                    ********************************
                    * MULLIKEN POPULATION ANALYSIS *
                    ********************************

-----------------------
MULLIKEN ATOMIC CHARGES
-----------------------
   0 C :   -0.186713
   1 C :    0.073371
   2 C :   -0.168444
   3 O :   -0.508201
   4 O :   -0.510268
   5 O :   -0.509643
   6 H :    0.154384
   7 H :    0.146347
   8 H :    0.150050
   9 H :    0.151675
  10 H :    0.154039
  11 H :    0.349279
  12 H :    0.352274
  13 H :    0.351850
Sum of atomic charges:   -0.0000000

--------------------------------
MULLIKEN REDUCED ORBITAL CHARGES
--------------------------------
  0 C s       :     3.301876  s :     3.301876
      pz      :     0.984884  p :     2.826941
      px      :     0.926129
      py      :     0.915928
      dz2     :     0.009479  d :     0.057896
      dxz     :     0.013676
      dyz     :     0.008539
      dx2y2   :     0.012731
      dxy     :     0.013470

  1 C s       :     3.121177  s :     3.121177
      pz      :     1.030473  p :     2.738268
      px      :     0.920128
      py      :     0.787666
      dz2     :     0.011812  d :     0.067184
      dxz     :     0.013436
      dyz     :     0.010178
      dx2y2   :     0.015037
      dxy     :     0.016720

  2 C s       :     3.283323  s :     3.283323
      pz      :     0.802448  p :     2.827397
      px      :     0.991957
      py      :     1.032992
      dz2     :     0.014517  d :     0.057724
      dxz     :     0.017560
      dyz     :     0.009634
      dx2y2   :     0.004817
      dxy     :     0.011196

  3 O s       :     3.761808  s :     3.761808
      pz      :     1.492411  p :     4.728075
      px      :     1.647767
      py      :     1.587896
      dz2     :     0.004758  d :     0.018318
      dxz     :     0.002168
      dyz     :     0.002775
      dx2y2   :     0.003910
      dxy     :     0.004706

  4 O s       :     3.767386  s :     3.767386
      pz      :     1.742855  p :     4.721762
      px      :     1.469904
      py      :     1.509003
      dz2     :     0.002653  d :     0.021121
      dxz     :     0.009474
      dyz     :     0.003140
      dx2y2   :     0.003914
      dxy     :     0.001940

  5 O s       :     3.764103  s :     3.764103
      pz      :     1.640118  p :     4.722170
      px      :     1.484409
      py      :     1.597643
      dz2     :     0.004565  d :     0.023369
      dxz     :     0.007379
      dyz     :     0.005457
      dx2y2   :     0.003957
      dxy     :     0.002011

  6 H s       :     0.828142  s :     0.828142
      pz      :     0.009385  p :     0.017474
      px      :     0.004935
      py      :     0.003154

  7 H s       :     0.836326  s :     0.836326
      pz      :     0.003620  p :     0.017326
      px      :     0.004717
      py      :     0.008989

  8 H s       :     0.833186  s :     0.833186
      pz      :     0.009930  p :     0.016764
      px      :     0.004529
      py      :     0.002305

  9 H s       :     0.830889  s :     0.830889
      pz      :     0.003161  p :     0.017436
      px      :     0.005804
      py      :     0.008470

 10 H s       :     0.828732  s :     0.828732
      pz      :     0.007056  p :     0.017229
      px      :     0.006476
      py      :     0.003697

 11 H s       :     0.607451  s :     0.607451
      pz      :     0.008330  p :     0.043270
      px      :     0.015314
      py      :     0.019625

 12 H s       :     0.604754  s :     0.604754
      pz      :     0.014254  p :     0.042972
      px      :     0.019794
      py      :     0.008924

 13 H s       :     0.605000  s :     0.605000
      pz      :     0.015655  p :     0.043151
      px      :     0.016817
      py      :     0.010679


------------------------
MULLIKEN OVERLAP CHARGES
------------------------
B(  0-C ,  1-C ) :   0.3737 B(  0-C ,  2-C ) :  -0.1458 B(  0-C ,  3-O ) :   0.0536 
B(  0-C ,  4-O ) :  -0.0925 B(  0-C ,  5-O ) :   0.4119 B(  0-C ,  6-H ) :   0.8662 
B(  0-C ,  7-H ) :   0.8316 B(  0-C , 13-H ) :  -0.0701 B(  1-C ,  2-C ) :   0.5316 
B(  1-C ,  3-O ) :  -0.1871 B(  1-C ,  4-O ) :   0.4035 B(  1-C ,  5-O ) :  -0.1113 
B(  1-C ,  6-H ) :  -0.0510 B(  1-C ,  7-H ) :  -0.1033 B(  1-C ,  8-H ) :   0.7951 
B(  1-C , 10-H ) :  -0.1023 B(  1-C , 12-H ) :  -0.0762 B(  2-C ,  3-O ) :   0.4402 
B(  2-C ,  4-O ) :  -0.0952 B(  2-C ,  8-H ) :  -0.0833 B(  2-C ,  9-H ) :   0.8270 
B(  2-C , 10-H ) :   0.8607 B(  2-C , 11-H ) :  -0.0823 B(  3-O ,  9-H ) :  -0.1001 
B(  3-O , 10-H ) :  -0.1032 B(  3-O , 11-H ) :   0.6361 B(  4-O ,  8-H ) :  -0.1037 
B(  4-O , 12-H ) :   0.6336 B(  5-O ,  6-H ) :  -0.0972 B(  5-O ,  7-H ) :  -0.0884 
B(  5-O , 13-H ) :   0.6317 B(  6-H ,  7-H ) :  -0.0816 B(  9-H , 10-H ) :  -0.0716 



                     *******************************
                     * LOEWDIN POPULATION ANALYSIS *
                     *******************************

----------------------
LOEWDIN ATOMIC CHARGES
----------------------
   0 C :    0.042199
   1 C :    0.086929
   2 C :    0.025308
   3 O :   -0.647693
   4 O :   -0.613705
   5 O :   -0.645775
   6 H :    0.175620
   7 H :    0.172522
   8 H :    0.182326
   9 H :    0.180243
  10 H :    0.170967
  11 H :    0.288979
  12 H :    0.292560
  13 H :    0.289519

-------------------------------
LOEWDIN REDUCED ORBITAL CHARGES
-------------------------------
  0 C s       :     2.867890  s :     2.867890
      pz      :     1.039161  p :     2.960917
      px      :     0.960515
      py      :     0.961242
      dz2     :     0.020483  d :     0.128993
      dxz     :     0.032104
      dyz     :     0.018987
      dx2y2   :     0.026574
      dxy     :     0.030845

  1 C s       :     2.837961  s :     2.837961
      pz      :     1.047307  p :     2.932044
      px      :     0.979298
      py      :     0.905439
      dz2     :     0.025987  d :     0.143066
      dxz     :     0.030370
      dyz     :     0.020541
      dx2y2   :     0.030366
      dxy     :     0.035802

  2 C s       :     2.871679  s :     2.871679
      pz      :     0.900841  p :     2.973765
      px      :     1.026312
      py      :     1.046612
      dz2     :     0.033483  d :     0.129249
      dxz     :     0.040594
      dyz     :     0.019762
      dx2y2   :     0.008793
      dxy     :     0.026616

  3 O s       :     3.509034  s :     3.509034
      pz      :     1.583265  p :     4.856657
      px      :     1.666018
      py      :     1.607374
      dz2     :     0.084852  d :     0.282002
      dxz     :     0.072370
      dyz     :     0.052547
      dx2y2   :     0.024606
      dxy     :     0.047628

  4 O s       :     3.500715  s :     3.500715
      pz      :     1.749027  p :     4.831058
      px      :     1.513478
      py      :     1.568553
      dz2     :     0.035619  d :     0.281933
      dxz     :     0.050761
      dyz     :     0.056705
      dx2y2   :     0.071094
      dxy     :     0.067754

  5 O s       :     3.509719  s :     3.509719
      pz      :     1.666752  p :     4.855447
      px      :     1.533054
      py      :     1.655641
      dz2     :     0.038308  d :     0.280609
      dxz     :     0.065073
      dyz     :     0.049673
      dx2y2   :     0.066949
      dxy     :     0.060606

  6 H s       :     0.782553  s :     0.782553
      pz      :     0.022115  p :     0.041826
      px      :     0.011618
      py      :     0.008093

  7 H s       :     0.786817  s :     0.786817
      pz      :     0.008088  p :     0.040661
      px      :     0.011436
      py      :     0.021136

  8 H s       :     0.777334  s :     0.777334
      pz      :     0.023374  p :     0.040339
      px      :     0.010879
      py      :     0.006086

  9 H s       :     0.777804  s :     0.777804
      pz      :     0.007138  p :     0.041952
      px      :     0.013855
      py      :     0.020959

 10 H s       :     0.788233  s :     0.788233
      pz      :     0.015852  p :     0.040800
      px      :     0.016289
      py      :     0.008660

 11 H s       :     0.587707  s :     0.587707
      pz      :     0.022715  p :     0.123314
      px      :     0.042603
      py      :     0.057996

 12 H s       :     0.584351  s :     0.584351
      pz      :     0.040908  p :     0.123089
      px      :     0.058125
      py      :     0.024056

 13 H s       :     0.587457  s :     0.587457
      pz      :     0.046651  p :     0.123024
      px      :     0.047943
      py      :     0.028431


---------------------------------
LOEWDIN BOND ORDERS (THRESH 0.050000)
---------------------------------
B(  0-C ,  1-C ) :   0.9264 B(  0-C ,  2-C ) :   0.0633 B(  0-C ,  4-O ) :   0.1785 
B(  0-C ,  5-O ) :   1.4325 B(  0-C ,  6-H ) :   0.8170 B(  0-C ,  7-H ) :   0.8186 
B(  1-C ,  2-C ) :   0.9579 B(  1-C ,  3-O ) :   0.1535 B(  1-C ,  4-O ) :   1.4101 
B(  1-C ,  5-O ) :   0.1699 B(  1-C ,  8-H ) :   0.7834 B(  2-C ,  3-O ) :   1.4228 
B(  2-C ,  4-O ) :   0.1447 B(  2-C ,  9-H ) :   0.8144 B(  2-C , 10-H ) :   0.8248 
B(  3-O ,  4-O ) :   0.0589 B(  3-O ,  9-H ) :   0.1019 B(  3-O , 10-H ) :   0.1044 
B(  3-O , 11-H ) :   0.9565 B(  4-O ,  8-H ) :   0.1004 B(  4-O , 12-H ) :   0.9487 
B(  5-O ,  6-H ) :   0.1011 B(  5-O ,  7-H ) :   0.1044 B(  5-O , 13-H ) :   0.9558 


------------------------------------------
LOEWDIN REDUCED ORBITAL POPULATIONS PER MO
-------------------------------------------
THRESHOLD FOR PRINTING IS 0.1%%
                      0         1         2         3         4         5   
                 -18.95712 -18.95592 -18.95345 -10.08240 -10.07190 -10.07142
                   2.00000   2.00000   2.00000   2.00000   2.00000   2.00000
                  --------  --------  --------  --------  --------  --------
 0 C  s               0.0       0.0       0.0       0.0       0.0      99.4
 1 C  s               0.0       0.0       0.0      99.3       0.0       0.0
 2 C  s               0.0       0.0       0.0       0.0      99.4       0.0
 3 O  s               0.0       0.0      99.9       0.0       0.0       0.0
 3 O  dz2             0.0       0.0       0.0       0.0       0.1       0.0
 3 O  dxz             0.0       0.0       0.0       0.0       0.1       0.0
 4 O  s              99.9       0.0       0.0       0.0       0.0       0.0
 4 O  dxy             0.0       0.0       0.0       0.1       0.0       0.0
 5 O  s               0.0      99.9       0.0       0.0       0.0       0.0
 5 O  dxy             0.0       0.0       0.0       0.0       0.0       0.2

                      6         7         8         9        10        11   
                  -1.00472  -0.98917  -0.98239  -0.72456  -0.64171  -0.55324
                   2.00000   2.00000   2.00000   2.00000   2.00000   2.00000
                  --------  --------  --------  --------  --------  --------
 0 C  s               3.8       6.3       0.0      10.0      13.5       6.1
 0 C  pz              0.8       0.7       0.0       0.9       0.4       3.5
 0 C  px              0.3       3.8       0.3       3.7       0.1       0.9
 0 C  py              0.3       4.2       0.6       0.6       1.5       0.6
 0 C  dxz             0.0       0.1       0.0       0.1       0.0       0.1
 0 C  dyz             0.0       0.1       0.0       0.0       0.0       0.0
 0 C  dxy             0.1       0.4       0.0       0.0       0.0       0.0
 1 C  s               8.9       0.1       1.6      18.0       0.0       9.1
 1 C  pz              0.9       0.0       0.1       0.1       3.8       2.1
 1 C  px              1.1       2.3       0.3       0.8       8.4       0.2
 1 C  py              1.6       0.5       5.4       4.5       2.6       3.4
 1 C  dxy             0.2       0.0       0.2       0.1       0.2       0.0
 2 C  s               4.8       1.2       3.8       9.4      16.8       2.7
 2 C  pz              1.9       0.9       3.9       0.3       1.9       0.0
 2 C  px              0.1       0.6       1.7       3.3       0.1       0.5
 2 C  py              0.5       0.0       1.1       1.5       0.1       1.8
 2 C  dz2             0.0       0.0       0.2       0.1       0.0       0.0
 2 C  dxz             0.1       0.1       0.3       0.0       0.0       0.0
 3 O  s              15.1       8.5      37.9       2.1       2.2       0.5
 3 O  pz              0.7       0.3       1.0       1.4       5.2       2.9
 3 O  px              0.0       0.0       0.0       1.7       2.7       2.4
 3 O  py              0.1       0.1       0.4       0.9       1.8       1.0
 3 O  dz2             0.0       0.0       0.1       0.2       1.1       0.3
 3 O  dxz             0.1       0.0       0.0       0.5       0.7       0.0
 3 O  dx2y2           0.0       0.0       0.0       0.1       0.0       0.1
 3 O  dxy             0.1       0.0       0.0       0.1       0.0       0.1
 4 O  s              32.7       3.3      24.2       4.6       0.0       0.8
 4 O  pz              0.6       0.1       0.4       0.1       0.4       0.2
 4 O  px              0.0       0.0       0.0       3.1       1.5      13.9
 4 O  py              1.0       0.1       0.3       4.0       0.0       9.3
 4 O  dz2             0.1       0.0       0.0       0.3       0.0       0.0
 4 O  dxz             0.0       0.0       0.0       0.1       0.0       0.7
 4 O  dyz             0.0       0.0       0.0       0.2       0.2       0.5
 4 O  dx2y2           0.1       0.0       0.0       0.5       0.3       0.2
 4 O  dxy             0.1       0.0       0.1       0.7       0.5       0.2
 5 O  s               9.5      50.2       1.6       2.6       1.7       0.9
 5 O  pz              0.3       1.4       0.0       0.1       0.1       0.5
 5 O  px              0.0       0.0       0.0       3.1       3.6       5.8
 5 O  py              0.2       0.5       0.0       1.8       4.0       4.2
 5 O  dz2             0.0       0.0       0.0       0.2       0.1       0.0
 5 O  dxz             0.0       0.0       0.0       0.1       0.4       0.6
 5 O  dyz             0.0       0.0       0.0       0.1       0.3       0.6
 5 O  dx2y2           0.0       0.0       0.0       0.0       0.2       0.0
 5 O  dxy             0.1       0.1       0.0       0.7       0.5       0.0
 6 H  s               0.3       0.4       0.0       1.8       3.3       3.7
 6 H  pz              0.0       0.0       0.0       0.1       0.2       0.2
 7 H  s               0.3       0.4       0.0       1.6       4.2       1.9
 7 H  px              0.0       0.0       0.0       0.1       0.1       0.0
 7 H  py              0.0       0.0       0.0       0.1       0.2       0.1
 8 H  s               0.6       0.0       0.1       3.2       0.0       4.9
 8 H  pz              0.0       0.0       0.0       0.3       0.0       0.3
 9 H  s               0.3       0.1       0.3       1.9       4.2       1.5
 9 H  px              0.0       0.0       0.0       0.0       0.1       0.0
 9 H  py              0.0       0.0       0.0       0.1       0.3       0.0
10 H  s               0.3       0.1       0.3       1.5       5.0       1.0
10 H  pz              0.0       0.0       0.0       0.0       0.2       0.0
10 H  px              0.0       0.0       0.0       0.1       0.2       0.0
11 H  s               2.5       1.4       6.4       1.2       2.0       1.3
11 H  px              0.2       0.1       0.5       0.1       0.1       0.0
11 H  py              0.4       0.2       1.0       0.2       0.2       0.1
12 H  s               5.4       0.5       4.0       2.2       0.3       4.8
12 H  pz              0.3       0.0       0.2       0.2       0.0       0.3
12 H  px              0.9       0.1       0.7       0.3       0.0       0.2
13 H  s               1.6       8.4       0.3       1.6       1.6       1.7
13 H  pz              0.1       0.7       0.0       0.2       0.2       0.2
13 H  px              0.2       1.0       0.0       0.1       0.1       0.0
13 H  py              0.0       0.2       0.0       0.0       0.0       0.0

                     12        13        14        15        16        17   
                  -0.51045  -0.47715  -0.44842  -0.43786  -0.41934  -0.37686
                   2.00000   2.00000   2.00000   2.00000   2.00000   2.00000
                  --------  --------  --------  --------  --------  --------
 0 C  s               0.3       1.4       0.6       0.2       0.2       0.1
 0 C  pz              8.1       5.4       6.6       0.2       2.6       4.0
 0 C  px              0.9       1.1       2.2      11.6       0.4       3.1
 0 C  py              2.0       5.9       0.3       4.0      11.5       6.6
 0 C  dxz             0.0       0.0       0.0       0.0       0.2       0.1
 0 C  dyz             0.1       0.1       0.1       0.0       0.0       0.0
 0 C  dxy             0.0       0.1       0.1       0.0       0.1       0.1
 1 C  s               0.5       0.3       1.6       0.0       0.2       0.0
 1 C  pz             10.6       0.3       2.3       6.4       1.5       7.5
 1 C  px              2.1       0.0       0.7       0.1      12.5       0.6
 1 C  py              1.5       1.5       6.2       2.4       0.4       5.1
 1 C  dxz             0.0       0.0       0.0       0.0       0.0       0.2
 1 C  dyz             0.0       0.1       0.2       0.0       0.1       0.0
 1 C  dx2y2           0.0       0.0       0.1       0.2       0.0       0.3
 2 C  s               0.2       2.4       0.6       0.1       0.0       0.1
 2 C  pz              5.5      14.4       0.2       0.3       4.1       2.1
 2 C  px              1.2       1.2       4.4      12.7       2.8       1.6
 2 C  py              0.3       3.7       6.9       9.2       6.2       5.3
 2 C  dz2             0.2       0.1       0.1       0.1       0.1       0.0
 2 C  dxz             0.0       0.1       0.0       0.0       0.2       0.1
 2 C  dxy             0.0       0.1       0.1       0.0       0.0       0.0
 3 O  s               0.0       1.5       0.6       0.4       0.1       0.0
 3 O  pz              2.0       0.6       8.2       1.9       1.2       0.8
 3 O  px              6.6       7.7       0.4       0.6       8.4       7.6
 3 O  py              8.2      11.8       0.1       9.3       0.1       1.9
 3 O  dz2             0.0       0.4       0.4       0.3       0.0       0.0
 3 O  dxz             0.0       0.0       0.0       0.4       0.1       0.0
 3 O  dyz             0.0       0.1       0.2       0.4       0.3       0.3
 3 O  dx2y2           0.0       0.0       0.0       0.2       0.1       0.0
 3 O  dxy             0.0       0.0       0.2       0.0       0.4       0.2
 4 O  s               0.0       0.1       2.0       1.4       0.2       0.2
 4 O  pz              3.2       0.0       3.7       5.6       0.1      12.7
 4 O  px              4.7       1.7      16.1       0.6       0.4       3.9
 4 O  py              3.7       0.1       0.6       0.4      12.8       0.9
 4 O  dz2             0.1       0.0       0.0       0.0       0.0       0.4
 4 O  dxz             0.1       0.0       0.1       0.0       0.0       0.3
 4 O  dyz             0.3       0.0       0.0       0.3       0.0       0.2
 4 O  dx2y2           0.1       0.2       0.1       0.0       0.5       0.0
 4 O  dxy             0.0       0.0       0.1       0.1       0.4       0.0
 5 O  s               0.2       0.8       1.1       0.2       0.1       1.6
 5 O  pz              3.9       3.9       6.0       0.2       1.2      16.6
 5 O  px              9.3       7.4       5.0       0.8      10.0       2.4
 5 O  py              3.5       0.4       3.9       7.8       0.5       1.8
 5 O  dz2             0.1       0.0       0.1       0.0       0.2       0.3
 5 O  dxz             0.1       0.0       0.0       0.0       0.6       0.0
 5 O  dyz             0.1       0.2       0.0       0.0       0.1       0.1
 5 O  dx2y2           0.0       0.1       0.2       1.0       0.1       0.0
 5 O  dxy             0.0       0.0       0.2       0.0       0.1       0.1
 6 H  s               2.2       1.1       4.9       1.2       1.8       1.0
 6 H  pz              0.1       0.0       0.1       0.1       0.1       0.0
 6 H  px              0.0       0.1       0.0       0.0       0.0       0.1
 7 H  s               0.8       5.2       0.0       4.4       3.5       0.7
 7 H  py              0.0       0.1       0.0       0.2       0.0       0.0
 8 H  s               4.1       0.0       1.6       2.2       3.5       2.4
 8 H  pz              0.2       0.0       0.0       0.0       0.1       0.0
 9 H  s               0.8       3.7       1.1       7.5       1.5       1.3
 9 H  px              0.0       0.2       0.1       0.0       0.0       0.0
 9 H  py              0.0       0.1       0.0       0.2       0.0       0.0
10 H  s               0.2       6.4       0.8       2.5       3.9       3.1
10 H  pz              0.0       0.1       0.0       0.1       0.1       0.0
10 H  px              0.0       0.2       0.0       0.0       0.1       0.0
11 H  s               4.1       4.2       0.2       1.1       1.1       0.2
11 H  pz              0.0       0.0       0.1       0.0       0.0       0.0
11 H  py              0.2       0.1       0.0       0.0       0.1       0.1
12 H  s               2.6       0.2       4.3       0.3       0.8       0.2
12 H  pz              0.0       0.0       0.0       0.0       0.0       0.2
12 H  px              0.1       0.0       0.1       0.0       0.1       0.0
12 H  py              0.0       0.0       0.0       0.0       0.1       0.0
13 H  s               4.0       2.5       3.2       0.0       1.2       0.0
13 H  pz              0.1       0.0       0.0       0.0       0.1       0.2

                     18        19        20        21        22        23   
                  -0.36067  -0.34418  -0.32562  -0.27973  -0.25116  -0.24564
                   2.00000   2.00000   2.00000   2.00000   2.00000   2.00000
                  --------  --------  --------  --------  --------  --------
 0 C  s               0.1       0.2       0.4       0.6       0.1       0.1
 0 C  pz              0.8       0.2       5.5       9.8       0.2       0.5
 0 C  px             11.7       1.1       0.0       2.8       2.8       0.4
 0 C  py              3.0       1.3       1.5       0.2       1.2       0.9
 0 C  dz2             0.2       0.0       0.1       0.0       0.1       0.2
 0 C  dxz             0.0       0.0       0.2       0.2       0.1       0.1
 0 C  dyz             0.1       0.0       0.0       0.1       0.0       0.1
 0 C  dx2y2           0.0       0.0       0.2       0.0       0.5       0.1
 0 C  dxy             0.0       0.0       0.2       0.2       0.0       0.1
 1 C  s               0.1       0.5       1.3       0.1       0.0       0.1
 1 C  pz              1.2       2.9       1.0       7.5       1.6       2.2
 1 C  px              8.8       0.6       0.7       7.1       0.1       2.4
 1 C  py              1.1       0.4       4.3       2.0       0.2       2.1
 1 C  dz2             0.2       0.0       0.0       0.0       0.0       0.6
 1 C  dxz             0.0       0.0       0.0       0.2       0.2       0.5
 1 C  dyz             0.2       0.1       0.0       0.1       0.1       0.0
 1 C  dx2y2           0.0       0.1       0.0       0.1       0.0       0.3
 1 C  dxy             0.0       0.2       0.0       0.3       0.0       0.2
 2 C  s               0.2       0.3       0.3       0.3       0.1       0.7
 2 C  pz              0.2       3.7       1.9       2.4       0.3       0.7
 2 C  px             12.5       0.4       0.1       1.5       1.3       3.6
 2 C  py              0.2       0.6       1.3       6.2       1.9       3.1
 2 C  dz2             0.1       0.1       0.1       0.0       0.1       0.1
 2 C  dxz             0.0       0.0       0.0       0.1       0.5       0.0
 2 C  dyz             0.1       0.0       0.0       0.2       0.1       0.1
 2 C  dx2y2           0.2       0.0       0.0       0.0       0.0       0.0
 2 C  dxy             0.0       0.1       0.3       0.4       0.1       0.0
 3 O  s               0.3       3.4       1.7       0.9       0.0       0.0
 3 O  pz             10.9      16.9      12.1       5.8       2.9       0.8
 3 O  px              1.3       0.0       2.0       0.2      12.7       7.1
 3 O  py              0.5      12.2       3.4       7.1       8.6       0.9
 3 O  dz2             0.2       0.2       0.2       0.3       0.1       0.0
 3 O  dxz             0.8       0.0       0.0       0.0       0.2       0.5
 3 O  dyz             0.0       0.0       0.1       0.2       0.2       0.2
 3 O  dx2y2           0.0       0.1       0.0       0.0       0.0       0.3
 3 O  dxy             0.0       0.2       0.4       0.4       0.1       0.1
 4 O  s               0.1       3.6       0.5       1.3       0.0       0.0
 4 O  pz              1.0      11.3       9.0       8.8       7.4      22.5
 4 O  px              1.1       9.1       0.5       1.5       4.3      13.0
 4 O  py              7.6      15.2       1.2       3.1       5.7      12.5
 4 O  dz2             0.0       0.1       0.2       0.2       0.0       0.3
 4 O  dxz             0.1       0.5       0.0       0.1       0.1       0.3
 4 O  dyz             0.0       0.0       0.1       0.6       0.1       0.1
 4 O  dx2y2           0.1       0.1       0.1       0.5       0.3       0.3
 4 O  dxy             0.2       0.2       0.1       0.4       0.0       0.1
 5 O  s               0.2       0.5       3.3       1.0       0.0       0.0
 5 O  pz              0.0       4.9      25.3       9.5       3.2       0.8
 5 O  px              2.5       0.2       1.0       0.1      11.4       2.3
 5 O  py             13.5       0.7       6.0       0.0      14.9       3.5
 5 O  dz2             0.1       0.1       0.1       0.4       0.0       0.2
 5 O  dxz             0.2       0.0       0.5       0.3       0.2       0.0
 5 O  dyz             0.2       0.0       0.3       0.3       0.0       0.1
 5 O  dx2y2           0.3       0.0       0.2       0.1       0.4       0.0
 5 O  dxy             0.3       0.0       0.3       0.3       0.1       0.0
 6 H  s               4.5       0.0       3.2       2.1       1.4       2.3
 6 H  pz              0.2       0.0       0.0       0.0       0.0       0.0
 6 H  px              0.0       0.0       0.0       0.1       0.1       0.0
 7 H  s               3.6       0.2       2.0       1.4       3.5       2.1
 7 H  pz              0.0       0.0       0.0       0.1       0.0       0.0
 7 H  py              0.1       0.0       0.0       0.0       0.0       0.0
 8 H  s               3.6       1.4       0.0       1.6       1.6       7.9
 8 H  pz              0.1       0.0       0.0       0.0       0.0       0.0
 8 H  px              0.0       0.0       0.0       0.1       0.0       0.0
 9 H  s               2.6       0.2       2.2       2.8       3.4       0.0
 9 H  py              0.1       0.0       0.0       0.0       0.0       0.0
10 H  s               2.0       1.3       0.5       1.7       3.9       1.0
10 H  py              0.0       0.0       0.0       0.1       0.0       0.0
11 H  s               0.1       1.2       1.0       0.9       0.0       0.3
11 H  pz              0.2       0.3       0.2       0.1       0.1       0.0
11 H  px              0.0       0.1       0.0       0.1       0.2       0.1
11 H  py              0.0       0.0       0.0       0.0       0.1       0.1
12 H  s               0.1       2.1       0.0       1.3       0.0       0.0
12 H  pz              0.0       0.0       0.1       0.0       0.1       0.4
12 H  px              0.0       0.0       0.0       0.0       0.1       0.2
12 H  py              0.1       0.4       0.0       0.1       0.1       0.2
13 H  s               0.0       0.1       2.0       1.2       0.0       0.0
13 H  px              0.0       0.0       0.1       0.1       0.2       0.0
13 H  py              0.2       0.0       0.2       0.0       0.3       0.1

                     24        25        26        27        28        29   
                  -0.23879   0.05831   0.06827   0.10509   0.12581   0.14585
                   2.00000   0.00000   0.00000   0.00000   0.00000   0.00000
                  --------  --------  --------  --------  --------  --------
 0 C  s               0.0       0.5       6.7       1.9       2.4       6.3
 0 C  pz              1.9       0.2       1.6       0.2       5.2      24.1
 0 C  px              0.7       8.6       7.2       1.3       0.6       0.9
 0 C  py              2.0       4.3       6.1       0.4       0.2       9.2
 0 C  dz2             0.2       0.4       0.1       0.0       0.4       0.0
 0 C  dxz             0.2       0.4       0.1       0.0       0.0       0.1
 0 C  dyz             0.0       0.0       0.2       0.0       0.1       1.2
 0 C  dx2y2           0.4       0.0       0.0       0.0       0.0       0.0
 0 C  dxy             0.0       0.7       1.1       0.0       0.0       0.2
 1 C  s               0.0       1.6       0.8       3.2       1.1       1.6
 1 C  pz              0.0       0.6       0.3       8.1       9.6       2.0
 1 C  px              0.0       3.8       1.5       0.2       1.1       1.1
 1 C  py              0.1       9.9       0.1       1.1       4.3       4.8
 1 C  dz2             0.0       0.6       0.3       0.0       0.5       0.0
 1 C  dxz             0.0       0.0       0.5       0.0       0.1       0.1
 1 C  dyz             0.0       0.4       0.1       0.0       0.0       0.1
 1 C  dx2y2           0.1       0.2       0.0       0.0       0.0       0.5
 1 C  dxy             0.0       1.1       0.0       0.0       0.4       0.4
 2 C  s               0.0       2.2       4.1       2.6       9.0       0.8
 2 C  pz              0.2       4.2       9.2       5.3      18.4       3.3
 2 C  px              1.6       3.6       2.8       4.5       0.4       4.6
 2 C  py              2.3       0.0       3.1       7.9       7.6       2.3
 2 C  dz2             0.2       0.2       0.3       0.3       0.5       0.1
 2 C  dxz             0.4       0.2       0.9       0.2       0.0       0.0
 2 C  dyz             0.3       0.1       0.1       0.2       0.1       0.0
 2 C  dx2y2           0.0       0.5       0.0       0.0       0.0       0.2
 2 C  dxy             0.0       0.2       0.1       0.3       0.1       0.7
 3 O  s               0.0       3.7       5.5       2.9       0.1       0.0
 3 O  pz              3.7       0.7       1.3       2.0       0.5       0.2
 3 O  px             21.8       0.1       0.1       0.6       1.5       1.3
 3 O  py             11.8       0.2       0.9       1.8       1.9       0.3
 3 O  dz2             0.1       0.7       0.5       0.8       2.9       0.0
 3 O  dxz             0.1       0.0       0.4       0.1       0.7       0.5
 3 O  dyz             0.4       0.1       0.1       0.4       0.3       1.9
 3 O  dx2y2           0.2       0.4       0.0       0.2       0.1       0.0
 3 O  dxy             0.0       0.2       0.1       1.2       2.3       1.0
 4 O  s               0.0       7.6       0.1       1.6       1.5       0.1
 4 O  pz              0.6       0.9       0.1       1.3       0.3       2.3
 4 O  px              0.3       0.4       0.4       2.9       0.1       0.3
 4 O  py              0.0       2.1       0.1       1.4       0.3       0.4
 4 O  dz2             0.0       0.2       0.2       0.2       0.1       0.7
 4 O  dxz             0.1       0.4       0.6       3.2       0.1       1.0
 4 O  dyz             0.1       0.1       0.0       0.3       0.7       0.1
 4 O  dx2y2           0.1       0.3       0.0       1.7       1.0       0.0
 4 O  dxy             0.0       0.1       1.2       0.1       0.1       0.1
 5 O  s               0.0       3.9       5.9       1.3       0.0       1.3
 5 O  pz              5.4       1.5       1.5       0.2       0.7       0.1
 5 O  px             11.8       0.3       0.3       0.4       0.4       2.2
 5 O  py             15.5       0.9       0.6       0.8       0.0       1.1
 5 O  dz2             0.1       0.2       0.0       0.1       0.0       0.7
 5 O  dxz             0.0       0.7       0.3       0.5       0.1       5.7
 5 O  dyz             0.0       0.0       0.6       0.1       0.6       0.2
 5 O  dx2y2           0.6       0.1       0.0       0.3       0.0       1.8
 5 O  dxy             0.0       0.8       0.7       0.4       0.0       0.1
 6 H  s               4.1       0.0       1.6       0.1       2.1       0.6
 6 H  pz              0.0       0.0       0.3       0.0       0.9       0.7
 6 H  px              0.0       0.3       0.0       0.0       0.0       0.1
 6 H  py              0.0       0.1       0.9       0.0       0.1       0.5
 7 H  s               3.3       0.0       1.4       0.4       0.3       1.9
 7 H  pz              0.0       0.0       0.0       0.0       0.0       1.3
 7 H  px              0.0       0.2       0.9       0.0       0.0       0.1
 7 H  py              0.0       0.1       0.1       0.1       0.1       0.9
 8 H  s               0.1       1.3       0.5       0.9       3.0       0.0
 8 H  pz              0.0       0.2       0.0       0.6       1.7       0.1
 8 H  px              0.0       0.0       0.4       0.0       0.0       0.1
 8 H  py              0.0       0.7       0.0       0.0       0.2       0.6
 9 H  s               3.6       1.8       1.0       1.1       0.9       1.9
 9 H  pz              0.0       0.1       0.3       0.1       0.5       0.0
 9 H  px              0.0       0.0       0.1       0.7       0.1       0.2
 9 H  py              0.0       0.4       0.4       0.0       0.5       0.3
10 H  s               3.8       0.4       1.6       1.5       2.0       0.6
10 H  pz              0.0       0.0       0.0       0.7       1.3       0.4
10 H  px              0.0       0.2       0.7       0.0       0.3       0.2
10 H  py              0.0       0.1       0.0       0.8       0.0       0.2
11 H  s               0.0       5.0       7.9       6.2       3.0       0.6
11 H  pz              0.1       0.0       0.0       0.0       0.1       0.1
11 H  px              0.4       0.4       0.7       0.6       0.2       0.0
11 H  py              0.2       0.7       1.2       1.1       0.4       0.1
12 H  s               0.0       9.1       0.3      11.4       2.1       0.2
12 H  pz              0.0       0.4       0.0       1.0       0.0       0.0
12 H  px              0.0       1.7       0.0       1.9       0.6       0.0
12 H  py              0.0       0.2       0.0       0.0       0.0       0.0
13 H  s               0.0       4.1       8.6       4.7       0.7       0.3
13 H  pz              0.1       0.3       0.8       0.5       0.1       0.2
13 H  px              0.2       0.7       1.2       0.5       0.1       0.0
13 H  py              0.3       0.2       0.2       0.0       0.0       0.1

                     30        31        32        33        34        35   
                   0.14764   0.15213   0.16923   0.18144   0.20098   0.20721
                   0.00000   0.00000   0.00000   0.00000   0.00000   0.00000
                  --------  --------  --------  --------  --------  --------
 0 C  s               5.4       0.6       1.9       0.7       3.5       0.6
 0 C  pz              1.1       4.9       7.0       3.6       5.2       3.8
 0 C  px              4.4       0.2      12.4       3.3       4.0       8.0
 0 C  py              9.3       3.4       6.8       7.1       0.6       8.9
 0 C  dz2             0.2       0.1       0.4       0.3       0.1       0.1
 0 C  dxz             0.6       0.1       0.8       0.0       1.1       0.3
 0 C  dyz             0.0       0.0       0.2       0.0       0.1       0.3
 0 C  dx2y2           0.1       0.0       0.1       0.1       0.5       0.0
 0 C  dxy             0.0       0.5       0.0       1.4       0.2       0.0
 1 C  s               3.9       1.9       2.7       1.4       6.1       0.0
 1 C  pz              3.9       1.0       1.6      11.7       5.7       1.1
 1 C  px              9.1       4.2       3.1       4.8       2.6       6.3
 1 C  py              2.8       2.9       1.7       0.0       0.1       1.0
 1 C  dz2             0.1       0.1       1.1       0.0       0.0       0.4
 1 C  dxz             0.1       0.8       0.1       0.6       1.2       0.1
 1 C  dyz             0.1       0.0       0.6       0.3       0.0       0.5
 1 C  dx2y2           0.1       1.1       0.0       0.0       0.0       0.0
 1 C  dxy             0.0       0.1       0.0       0.6       0.2       0.1
 2 C  s               1.5       0.8       1.1       6.3       1.7       0.3
 2 C  pz              1.1       3.8       0.2       0.0       3.6       4.6
 2 C  px              9.7       8.1       2.8       0.4       1.0       2.3
 2 C  py              0.9      11.9       4.5       2.5       4.4       4.9
 2 C  dz2             0.0       0.0       0.2       0.1       0.3       0.3
 2 C  dxz             0.0       1.1       0.3       0.0       0.3       1.0
 2 C  dyz             0.1       0.1       0.1       0.2       0.4       0.1
 2 C  dx2y2           0.0       0.9       0.2       0.0       0.0       0.0
 2 C  dxy             0.0       0.0       0.5       0.0       0.0       0.2
 3 O  s               0.3       0.3       0.1       0.5       0.4       0.1
 3 O  pz              0.1       0.5       4.9       0.5       0.7       0.6
 3 O  px              2.1       0.5       0.0       0.8       2.0       4.1
 3 O  py              0.1       0.3       0.1       0.1       2.4       0.7
 3 O  dz2             0.2       0.0       0.6       0.4       0.8       1.0
 3 O  dxz             0.0       0.2       2.7       1.0       0.1       0.1
 3 O  dyz             0.0       0.1       0.6       0.4       0.4       0.9
 3 O  dx2y2           0.0       4.4       0.1       0.1       0.0       2.6
 3 O  dxy             0.7       0.5       0.5       2.8       1.2       2.4
 4 O  s               0.0       1.6       1.2       0.0       0.3       0.1
 4 O  pz              1.3       0.2       0.7       0.1       0.0       0.0
 4 O  px              4.2       0.5       0.1       0.1       0.3       1.3
 4 O  py              0.2       2.6       1.1       0.0       0.9       0.9
 4 O  dz2             0.2       0.1       0.0       0.3       2.5       3.6
 4 O  dxz             0.4       0.0       0.3       0.0       0.6       0.1
 4 O  dyz             0.8       0.5       0.0       3.3       0.0       0.1
 4 O  dx2y2           0.6       2.0       1.6       0.0       0.9       2.5
 4 O  dxy             1.5       0.6       0.9       0.5       0.8       0.0
 5 O  s               0.3       0.3       0.2       0.0       0.5       0.0
 5 O  pz              1.4       0.8       1.7       0.1       0.4       1.2
 5 O  px              0.6       2.6       2.0       2.1       1.5       0.4
 5 O  py              0.5       1.7       0.6       0.1       0.0       1.4
 5 O  dz2             0.0       0.1       0.0       6.1       2.0       0.6
 5 O  dxz             0.0       2.1       0.0       2.4       0.1       0.1
 5 O  dyz             2.3       0.0       1.9       0.1       0.7       0.9
 5 O  dx2y2           0.0       0.2       1.1       0.7       1.6       0.0
 5 O  dxy             1.3       0.1       0.2       1.4       3.1       0.5
 6 H  s               1.6       0.1      10.3       0.1       0.4       0.4
 6 H  pz              0.1       0.1       2.9       0.4       0.8       0.0
 6 H  px              0.7       0.0       0.9       0.3       0.3       0.3
 6 H  py              0.0       0.1       0.2       0.3       0.0       0.0
 7 H  s               3.8       2.4       0.4      10.2       0.3       0.7
 7 H  pz              0.0       0.0       0.4       0.0       0.3       0.0
 7 H  px              0.1       0.4       0.4       0.9       0.2       0.5
 7 H  py              2.4       0.4       0.0       2.1       0.1       0.2
 8 H  s               4.5       1.0       1.5       5.1       0.3       1.2
 8 H  pz              1.6       0.1       0.2       1.0       0.1       0.7
 8 H  px              0.6       0.7       0.0       1.6       0.5       0.3
[...]
 6 H  pz             10.6       0.3       0.1       0.3       0.0       0.0
 6 H  px              1.9       0.0       0.0       0.1       0.0       0.0
 6 H  py              0.4       0.3       0.4       0.1       0.0       0.0
 7 H  s               4.0       0.2       0.5       0.0       0.0       0.0
 7 H  pz              1.0       0.0       0.0       0.0       0.0       0.0
 7 H  px              2.4       0.3       0.6       0.0       0.0       0.0
 7 H  py              5.4       0.1       0.2       0.0       0.0       0.0
 8 H  s               0.1       0.2       0.1       0.9       0.0       0.0
 8 H  pz              0.1       0.3       0.0       0.9       0.0       0.0
 8 H  px              0.4       0.0       0.0       0.1       0.0       0.0
 8 H  py              0.0       0.1       0.1       0.6       0.0       0.0
 9 H  s               3.6       0.4       0.2       0.0       0.0       0.0
 9 H  pz              1.7       0.0       0.1       0.0       0.0       0.0
 9 H  px              1.4       0.1       0.0       0.0       0.0       0.0
 9 H  py              5.3       0.7       0.4       0.0       0.0       0.0
10 H  s               3.3       0.2       0.3       0.0       0.0       0.0
10 H  pz              4.1       0.0       0.0       0.1       0.0       0.0
10 H  px              2.9       0.4       0.7       0.0       0.0       0.0
11 H  s               0.0       0.4       0.3       0.0       5.9       0.8
11 H  px              0.1       0.2       0.3       0.0       2.2       0.4
11 H  py              0.1       0.5       0.4       0.0       4.6       0.7
12 H  s               0.0       0.0       0.0       0.7       0.1      11.2
12 H  pz              0.0       0.0       0.0       0.2       0.1       3.7
12 H  px              0.0       0.0       0.0       0.9       0.2       9.6
12 H  py              0.1       0.2       0.0       0.1       0.0       0.2
13 H  s               0.0       0.2       0.4       0.2       8.0       1.4
13 H  pz              0.1       0.1       0.1       0.1       4.3       0.7
13 H  px              0.1       0.3       0.6       0.1       4.6       0.8
13 H  py              0.1       0.1       0.1       0.0       0.5       0.1

                    162       163       164       165       166       167   
                   4.59470  22.04365  22.05111  22.12448  43.60741  43.67032
                   0.00000   0.00000   0.00000   0.00000   0.00000   0.00000
                  --------  --------  --------  --------  --------  --------
 0 C  s               0.1      61.8      37.3       0.4       0.0       0.0
 0 C  px              0.2       0.0       0.0       0.0       0.0       0.0
 0 C  py              0.3       0.0       0.0       0.0       0.0       0.0
 0 C  dxz             0.1       0.0       0.0       0.0       0.0       0.0
 0 C  dyz             0.1       0.0       0.0       0.0       0.0       0.0
 0 C  dxy             0.2       0.0       0.0       0.0       0.0       0.0
 1 C  s               0.0       0.5       0.1      99.1       0.0       0.0
 1 C  pz              0.2       0.0       0.0       0.0       0.0       0.0
 1 C  py              0.3       0.0       0.0       0.0       0.0       0.0
 1 C  dxy             0.2       0.0       0.0       0.0       0.0       0.0
 2 C  s               0.1      37.3      62.1       0.1       0.0       0.0
 2 C  pz              0.6       0.0       0.0       0.0       0.0       0.0
 2 C  px              0.2       0.0       0.0       0.0       0.0       0.0
 2 C  dz2             0.5       0.0       0.0       0.0       0.0       0.0
 2 C  dxz             0.4       0.0       0.0       0.0       0.0       0.0
 3 O  s               2.6       0.0       0.1       0.0      56.8      37.1
 3 O  pz              0.5       0.0       0.0       0.0       0.0       0.0
 3 O  px              4.6       0.0       0.0       0.0       0.0       0.0
 3 O  py              6.4       0.0       0.0       0.0       0.0       0.0
 3 O  dz2             7.2       0.0       0.0       0.0       0.0       0.0
 3 O  dxz             1.0       0.0       0.0       0.0       0.0       0.0
 3 O  dyz             0.4       0.0       0.0       0.0       0.0       0.0
 3 O  dx2y2           2.1       0.0       0.0       0.0       0.0       0.0
 3 O  dxy             9.7       0.0       0.0       0.0       0.0       0.0
 4 O  s               1.1       0.0       0.0       0.1       6.4       0.6
 4 O  pz              0.5       0.0       0.0       0.0       0.0       0.0
 4 O  px              2.5       0.0       0.0       0.0       0.0       0.0
 4 O  py              0.4       0.0       0.0       0.0       0.0       0.0
 4 O  dxz             3.4       0.0       0.0       0.0       0.0       0.0
 4 O  dyz             0.1       0.0       0.0       0.0       0.0       0.0
 4 O  dx2y2           2.5       0.0       0.0       0.0       0.0       0.0
 5 O  s               1.8       0.0       0.0       0.0      36.6      62.3
 5 O  pz              1.6       0.0       0.0       0.0       0.0       0.0
 5 O  px              4.2       0.0       0.0       0.0       0.0       0.0
 5 O  py              1.1       0.0       0.0       0.0       0.0       0.0
 5 O  dz2             0.7       0.0       0.0       0.0       0.0       0.0
 5 O  dxz             8.3       0.0       0.0       0.0       0.0       0.0
 5 O  dyz             1.4       0.0       0.0       0.0       0.0       0.0
 5 O  dx2y2           1.6       0.0       0.0       0.0       0.0       0.0
 5 O  dxy             0.1       0.0       0.0       0.0       0.0       0.0
11 H  s               7.2       0.0       0.0       0.0       0.0       0.0
11 H  px              2.5       0.0       0.0       0.0       0.0       0.0
11 H  py              5.7       0.0       0.0       0.0       0.0       0.0
12 H  s               2.3       0.0       0.0       0.0       0.0       0.0
12 H  pz              0.7       0.0       0.0       0.0       0.0       0.0
12 H  px              1.7       0.0       0.0       0.0       0.0       0.0
13 H  s               4.3       0.0       0.0       0.0       0.0       0.0
13 H  pz              2.5       0.0       0.0       0.0       0.0       0.0
13 H  px              2.4       0.0       0.0       0.0       0.0       0.0
13 H  py              0.3       0.0       0.0       0.0       0.0       0.0

                    168   
                  43.72406
                   0.00000
                  --------
 3 O  s               6.0
 4 O  s              92.9
 5 O  s               1.0


                      *****************************
                      * MAYER POPULATION ANALYSIS *
                      *****************************

  NA   - Mulliken gross atomic population
  ZA   - Total nuclear charge
  QA   - Mulliken gross atomic charge
  VA   - Mayer's total valence
  BVA  - Mayer's bonded valence
  FA   - Mayer's free valence

  ATOM       NA         ZA         QA         VA         BVA        FA
  0 C      6.1867     6.0000    -0.1867     3.8415     3.8415     0.0000
  1 C      5.9266     6.0000     0.0734     3.6788     3.6788     0.0000
  2 C      6.1684     6.0000    -0.1684     3.8265     3.8265    -0.0000
  3 O      8.5082     8.0000    -0.5082     1.7919     1.7919    -0.0000
  4 O      8.5103     8.0000    -0.5103     1.7986     1.7986    -0.0000
  5 O      8.5096     8.0000    -0.5096     1.8169     1.8169     0.0000
  6 H      0.8456     1.0000     0.1544     0.9525     0.9525     0.0000
  7 H      0.8537     1.0000     0.1463     0.9495     0.9495     0.0000
  8 H      0.8499     1.0000     0.1501     0.9522     0.9522     0.0000
  9 H      0.8483     1.0000     0.1517     0.9538     0.9538    -0.0000
 10 H      0.8460     1.0000     0.1540     0.9496     0.9496    -0.0000
 11 H      0.6507     1.0000     0.3493     0.8836     0.8836     0.0000
 12 H      0.6477     1.0000     0.3523     0.8822     0.8822    -0.0000
 13 H      0.6482     1.0000     0.3518     0.8825     0.8825    -0.0000

  Mayer bond orders larger than 0.100000
B(  0-C ,  1-C ) :   0.9520 B(  0-C ,  5-O ) :   0.9336 B(  0-C ,  6-H ) :   0.9644 
B(  0-C ,  7-H ) :   0.9587 B(  1-C ,  2-C ) :   0.9793 B(  1-C ,  4-O ) :   0.9038 
B(  1-C ,  8-H ) :   0.9306 B(  2-C ,  3-O ) :   0.9321 B(  2-C ,  9-H ) :   0.9529 
B(  2-C , 10-H ) :   0.9612 B(  3-O , 11-H ) :   0.8726 B(  4-O , 12-H ) :   0.8670 
B(  5-O , 13-H ) :   0.8690 

-------
TIMINGS
-------

Total SCF time: 0 days 0 hours 0 min 20 sec 

Total time                  ....      20.871 sec
Sum of individual times     ....      20.370 sec  ( 97.6%)

SCF preparation             ....       0.270 sec  (  1.3%)
Fock matrix formation       ....      19.155 sec  ( 91.8%)
  Startup                   ....       0.082 sec  (  0.4% of F)
  Split-RI-J                ....       2.590 sec  ( 13.5% of F)
  XC integration            ....      13.117 sec  ( 68.5% of F)
    XC Preparation          ....       0.000 sec  (  0.0% of XC)
    Basis function eval.    ....       2.239 sec  ( 17.1% of XC)
    Density eval.           ....       3.617 sec  ( 27.6% of XC)
    XC-Functional eval.     ....       1.866 sec  ( 14.2% of XC)
    XC-Potential eval.      ....       4.507 sec  ( 34.4% of XC)
  CPCM terms                ....       2.777 sec  ( 14.5% of F)
Diagonalization             ....       0.000 sec  (  0.0%)
Density matrix formation    ....       0.253 sec  (  1.2%)
Total Energy calculation    ....       0.051 sec  (  0.2%)
Population analysis         ....       0.091 sec  (  0.4%)
Orbital Transformation      ....       0.053 sec  (  0.3%)
Orbital Orthonormalization  ....       0.000 sec  (  0.0%)
DIIS solution               ....       0.452 sec  (  2.2%)
  MO trafo                  ....       0.000 sec  (  0.0 % of DIIS)
  Orb grad                  ....       0.000 sec  (  0.0 % of DIIS)
  Energy W gradient         ....       0.000 sec  (  0.0 % of DIIS)
  DIIS error                ....       0.008 sec  (  1.8 % of DIIS)
  DIIS work                 ....       0.391 sec  ( 86.5 % of DIIS)
  Form Q                    ....       0.000 sec  (  0.0 % of DIIS)
  Form QpQm                 ....       0.000 sec  (  0.0 % of DIIS)
  Exp/Cayley                ....       0.000 sec  (  0.0 % of DIIS)
  Orb update                ....       0.000 sec  (  0.0 % of DIIS)
  Wake-sleep                ....       0.023 sec  (  5.2 % of DIIS)
SOSCF solution              ....       0.046 sec  (  0.2%)
  MO trafo                  ....       0.034 sec  ( 74.3 % of SOSCF)
  Orb grad                  ....       0.000 sec  (  1.0 % of SOSCF)
  Rot update                ....       0.000 sec  (  0.1 % of SOSCF)
  Step                      ....       0.011 sec  ( 24.5 % of SOSCF)
Finished LeanSCF after  21.0 sec

Maximum memory used throughout the entire LEANSCF-calculation: 17.6 MB


-------------------------------------------------------------------------------
                          DFT DISPERSION CORRECTION                            
                                                                               
                                DFTD4 V3.4.0                                   
-------------------------------------------------------------------------------
The R2SCAN3C composite method is recognized
Using three-body term ABC
Active option DFTDOPT                   ...         5   

-------------------------   ----------------
Dispersion correction           -0.003013835
-------------------------   ----------------

------------------   -----------------
gCP correction             0.010248875
------------------   -----------------

-------------------------   --------------------
FINAL SINGLE POINT ENERGY      -344.741742550675
-------------------------   --------------------


------------------------------------------------------------------------------
                              ORCA PROPERTY CALCULATIONS
------------------------------------------------------------------------------

GBWName                                 ... sp_solv.gbw
Number of atoms                         ...     14
Number of basis functions               ...    169
Max core memory                         ...   1024 MB

Electric properties:
Dipole moment                           ... YES
Quadrupole moment                       ...  NO
Static polarizability (Dipole/Dipole)   ...  NO
Static polarizability (Dipole/Quad.)    ...  NO
Static polarizability (Quad./Quad.)     ...  NO
Static polarizability (Velocity)        ...  NO

Atomic electric properties:
Dipole moment                           ...  NO
Quadrupole moment                       ...  NO
Static polarizability                   ...  NO

Choice of electric origin               ... Center of mass
Position of electric origin             ...    -0.000003    -0.000001     0.000009

General magnetic properties:
Magnetizability                         ...  NO

EPR properties:
g-Tensor (aka g-matrix)                 ...  NO
Zero-Field splitting spin-orbit         ...  NO
Zero-field splitting spin-spin          ...  NO
Hyperfine couplings                     ...  NO (   0 nuclei)
Quadrupole couplings                    ...  NO (   0 nuclei)
Contact density                         ...  NO (   0 nuclei)

NMR properties:
Chemical shifts                         ...  NO (   0 nuclei)
Spin-rotation constants                 ...  NO (   0 nuclei)
Spin-spin couplings                     ...  NO (   0 nuclei,    0 pairs)

Choice of magnetic origin               ... GIAO
Position of magnetic origin             ...     0.000000     0.000000     0.000000

Properties with geometric perturbations:
SCF Hessian                             ...  NO
IR spectrum                             ...  NO
VCD spectrum                            ...  NO
X-ray spectroscopy properties:
SCF XES/XAS/RIXS spectra                ...  NO


-------------
DIPOLE MOMENT
-------------

Method             : SCF
Type of density    : Electron Density
Multiplicity       :   1
Irrep              :   0
Energy             :  -344.7489775904173257 Eh
Relativity type    : 
Basis              : AO
                                X                 Y                 Z
Electronic contribution:      0.308226019       0.379545115      -0.489659168
Nuclear contribution   :      0.008039044      -1.105582688       0.975657111
                        -----------------------------------------
Total Dipole Moment    :      0.316265063      -0.726037572       0.485997943
                        -----------------------------------------
Magnitude (a.u.)       :      0.929165296
Magnitude (Debye)      :      2.361750490



--------------------
Rotational spectrum 
--------------------
 
Rotational constants in cm-1:             0.147031             0.094025             0.068858 
Rotational constants in MHz :          4407.882539          2818.802166          2064.320331 

Dipole components along the rotational axes: 
x,y,z [a.u.] :     0.245748    -0.692194     0.569056 
x,y,z [Debye]:     0.624641    -1.759416     1.446424 

 

Dipole moment calculation done in   0.0 sec 

Maximum memory used throughout the entire PROP-calculation: 9.9 MB

--------------------------------
SUGGESTED CITATIONS FOR THIS RUN
--------------------------------

Below you find a list of papers that are relevant to this ORCA run
We neither can nor want to force you to cite these papers, but we appreciate if you do
You receive ORCA, which is the product of decades of hard work by many enthusiastic individuals, for free
The only thing we kindly ask in return is that you cite our papers,
We deeply appreciate it, if you show your appreciation for ORCA by not just citing the generic ORCA reference.

Please note that relegating all ORCA citations to the supporting information does *not* help us.
SI sections are not indexed - citations you put there will not count into any citation statistics
But we need these citations in order to attract the funding resources that allow us to do what we are doing

Therefore, if you are a happy ORCA user, please consider citing a few of the papers listed below in the main body of your paper

In addition to the list printed below, the program has created the file sp_solv.bibtex that contains the list in bibtex format
You can import this file easily into all common literature databanks and citation aid programs


List of essential papers. We consider these as the minimum necessary citations

  1. Neese,F.
     Software update: the ORCA program system, version 5.0
     WIRES Comput. Molec. Sci., 2022 12(1)e1606
     doi.org/10.1002/wcms.1606
  2. Grimme,S.; Hansen,A.; Ehlert,S.; Mewes,J.
     r2SCAN-3c: A 'Swiss army knife' composite electronic-structure method
     J. Chem. Phys., 2021 154 064103
     doi.org/10.1063/5.0040021

List of papers to cite with high priority. The work reported in these papers was absolutely
necessary for this run to complete.
Our perspective: the developers of density functionals and basis sets usually get cited in chemistry papers
Good! But without the algorithms to do something with them, the functionals or basis sets would not do anything.
Hence, in our opinion, the algorithm design and method developments papers are equally worthy of getting cited

  1. Neese,F.
     An improvement of the resolution of the identity approximation for the formation of the Coulomb matrix
     J. Comp. Chem., 2003 24(14)1740-1747
     doi.org/10.1002/jcc.10318
  2. Garcia-Rates,M.; Neese,F.
     Effect of the Solute Cavity on the Solvation Energy and its Derivatives within the Framework of the Gaussian Charge Scheme
     J. Comput. Chem., 2020 41 922-939
     doi.org/10.1002/jcc.26139
  3. Neese,F.
     The SHARK Integral Generation and Digestion System
     J. Comp. Chem., 2022  1-16
     doi.org/10.1002/jcc.26942
  4. Lehtola,S.; Steigemann,C.; Oliveira,M.; Marques,M.
     Recent developments in Libxc - A comprehensive library of functionals for density functional theory
     Software X, 2018 7 
     doi.org/10.1016/j.softx.2017.11.002
  5. Caldeweyher,E.; Bannwarth,C.; Grimme,S.
     Extension of the D3 dispersion coefficient model
     J. Chem. Phys., 2017 147 034112-XXXX
     doi.org/10.1063/1.4993215
  6. Caldeweyher,E.; Ehlert,S.; Hansen,A.; Neugebauer,H.; Spicher,S.; Bannwarth,C.; Grimme,S.
     A generally applicable atomic-charge dependent London dispersion correction
     J. Chem. Phys., 2019 150 154122-XXXX
     doi.org/10.1063/1.5090222
  7. Caldeweyher,E.; Mewes,J.; Ehlert,S.; Grimme,S.
     Extension and evaluation of the D4 London-dispersion model for periodic systems
     Phys. Chem. Chem. Phys., 2020 22(16)8499-8512
     doi.org/10.1039/D0CP00502A

List of suggested additional citations. These are papers that are important in the 'surrounding' of 
of this run, or papers that preceded the highly important papers. If you like your results we are grateful for a citation.

  1. Neese,F.
     The ORCA program system
     WIRES Comput. Molec. Sci., 2012 2(1)73-78
     doi.org/10.1002/wcms.81
  2. Neese,F.
     Software update: the ORCA program system, version 4.0
     WIRES Comput. Molec. Sci., 2018 8(1)1-6
     doi.org/10.1002/wcms.1327
  3. Neese,F.; Wennmohs,F.; Becker,U.; Riplinger,C.
     The ORCA quantum chemistry program package
     J. Chem. Phys., 2020 152 Art. No. L224108
     doi.org/10.1063/5.0004608

List of optional additional citations

  1. Neese,F.
     Approximate second-order SCF convergence for spin unrestricted wavefunctions
     Chem. Phys. Lett., 2000 325(1-3)93-98
     doi.org/10.1016/s0009-2614(00)00662-x

Timings for individual modules:

Sum of individual times          ...       22.425 sec (=   0.374 min)
Startup calculation              ...        0.985 sec (=   0.016 min)   4.4 %
SCF iterations                   ...       21.339 sec (=   0.356 min)  95.2 %
Property calculations            ...        0.101 sec (=   0.002 min)   0.5 %
                             ****ORCA TERMINATED NORMALLY****
TOTAL RUN TIME: 0 days 0 hours 0 minutes 23 seconds 421 msec
