      -----------------------------------------------------------      
     |                   =====================                   |     
     |                           x T B                           |     
     |                   =====================                   |     
     |                         S. Grimme                         |     
     |          Mulliken Center for Theoretical Chemistry        |     
     |                    University of Bonn                     |     
      -----------------------------------------------------------      

   * xtb version 6.7.1 (edcfbbe) compiled by 'albert@albert-system' on 2024-07-22

   xtb is free software: you can redistribute it and/or modify it under
   the terms of the GNU Lesser General Public License as published by
   the Free Software Foundation, either version 3 of the License, or
   (at your option) any later version.
   
   xtb is distributed in the hope that it will be useful,
   but WITHOUT ANY WARRANTY; without even the implied warranty of
   MERCHANTABILITY or FITNESS FOR A PARTICULAR PURPOSE.  See the
   GNU Lesser General Public License for more details.
   
   Cite this work as:
   * C. Bannwarth, E. Caldeweyher, S. Ehlert, A. Hansen, P. Pracht,
     J. Seibert, S. Spicher, S. Grimme, WIREs Comput. Mol. Sci., 2020, 11,
     e01493. DOI: 10.1002/wcms.1493
   
   for GFN2-xTB:
   * C. Bannwarth, S. Ehlert and S. Grimme., J. Chem. Theory Comput., 2019,
     15, 1652-1671. DOI: 10.1021/acs.jctc.8b01176
   for GFN1-xTB:
   * S. Grimme, C. Bannwarth, P. Shushkov, J. Chem. Theory Comput., 2017,
     13, 1989-2009. DOI: 10.1021/acs.jctc.7b00118
   for GFN0-xTB:
   * P. Pracht, E. Caldeweyher, S. Ehlert, S. Grimme, ChemRxiv, 2019, preprint.
     DOI: 10.26434/chemrxiv.8326202.v1
   for GFN-FF:
   * S. Spicher and S. Grimme, Angew. Chem. Int. Ed., 2020, 59, 15665-15673.
     DOI: 10.1002/anie.202004239
   
   for ALPB and GBSA implicit solvation:
   * S. Ehlert, M. Stahn, S. Spicher, S. Grimme, J. Chem. Theory Comput.,
     2021, 17, 4250-4261. DOI: 10.1021/acs.jctc.1c00471
   
   for ddCOSMO and CPCM-X implicit solvation:
   * M. Stahn, S. Ehlert, S. Grimme, J. Phys. Chem. A,
     2023, XX, XXXX-XXXX. DOI: 10.1021/acs.jpca.3c04382
   
   for DFT-D4:
   * E. Caldeweyher, C. Bannwarth and S. Grimme, J. Chem. Phys., 2017,
     147, 034112. DOI: 10.1063/1.4993215
   * E. Caldeweyher, S. Ehlert, A. Hansen, H. Neugebauer, S. Spicher,
     C. Bannwarth and S. Grimme, J. Chem. Phys., 2019, 150, 154122.
     DOI: 10.1063/1.5090222
   * E. Caldeweyher, J.-M. Mewes, S. Ehlert and S. Grimme, Phys. Chem. Chem. Phys.
     2020, 22, 8499-8512. DOI: 10.1039/D0CP00502A
   
   for sTDA-xTB:
   * S. Grimme and C. Bannwarth, J. Chem. Phys., 2016, 145, 054103.
     DOI: 10.1063/1.4959605
   
   in the mass-spec context:
   * V. Asgeirsson, C. Bauer and S. Grimme, Chem. Sci., 2017, 8, 4879.
     DOI: 10.1039/c7sc00601b
   * J. Koopman and S. Grimme, ACS Omega 2019, 4, 12, 15120-15133.
     DOI: 10.1021/acsomega.9b02011
   
   for metadynamics refer to:
   * S. Grimme, J. Chem. Theory Comput., 2019, 155, 2847-2862
     DOI: 10.1021/acs.jctc.9b00143
   
   for SPH calculations refer to:
   * S. Spicher and S. Grimme, J. Chem. Theory Comput., 2021, 17, 1701-1714
     DOI: 10.1021/acs.jctc.0c01306
   
   for ONIOM refer to:
   * C. Plett, A. Katbashev, S. Ehlert, S. Grimme, M. Bursch,
     Phys. Chem. Chem. Phys., 2023, 25, 17860-17868. DOI: 10.1039/D3CP02178E
   
   for DIPRO refer to:
   * J. Kohn, N. Gildemeister, S. Grimme, D. Fazzi, A. Hansen,
     J. Chem. Phys., 2023, just accepted.
   
   for PTB refer to:
   * S. Grimme, M. Mueller, A. Hansen, J. Chem. Phys., 2023, 158, 124111.
     DOI: 10.1063/5.0137838
   
   with help from (in alphabetical order)
   P. Atkinson, C. Bannwarth, F. Bohle, G. Brandenburg, E. Caldeweyher
   M. Checinski, S. Dohm, S. Ehlert, S. Ehrlich, I. Gerasimov, C. Hölzer
   A. Katbashev, J. Kohn, J. Koopman, C. Lavigne, S. Lehtola, F. März, M. Müller,
   F. Musil, H. Neugebauer, J. Pisarek, C. Plett, P. Pracht, F. Pultar,
   J. Seibert, P. Shushkov, S. Spicher, M. Stahn, M. Steiner, T. Strunk,
   J. Stückrath, T. Rose, and J. Unsleber
   
 * started run on 2025/04/11 at 11:10:56.649     
   ID    Z sym.   atoms
    1    6 C      1-4, 6
    2    1 H      5, 8-18
    3    8 O      7

           -------------------------------------------------
          |                Calculation Setup                |
           -------------------------------------------------

          program call               : /srv/scratch/z5358697/.xtb/bin/xtb solv.coord --gfn2 --sp --chrg 0 --norestart --parallel 1 --alpb water reference -I xtb_sp-xcontrol-inp
          hostname                   : k128
          coordinate file            : solv.coord
          omp threads                :                     1


           -------------------------------------------------
          |                 G F N 2 - x T B                 |
           -------------------------------------------------

        Reference                      10.1021/acs.jctc.8b01176
      * Hamiltonian:
        H0-scaling (s, p, d)           1.850000    2.230000    2.230000
        zeta-weighting                 0.500000
      * Dispersion:
        s8                             2.700000
        a1                             0.520000
        a2                             5.000000
        s9                             5.000000
      * Repulsion:
        kExp                           1.500000    1.000000
        rExp                           1.000000
      * Coulomb:
        alpha                          2.000000
        third order                    shell-resolved
        anisotropic                    true
        a3                             3.000000
        a5                             4.000000
        cn-shift                       1.200000
        cn-exp                         4.000000
        max-rad                        5.000000

      * Solvation model:               ALPB
        Solvent                        water
        Parameter file                 internal GFN2-xTB/ALPB
        Dielectric constant                8.0200E+01
        Reference state                gsolv=reference [X=1]
        Free energy shift                  2.8945E-03 Eh       1.8164E+00 kcal/mol
        Temperature                        2.9815E+02 K
        Density                            1.0000E+00 kg/L
        Solvent mass                       1.8000E+01 g/mol
        Interaction kernel             P16
        Born radius scaling (c1)           1.4744E+00
        Born radii integrator          GBOBC
        Born offset                        0.0000E+00 a0       0.0000E+00 AA
        H-bond correction              true
        Ion screening                  false
        Surface tension                    1.0000E-05 Eh       1.5569E+01 dyn/cm
        Grid points                               974 per atom

          ...................................................
          :                      SETUP                      :
          :.................................................:
          :  # basis functions                  36          :
          :  # atomic orbitals                  36          :
          :  # shells                           24          :
          :  # electrons                        38          :
          :  max. iterations                   250          :
          :  Hamiltonian                  GFN2-xTB          :
          :  restarted?                      false          :
          :  GBSA solvation                   true          :
          :  PC potential                    false          :
          :  electronic temp.          300.0000000     K    :
          :  accuracy                    1.0000000          :
          :  -> integral cutoff          0.2500000E+02      :
          :  -> integral neglect         0.1000000E-07      :
          :  -> SCF convergence          0.1000000E-05 Eh   :
          :  -> wf. convergence          0.1000000E-03 e    :
          :  Broyden damping             0.4000000          :
          :  net charge                          0          :
          :  unpaired electrons                  0          :
          ...................................................

 iter      E             dE          RMSdq      gap      omega  full diag
   1    -21.1223178 -0.211223E+02  0.309E+00   12.29       0.0  T
   2    -21.1502863 -0.279685E-01  0.164E+00   12.15       1.0  T
   3    -21.1510758 -0.789419E-03  0.585E-01   12.15       1.0  T
   4    -21.1512991 -0.223348E-03  0.127E-01   12.12       1.0  T
   5    -21.1513550 -0.558929E-04  0.628E-02   12.14       1.0  T
   6    -21.1513570 -0.196528E-05  0.927E-03   12.14       2.5  T
   7    -21.1513572 -0.190512E-06  0.418E-03   12.14       5.6  T
   8    -21.1513572 -0.360248E-07  0.181E-03   12.14      13.0  T
   9    -21.1513572 -0.493010E-08  0.428E-04   12.14      55.1  T
  10    -21.1513572 -0.599769E-09  0.147E-04   12.14     160.6  T

   *** convergence criteria satisfied after 10 iterations ***

         #    Occupation            Energy/Eh            Energy/eV
      -------------------------------------------------------------
         1        2.0000           -0.6846861             -18.6313
       ...           ...                  ...                  ...
        13        2.0000           -0.4653453             -12.6627
        14        2.0000           -0.4588554             -12.4861
        15        2.0000           -0.4498204             -12.2402
        16        2.0000           -0.4354781             -11.8500
        17        2.0000           -0.4293408             -11.6830
        18        2.0000           -0.4188251             -11.3968
        19        2.0000           -0.4031924             -10.9714 (HOMO)
        20                          0.0430014               1.1701 (LUMO)
        21                          0.0758130               2.0630
        22                          0.1002652               2.7284
        23                          0.1033303               2.8118
        24                          0.1214427               3.3046
       ...                                ...                  ...
        36                          0.3172543               8.6329
      -------------------------------------------------------------
                  HL-Gap            0.4461939 Eh           12.1416 eV
             Fermi-level           -0.1800955 Eh           -4.9006 eV

 SCC (total)                   0 d,  0 h,  0 min,  0.023 sec
 SCC setup                      ...        0 min,  0.001 sec (  5.040%)
 Dispersion                     ...        0 min,  0.000 sec (  0.404%)
 classical contributions        ...        0 min,  0.000 sec (  0.095%)
 integral evaluation            ...        0 min,  0.001 sec (  5.259%)
 iterations                     ...        0 min,  0.017 sec ( 72.603%)
 molecular gradient             ...        0 min,  0.004 sec ( 15.796%)
 printout                       ...        0 min,  0.000 sec (  0.726%)

         :::::::::::::::::::::::::::::::::::::::::::::::::::::
         ::                     SUMMARY                     ::
         :::::::::::::::::::::::::::::::::::::::::::::::::::::
         :: total energy             -20.890046417963 Eh    ::
         :: total w/o Gsasa/hb       -20.889898722050 Eh    ::
         :: gradient norm              0.000057140440 Eh/a0 ::
         :: HOMO-LUMO gap             12.141553098231 eV    ::
         ::.................................................::
         :: SCC energy               -21.151321619749 Eh    ::
         :: -> isotropic ES            0.035576355707 Eh    ::
         :: -> anisotropic ES          0.004220633770 Eh    ::
         :: -> anisotropic XC          0.008128964945 Eh    ::
         :: -> dispersion             -0.010236788733 Eh    ::
         :: -> Gsolv                  -0.004411022806 Eh    ::
         ::    -> Gelec               -0.004263326892 Eh    ::
         ::    -> Gsasa                0.000542320621 Eh    ::
         ::    -> Ghb                 -0.003584565695 Eh    ::
         ::    -> Gshift               0.002894549160 Eh    ::
         :: repulsion energy           0.261275201785 Eh    ::
         :: add. restraining           0.000000000000 Eh    ::
         :: total charge              -0.000000000000 e     ::
         :::::::::::::::::::::::::::::::::::::::::::::::::::::

           -------------------------------------------------
          |                Property Printout                |
           -------------------------------------------------

    * Orbital Energies and Occupations

         #    Occupation            Energy/Eh            Energy/eV
      -------------------------------------------------------------
         1        2.0000           -0.6846861             -18.6313
       ...           ...                  ...                  ...
         7        2.0000           -0.5404621             -14.7067
         8        2.0000           -0.5217251             -14.1969
         9        2.0000           -0.5145675             -14.0021
        10        2.0000           -0.4993635             -13.5884
        11        2.0000           -0.4880205             -13.2797
        12        2.0000           -0.4742137             -12.9040
        13        2.0000           -0.4653453             -12.6627
        14        2.0000           -0.4588554             -12.4861
        15        2.0000           -0.4498204             -12.2402
        16        2.0000           -0.4354781             -11.8500
        17        2.0000           -0.4293408             -11.6830
        18        2.0000           -0.4188251             -11.3968
        19        2.0000           -0.4031924             -10.9714 (HOMO)
        20                          0.0430014               1.1701 (LUMO)
        21                          0.0758130               2.0630
        22                          0.1002652               2.7284
        23                          0.1033303               2.8118
        24                          0.1214427               3.3046
        25                          0.1429308               3.8893
        26                          0.1481399               4.0311
        27                          0.1541946               4.1958
        28                          0.1857819               5.0554
        29                          0.2124329               5.7806
        30                          0.2218795               6.0376
       ...                                ...                  ...
        36                          0.3172543               8.6329
      -------------------------------------------------------------
                  HL-Gap            0.4461939 Eh           12.1416 eV
             Fermi-level           -0.1800955 Eh           -4.9006 eV

     #   Z          covCN         q      C6AA      α(0)
     1   6 C        3.751    -0.110    22.662     6.789
     2   6 C        3.798    -0.056    21.589     6.616
     3   6 C        3.799    -0.080    22.026     6.682
     4   6 C        3.721     0.115    18.810     6.194
     5   1 H        0.924     0.030     2.594     2.518
     6   6 C        3.751    -0.130    23.064     6.849
     7   8 O        1.654    -0.510    23.115     6.490
     8   1 H        0.925     0.035     2.520     2.482
     9   1 H        0.925     0.037     2.495     2.470
    10   1 H        0.925     0.041     2.438     2.442
    11   1 H        0.924     0.039     2.462     2.454
    12   1 H        0.924     0.033     2.540     2.492
    13   1 H        0.924     0.035     2.518     2.482
    14   1 H        0.924     0.043     2.412     2.429
    15   1 H        0.925     0.046     2.368     2.407
    16   1 H        0.925     0.046     2.372     2.408
    17   1 H        0.925     0.053     2.287     2.365
    18   1 H        0.805     0.335     0.623     1.240

 Mol. C6AA /au·bohr⁶  :       2113.315821
 Mol. C8AA /au·bohr⁸  :      43616.297231
 Mol. α(0) /au        :         67.809557


Wiberg/Mayer (AO) data.
largest (>0.10) Wiberg bond orders for each atom

 ---------------------------------------------------------------------------
     #   Z sym  total        # sym  WBO       # sym  WBO       # sym  WBO
 ---------------------------------------------------------------------------
     1   6 C    3.997 --     2 C    1.020    10 H    0.987     9 H    0.987
                             8 H    0.983
     2   6 C    3.997 --     1 C    1.020     3 C    1.008    12 H    0.978
                            11 H    0.975
     3   6 C    3.995 --     2 C    1.008     4 C    0.980    13 H    0.979
                            14 H    0.975
     4   6 C    3.950 --     6 C    1.003     7 O    0.983     3 C    0.980
                             5 H    0.966
     5   1 H    0.999 --     4 C    0.966
     6   6 C    3.994 --     4 C    1.003    15 H    0.986    16 H    0.985
                            17 H    0.979
     7   8 O    1.926 --     4 C    0.983    18 H    0.869
     8   1 H    0.999 --     1 C    0.983
     9   1 H    0.998 --     1 C    0.987
    10   1 H    0.998 --     1 C    0.987
    11   1 H    0.998 --     2 C    0.975
    12   1 H    0.999 --     2 C    0.978
    13   1 H    0.999 --     3 C    0.979
    14   1 H    0.998 --     3 C    0.975
    15   1 H    0.998 --     6 C    0.986
    16   1 H    0.998 --     6 C    0.985
    17   1 H    0.997 --     6 C    0.979
    18   1 H    0.887 --     7 O    0.869
 ---------------------------------------------------------------------------

Topologies differ in total number of bonds
Writing topology from bond orders to xtbtopo.mol

molecular dipole:
                 x           y           z       tot (Debye)
 q only:        0.485      -0.525       0.330
   full:        0.575      -0.613       0.389       2.353
molecular quadrupole (traceless):
                xx          xy          yy          xz          yz          zz
 q only:       -1.291       3.140      -0.989      -0.187       1.373       2.280
  q+dip:       -1.168       3.757      -1.782      -0.212       1.789       2.950
   full:       -1.361       3.831      -1.657      -0.067       1.838       3.019


           -------------------------------------------------
          | TOTAL ENERGY              -20.890046417963 Eh   |
          | GRADIENT NORM               0.000057140440 Eh/α |
          | HOMO-LUMO GAP              12.141553098231 eV   |
           -------------------------------------------------

------------------------------------------------------------------------
 * finished run on 2025/04/11 at 11:10:56.709     
------------------------------------------------------------------------
 total:
 * wall-time:     0 d,  0 h,  0 min,  0.060 sec
 *  cpu-time:     0 d,  0 h,  0 min,  0.020 sec
 * ratio c/w:     0.333 speedup
 SCF:
 * wall-time:     0 d,  0 h,  0 min,  0.023 sec
 *  cpu-time:     0 d,  0 h,  0 min,  0.012 sec
 * ratio c/w:     0.512 speedup

