
                                 *****************
                                 * O   R   C   A *
                                 *****************

                                            #,                                       
                                            ###                                      
                                            ####                                     
                                            #####                                    
                                            ######                                   
                                           ########,                                 
                                     ,,################,,,,,                         
                               ,,#################################,,                 
                          ,,##########################################,,             
                       ,#########################################, ''#####,          
                    ,#############################################,,   '####,        
                  ,##################################################,,,,####,       
                ,###########''''           ''''###############################       
              ,#####''   ,,,,##########,,,,          '''####'''          '####       
            ,##' ,,,,###########################,,,                        '##       
           ' ,,###''''                  '''############,,,                           
         ,,##''                                '''############,,,,        ,,,,,,###''
      ,#''                                            '''#######################'''  
     '                                                          ''''####''''         
             ,#######,   #######,   ,#######,      ##                                
            ,#'     '#,  ##    ##  ,#'     '#,    #''#        ,####,   ,####,        
            ##       ##  ##   ,#'  ##            #'  '#       #'       #'  '#        
            ##       ##  #######   ##           ,######,      #####,   #    #        
            '#,     ,#'  ##    ##  '#,     ,#' ,#      #,     #,   #   #,  ,#        
             '#######'   ##     ##  '#######'  #'      '#     '####' # '####'        



                #########################################################
                #                        -***-                          #
                #          Department of theory and spectroscopy        #
                #                                                       #
                #                      Frank Neese                      #
                #                                                       #
                #     Directorship, Architecture, Infrastructure        #
                #                    SHARK, DRIVERS                     #
                #        Core code/Algorithms in most modules           #
                #                                                       #
                #        Max Planck Institute fuer Kohlenforschung      #
                #                Kaiser Wilhelm Platz 1                 #
                #                 D-45470 Muelheim/Ruhr                 #
                #                      Germany                          #
                #                                                       #
                #                  All rights reserved                  #
                #                        -***-                          #
                #########################################################


                         Program Version 6.0.0  -   RELEASE  -


 With contributions from (in alphabetic order):
   Daniel Aravena         : Magnetic Suceptibility
   Michael Atanasov       : Ab Initio Ligand Field Theory (pilot matlab implementation)
   Alexander A. Auer      : GIAO ZORA, VPT2 properties, NMR spectrum
   Ute Becker             : All parallelization in ORCA, NUMFREQ, NUMCALC
   Giovanni Bistoni       : ED, misc. LED, open-shell LED, HFLD
   Martin Brehm           : Molecular dynamics
   Dmytro Bykov           : pre 5.0 version of the SCF Hessian
   Marcos Casanova-Páez   : Triplet and SCS-CIS(D). UHF-(DLPNO)-IP/EA/STEOM-CCSD. UHF-CVS-IP/STEOM-CCSD
   Vijay G. Chilkuri      : MRCI spin determinant printing, contributions to CSF-ICE
   Pauline Colinet        : FMM embedding
   Dipayan Datta          : RHF DLPNO-CCSD density
   Achintya Kumar Dutta   : EOM-CC, STEOM-CC
   Nicolas Foglia         : Exact transition moments, OPA infrastructure, MCD improvements
   Dmitry Ganyushin       : Spin-Orbit,Spin-Spin,Magnetic field MRCI
   Miquel Garcia          : C-PCM and meta-GGA Hessian, CCSD/C-PCM, Gaussian charge scheme
   Tiago L. C. Gouveia    : GS-ROHF, GS-ROCIS
   Yang Guo               : DLPNO-NEVPT2, F12-NEVPT2, CIM, IAO-localization
   Andreas Hansen         : Spin unrestricted coupled pair/coupled cluster methods
   Ingolf Harden          : AUTO-CI MPn and infrastructure 
   Benjamin Helmich-Paris : MC-RPA, TRAH-(SCF,CASSCF), AVAS, COSX integrals, SCF dyn. polar.
   Lee Huntington         : MR-EOM, pCC
   Robert Izsak           : Overlap fitted RIJCOSX, COSX-SCS-MP3, EOM
   Riya Kayal             : Wick's Theorem for AUTO-CI, AUTO-CI UHF-CCSDT
   Emily Kempfer          : AUTO-CI, RHF CISDT and CCSDT
   Christian Kollmar      : KDIIS, OOCD, Brueckner-CCSD(T), CCSD density, CASPT2, CASPT2-K, improved NEVPT2
   Axel Koslowski         : Symmetry handling
   Simone Kossmann        : Meta GGA functionals, TD-DFT gradient, OOMP2, (MP2 Hessian; deprecated post 5.0)
   Lucas Lang             : DCDCAS
   Marvin Lechner         : AUTO-CI (C++ implementation), FIC-MRCC
   Spencer Leger          : CASSCF response
   Dagmar Lenk            : GEPOL surface, SMD, ORCA-2-JSON
   Dimitrios Liakos       : Extrapolation schemes; Compound Job, initial MDCI parallelization
   Dimitrios Manganas     : Further ROCIS development; embedding schemes. LFT, Crystal Embedding
   Dimitrios Pantazis     : SARC Basis sets
   Anastasios Papadopoulos: AUTO-CI, single reference methods and gradients
   Taras Petrenko         : pre 6.0 DFT Hessian and TD-DFT gradient, (ASA, deprecated), ECA, 1-Electron XAS/XES, NRVS
   Peter Pinski           : DLPNO-MP2, DLPNO-MP2 Gradient
   Christoph Reimann      : Effective Core Potentials
   Marius Retegan         : Local ZFS, SOC
   Christoph Riplinger    : Optimizer, TS searches, QM/MM, DLPNO-CCSD(T), (RO)-DLPNO pert. Triples
   Michael Roemelt        : Original ROCIS implementation
   Masaaki Saitow         : Open-shell DLPNO-CCSD energy and density
   Barbara Sandhoefer     : DKH picture change effects
   Kantharuban Sivalingam : CASSCF convergence/infrastructure, NEVPT2 and variants, FIC-MRCI
   Bernardo de Souza      : ESD, SOC TD-DFT
   Georgi Stoychev        : AutoAux, RI-MP2 NMR, DLPNO-MP2 response, X2C
   Van Anh Tran           : RI-MP2 g-tensors
   Willem Van den Heuvel  : Paramagnetic NMR
   Zikuan Wang            : NOTCH, Electric field optimization 
   Frank Wennmohs         : Technical directorship and infrastructure
   Hang Xu                : AUTO-CI-Response properties 


 We gratefully acknowledge several colleagues who have allowed us to
 interface, adapt or use parts of their codes:
   Stefan Grimme, W. Hujo, H. Kruse, P. Pracht,  : VdW corrections, initial TS optimization,
                  C. Bannwarth, S. Ehlert,         DFT functionals, gCP, sTDA/sTD-DF
                  L. Wittmann, M. Mueller
   Ed Valeev, F. Pavosevic, A. Kumar             : LibInt (2-el integral package), F12 methods
   Garnet Chan, S. Sharma, J. Yang, R. Olivares  : DMRG
   Ulf Ekstrom                                   : XCFun DFT Library
   Mihaly Kallay                                 : mrcc  (arbitrary order and MRCC methods)
   Frank Weinhold                                : gennbo (NPA and NBO analysis)
   Simon Mueller                                 : openCOSMO-RS
   Christopher J. Cramer and Donald G. Truhlar   : smd solvation model
   Lars Goerigk                                  : TD-DFT with DH, B97 family of functionals
   V. Asgeirsson, H. Jonsson                     : NEB implementation
   FAccTs GmbH                                   : IRC, NEB, NEB-TS, DLPNO-Multilevel, CI-OPT
                                                   MM, QMMM, 2- and 3-layer-ONIOM, Crystal-QMMM,
                                                   LR-CPCM, SF, NACMEs, symmetry and pop. for TD-DFT,
                                                   nearIR, NL-DFT gradient (VV10), updates on ESD,
                                                   ML-optimized integration grids, MBIS, APM,
                                                   GOAT, DOCKER, SOLVATOR, interface openCOSMO-RS
   S Lehtola, MJT Oliveira, MAL Marques          : LibXC Library
   Liviu Ungur et al                             : ANISO software


 Your calculation uses the libint2 library for the computation of 2-el integrals
 For citations please refer to: http://libint.valeyev.net

 Your ORCA version has been built with support for libXC version: 6.2.2
 For citations please refer to: https://libxc.gitlab.io

 This ORCA versions uses:
   CBLAS   interface :  Fast vector & matrix operations
   LAPACKE interface :  Fast linear algebra routines
   SCALAPACK package :  Parallel linear algebra routines
   Shared memory     :  Shared parallel matrices
   BLAS/LAPACK       :  OpenBLAS 0.3.27  USE64BITINT DYNAMIC_ARCH NO_AFFINITY SkylakeX SINGLE_THREADED
        Core in use  :  SkylakeX
   Copyright (c) 2011-2014, The OpenBLAS Project


Your calculation utilizes the geometrical counterpoise correction gCP
Please cite in your paper:
H.Kruse, S. Grimme J.Chem.Phys., 136, (2012), 154101 
   

Your calculation utilizes the atom-pairwise dispersion correction
based on EEQ partial charges (D4)


================================================================================

----- Orbital basis set information -----
Your calculation utilizes the basis: def2-SV(P)
   F. Weigend and R. Ahlrichs, Phys. Chem. Chem. Phys. 7, 3297 (2005).

----- AuxJ basis set information -----
Your calculation utilizes the auxiliary basis: def2/J
   F. Weigend, Phys. Chem. Chem. Phys. 8, 1057 (2006).

================================================================================
                                        WARNINGS
                       Please study these warnings very carefully!
================================================================================


================================================================================
                                       INPUT FILE
================================================================================
NAME = sp.inp
|  1> ! pbe def2-sv(p) def2/J RI DEFGRID1 loosescf d4 GCP(DFT/SV(P)) printgap
|  2> %output
|  3>     printlevel normal
|  4> end
|  5> * xyz 0 1
|  6> C 2.2063532942 -0.4929566644 1.6866593865
|  7> C 2.4560066079 -0.1388084993 0.2476626937
|  8> C 3.6586603223 -0.2485907437 -0.2951962513
|  9> C 1.2712595669 0.335551335 -0.559981743
| 10> H 1.6464045393 0.7349943991 -1.5059671109
| 11> C 0.3701577841 -0.8666372126 -0.8871969044
| 12> C -1.04736333 -0.4223990008 -1.2462753952
| 13> C -1.6268232694 0.2742819297 -0.0521354039
| 14> C -0.8504165375 1.1290726974 0.6349750348
| 15> C 0.51755989 1.4726853421 0.1787790089
| 16> C -2.9739877812 -0.0263093146 0.3783846403
| 17> O -3.7370468188 -0.8079406829 -0.1630211866
| 18> H 2.759841728 -1.387857999 1.9602592672
| 19> H 2.5445742975 0.3127949508 2.3373082801
| 20> H 1.1493832208 -0.6603831318 1.8754401962
| 21> H 3.8494393555 0.0150760517 -1.3214398315
| 22> H 4.5031359995 -0.6106644305 0.2665322704
| 23> H 0.8114870733 -1.4278631634 -1.7108796493
| 24> H 0.3109761111 -1.5353079881 -0.0264385648
| 25> H -1.0196180165 0.2574145135 -2.1009725661
| 26> H -1.6735824078 -1.2761296182 -1.5098567315
| 27> H -1.2261215273 1.6227366165 1.5200870494
| 28> H 0.409899323 2.3131757884 -0.5137383721
| 29> H 1.1124690717 1.8367237623 1.0156483492
| 30> H -3.302276431 0.5243228384 1.2808374841
| 31> *
| 32> 
| 33>                          ****END OF INPUT****
================================================================================

                       ****************************
                       * Single Point Calculation *
                       ****************************

---------------------------------
CARTESIAN COORDINATES (ANGSTROEM)
---------------------------------
  C      2.206353   -0.492957    1.686659
  C      2.456007   -0.138808    0.247663
  C      3.658660   -0.248591   -0.295196
  C      1.271260    0.335551   -0.559982
  H      1.646405    0.734994   -1.505967
  C      0.370158   -0.866637   -0.887197
  C     -1.047363   -0.422399   -1.246275
  C     -1.626823    0.274282   -0.052135
  C     -0.850417    1.129073    0.634975
  C      0.517560    1.472685    0.178779
  C     -2.973988   -0.026309    0.378385
  O     -3.737047   -0.807941   -0.163021
  H      2.759842   -1.387858    1.960259
  H      2.544574    0.312795    2.337308
  H      1.149383   -0.660383    1.875440
  H      3.849439    0.015076   -1.321440
  H      4.503136   -0.610664    0.266532
  H      0.811487   -1.427863   -1.710880
  H      0.310976   -1.535308   -0.026439
  H     -1.019618    0.257415   -2.100973
  H     -1.673582   -1.276130   -1.509857
  H     -1.226122    1.622737    1.520087
  H      0.409899    2.313176   -0.513738
  H      1.112469    1.836724    1.015648
  H     -3.302276    0.524323    1.280837

----------------------------
CARTESIAN COORDINATES (A.U.)
----------------------------
  NO LB      ZA    FRAG     MASS         X           Y           Z
   0 C     6.0000    0    12.011    4.169403   -0.931553    3.187324
   1 C     6.0000    0    12.011    4.641180   -0.262310    0.468015
   2 C     6.0000    0    12.011    6.913866   -0.469768   -0.557840
   3 C     6.0000    0    12.011    2.402332    0.634100   -1.058212
   4 H     1.0000    0     1.008    3.111254    1.388938   -2.845865
   5 C     6.0000    0    12.011    0.699497   -1.637707   -1.676559
   6 C     6.0000    0    12.011   -1.979230   -0.798218   -2.355119
   7 C     6.0000    0    12.011   -3.074250    0.518318   -0.098522
   8 C     6.0000    0    12.011   -1.607054    2.133638    1.199929
   9 C     6.0000    0    12.011    0.978046    2.782972    0.337843
  10 C     6.0000    0    12.011   -5.620022   -0.049717    0.715043
  11 O     8.0000    0    15.999   -7.061995   -1.526787   -0.308065
  12 H     1.0000    0     1.008    5.215345   -2.622672    3.704353
  13 H     1.0000    0     1.008    4.808549    0.591097    4.416873
  14 H     1.0000    0     1.008    2.172020   -1.247943    3.544068
  15 H     1.0000    0     1.008    7.274386    0.028490   -2.497159
  16 H     1.0000    0     1.008    8.509694   -1.153989    0.503673
  17 H     1.0000    0     1.008    1.533488   -2.698270   -3.233094
  18 H     1.0000    0     1.008    0.587660   -2.901312   -0.049962
  19 H     1.0000    0     1.008   -1.926799    0.486443   -3.970263
  20 H     1.0000    0     1.008   -3.162612   -2.411535   -2.853216
  21 H     1.0000    0     1.008   -2.317034    3.066528    2.872548
  22 H     1.0000    0     1.008    0.774597    4.371269   -0.970825
  23 H     1.0000    0     1.008    2.102262    3.470905    1.919297
  24 H     1.0000    0     1.008   -6.240398    0.990827    2.420432

--------------------------------
INTERNAL COORDINATES (ANGSTROEM)
--------------------------------
 C      0   0   0     0.000000000000     0.00000000     0.00000000
 C      1   0   0     1.502817081941     0.00000000     0.00000000
 C      2   1   0     1.324055864423   121.59679377     0.00000000
 C      2   1   3     1.510275584020   117.11360216   179.38607719
 H      4   2   1     1.093241431732   107.95735109   168.98700900
 C      4   2   1     1.537631779327   109.14439783   285.68274744
 C      6   4   2     1.528283697583   111.48725517   159.69670241
 C      7   6   4     1.499035843172   107.84638624   298.20429610
 C      8   7   6     1.343724460169   118.66161000    42.26148201
 C      9   8   7     1.482411538622   121.55309927     4.79418439
 C      8   7   6     1.445875107491   120.04896048   225.22242375
 O     11   8   7     1.219150097476   125.74807757   358.67940081
 H      1   2   3     1.087223408384   110.50949673   319.99118028
 H      1   2   3     1.089482948565   110.24227612    78.66414865
 H      1   2   3     1.086671777567   111.36066022   198.76144396
 H      3   2   1     1.076611677629   122.10451700   180.82170488
 H      3   2   1     1.076928714515   121.75406548     1.00176554
 H      6   4   2     1.090045583268   109.03099293   281.76968679
 H      6   4   2     1.091571342432   110.05396881    39.57465126
 H      7   6   4     1.092439229701   109.94708336    58.27932200
 H      7   6   4     1.091091848257   111.20210754   178.10422537
 H      9   8   7     1.080870752112   120.55973442   182.06505272
 H     10   9   8     1.094346979251   106.37846001    87.23652010
 H     10   9   8     1.089399466948   110.18103021   202.22969785
 H     11   8   7     1.106973505007   114.56029385   178.80360168

---------------------------
INTERNAL COORDINATES (A.U.)
---------------------------
 C      0   0   0     0.000000000000     0.00000000     0.00000000
 C      1   0   0     2.839912714248     0.00000000     0.00000000
 C      2   1   0     2.502102969771   121.59679377     0.00000000
 C      2   1   3     2.854007240546   117.11360216   179.38607719
 H      4   2   1     2.065926904229   107.95735109   168.98700900
 C      4   2   1     2.905702957742   109.14439783   285.68274744
 C      6   4   2     2.888037643368   111.48725517   159.69670241
 C      7   6   4     2.832767208526   107.84638624   298.20429610
 C      8   7   6     2.539271229170   118.66161000    42.26148201
 C      9   8   7     2.801351825761   121.55309927     4.79418439
 C      8   7   6     2.732307977011   120.04896048   225.22242375
 O     11   8   7     2.303859800372   125.74807757   358.67940081
 H      1   2   3     2.054554488234   110.50949673   319.99118028
 H      1   2   3     2.058824400365   110.24227612    78.66414865
 H      1   2   3     2.053512057063   111.36066022   198.76144396
 H      3   2   1     2.034501223300   122.10451700   180.82170488
 H      3   2   1     2.035100336189   121.75406548     1.00176554
 H      6   4   2     2.059887625868   109.03099293   281.76968679
 H      6   4   2     2.062770892832   110.05396881    39.57465126
 H      7   6   4     2.064410962088   109.94708336    58.27932200
 H      7   6   4     2.061864780159   111.20210754   178.10422537
 H      9   8   7     2.042549707657   120.55973442   182.06505272
 H     10   9   8     2.068016086268   106.37846001    87.23652010
 H     10   9   8     2.058666642972   110.18103021   202.22969785
 H     11   8   7     2.091876761970   114.56029385   178.80360168

---------------------
BASIS SET INFORMATION
---------------------
There are 3 groups of distinct atoms

 Group   1 Type C   : 7s4p1d contracted to 3s2p1d pattern {511/31/1}
 Group   2 Type H   : 4s contracted to 2s pattern {31}
 Group   3 Type O   : 7s4p1d contracted to 3s2p1d pattern {511/31/1}

Atom   0C    basis set group =>   1
Atom   1C    basis set group =>   1
Atom   2C    basis set group =>   1
Atom   3C    basis set group =>   1
Atom   4H    basis set group =>   2
Atom   5C    basis set group =>   1
Atom   6C    basis set group =>   1
Atom   7C    basis set group =>   1
Atom   8C    basis set group =>   1
Atom   9C    basis set group =>   1
Atom  10C    basis set group =>   1
Atom  11O    basis set group =>   3
Atom  12H    basis set group =>   2
Atom  13H    basis set group =>   2
Atom  14H    basis set group =>   2
Atom  15H    basis set group =>   2
Atom  16H    basis set group =>   2
Atom  17H    basis set group =>   2
Atom  18H    basis set group =>   2
Atom  19H    basis set group =>   2
Atom  20H    basis set group =>   2
Atom  21H    basis set group =>   2
Atom  22H    basis set group =>   2
Atom  23H    basis set group =>   2
Atom  24H    basis set group =>   2
---------------------------------
AUXILIARY/J BASIS SET INFORMATION
---------------------------------
There are 3 groups of distinct atoms

 Group   1 Type C   : 12s5p4d2f1g contracted to 6s4p3d1f1g pattern {711111/2111/211/2/1}
 Group   2 Type H   : 5s2p1d contracted to 3s1p1d pattern {311/2/1}
 Group   3 Type O   : 12s5p4d2f1g contracted to 6s4p3d1f1g pattern {711111/2111/211/2/1}

Atom   0C    basis set group =>   1
Atom   1C    basis set group =>   1
Atom   2C    basis set group =>   1
Atom   3C    basis set group =>   1
Atom   4H    basis set group =>   2
Atom   5C    basis set group =>   1
Atom   6C    basis set group =>   1
Atom   7C    basis set group =>   1
Atom   8C    basis set group =>   1
Atom   9C    basis set group =>   1
Atom  10C    basis set group =>   1
Atom  11O    basis set group =>   3
Atom  12H    basis set group =>   2
Atom  13H    basis set group =>   2
Atom  14H    basis set group =>   2
Atom  15H    basis set group =>   2
Atom  16H    basis set group =>   2
Atom  17H    basis set group =>   2
Atom  18H    basis set group =>   2
Atom  19H    basis set group =>   2
Atom  20H    basis set group =>   2
Atom  21H    basis set group =>   2
Atom  22H    basis set group =>   2
Atom  23H    basis set group =>   2
Atom  24H    basis set group =>   2
------------------------------------------------------------------------------
                             ORCA STARTUP CALCULATIONS
                           -- RI-GTO INTEGRALS CHOSEN --
------------------------------------------------------------------------------
------------------------------------------------------------------------------
                   ___                                                        
                  /   \      - P O W E R E D   B Y -                         
                 /     \                                                     
                 |  |  |   _    _      __       _____    __    __             
                 |  |  |  | |  | |    /  \     |  _  \  |  |  /  |          
                  \  \/   | |  | |   /    \    | | | |  |  | /  /          
                 / \  \   | |__| |  /  /\  \   | |_| |  |  |/  /          
                |  |  |   |  __  | /  /__\  \  |    /   |      \           
                |  |  |   | |  | | |   __   |  |    \   |  |\   \          
                \     /   | |  | | |  |  |  |  | |\  \  |  | \   \       
                 \___/    |_|  |_| |__|  |__|  |_| \__\ |__|  \__/        
                                                                              
                      - O R C A' S   B I G   F R I E N D -                    
                                      &                                       
                       - I N T E G R A L  F E E D E R -                       
                                                                              
 v1 FN, 2020, v2 2021, v3 2022-2024                                           
------------------------------------------------------------------------------


----------------------
SHARK INTEGRAL PACKAGE
----------------------

Number of atoms                             ...     25
Number of basis functions                   ...    182
Number of shells                            ...     94
Maximum angular momentum                    ...      2
Integral batch strategy                     ... SHARK/LIBINT Hybrid
RI-J (if used) integral strategy            ... SPLIT-RIJ (Revised 2003 algorithm where possible)
Printlevel                                  ...      1
Contraction scheme used                     ... SEGMENTED contraction
Prescreening option                         ... SCHWARTZ
   Thresh                                   ... 1.000e-09
   Tcut                                     ... 1.000e-10
   Tpresel                                  ... 1.000e-10 
Coulomb Range Separation                    ... NOT USED
Exchange Range Separation                   ... NOT USED
Multipole approximations                    ... NOT USED
Finite Nucleus Model                        ... NOT USED
CABS basis                                  ... NOT available
Auxiliary Coulomb fitting basis             ... AVAILABLE
   # of basis functions in Aux-J            ...    693
   # of shells in Aux-J                     ...    235
   Maximum angular momentum in Aux-J        ...      4
Auxiliary J/K fitting basis                 ... NOT available
Auxiliary Correlation fitting basis         ... NOT available
Auxiliary 'external' fitting basis          ... NOT available

Checking pre-screening integrals            ... done (  0.0 sec) Dimension = 94
Check shell pair data                       ... done (  0.0 sec)
Shell pair information
Shell pair cut-off parameter TPreSel        ...   1.0e-10
Total number of shell pairs                 ...      4465
Shell pairs after pre-screening             ...      4042
Total number of primitive shell pairs       ...     17951
Primitive shell pairs kept                  ...     11084
          la=0 lb=0:   1703 shell pairs
          la=1 lb=0:   1254 shell pairs
          la=1 lb=1:    242 shell pairs
          la=2 lb=0:    570 shell pairs
          la=2 lb=1:    219 shell pairs
          la=2 lb=2:     54 shell pairs

Calculating one electron integrals          ... done (  0.0 sec)
Calculating RI/J V-Matrix + Cholesky decomp.... done (  0.1 sec)
Calculating Nuclear repulsion               ... done (  0.0 sec) ENN=    602.865816734791 Eh

Diagonalization of the overlap matrix:
Smallest eigenvalue                        ... 7.286e-04
Time for diagonalization                   ...    0.005 sec
Threshold for overlap eigenvalues          ... 1.000e-07
Number of eigenvalues below threshold      ... 0
Time for construction of square roots      ...    0.026 sec
Total time needed                          ...    0.043 sec

-------------------
DFT GRID GENERATION
-------------------

General Integration Accuracy     IntAcc      ... 4.159
Radial Grid Type                 RadialGrid  ... OptM3 with GC (2021)
Angular Grid (max. ang.)         AngularGrid ... 3 (Lebedev-194)
Angular grid pruning method      GridPruning ... 4 (adaptive)
Weight generation scheme         WeightScheme... mBecke (2022)
Basis function cutoff            BFCut       ... 1.0000e-10
Integration weight cutoff        WCut        ... 1.0000e-14
Partially contracted basis set               ... off
Rotationally invariant grid construction     ... off
Angular grids for H and He will be reduced by one unit

Total number of grid points                  ...    55022
Total number of batches                      ...      871
Average number of points per batch           ...       63
Average number of grid points per atom       ...     2201
Initializing property integral containers    ... done (  0.0 sec)

SHARK setup successfully completed in   1.2 seconds

Maximum memory used throughout the entire STARTUP-calculation: 27.9 MB
-------------------------------------------------------------------------------
                                 ORCA GUESS
                   Start orbitals & Density for SCF / CASSCF
-------------------------------------------------------------------------------

------------
SCF SETTINGS
------------
Hamiltonian:
 Density Functional     Method          .... DFT(GTOs)
 Exchange Functional    Exchange        .... PBE
   PBE kappa parameter   XKappa         ....  0.804000
   PBE mue parameter    XMuePBE         ....  0.219520
 Correlation Functional Correlation     .... PBE
   PBE beta parameter  CBetaPBE         ....  0.066725
 LDA part of GGA corr.  LDAOpt          .... PW91-LDA
 Gradients option       PostSCFGGA      .... off
   NL short-range parameter             ....  6.400000
 RI-approximation to the Coulomb term is turned on
   Number of AuxJ basis functions       .... 693


General Settings:
 Integral files         IntName         .... sp
 Hartree-Fock type      HFTyp           .... RHF
 Total Charge           Charge          ....    0
 Multiplicity           Mult            ....    1
 Number of Electrons    NEL             ....   82
 Basis Dimension        Dim             ....  182
 Nuclear Repulsion      ENuc            ....    602.8658167348 Eh

Convergence Acceleration:
 AO-DIIS                CNVDIIS         .... on
   Start iteration      DIISMaxIt       ....    12
   Startup error        DIISStart       ....  0.200000
   # of expansion vecs  DIISMaxEq       ....     5
   Bias factor          DIISBfac        ....   1.050
   Max. coefficient     DIISMaxC        ....  10.000
 MO-DIIS                CNVKDIIS        .... off
 Trust-Rad. Augm. Hess. CNVTRAH         .... auto
   Auto Start mean grad. ratio tolernc. ....  1.125000
   Auto Start start iteration           ....    50
   Auto Start num. interpolation iter.  ....    10
   Max. Number of Micro iterations      ....    24
   Max. Number of Macro iterations      .... Maxiter - #DIIS iter
   Number of Davidson start vectors     ....     2
   Converg. threshold    (grad. norm)   ....   1.000e-04
   Grad. Scal. Fac. for Micro threshold ....   0.100
   Minimum threshold for Micro iter.    ....   1.000e-02
   NR start threshold (gradient norm)   ....   1.000e-04
   Initial trust radius                 ....   0.400
   Minimum AH scaling param. (alpha)    ....   1.000
   Maximum AH scaling param. (alpha)    .... 1000.000
   Quad. conv. algorithm                .... NR
   White noise on init. David. guess    .... on
   Maximum white noise                  ....   0.010
   Pseudo random numbers                .... off
   Inactive MOs                         .... canonical
   Orbital update algorithm             .... Taylor
   Preconditioner                       .... Diag
   Full preconditioner red. dimension   ....   250
 SOSCF                  CNVSOSCF        .... on
   Start iteration      SOSCFMaxIt      ....   150
   Startup grad/error   SOSCFStart      ....  0.003300
   Hessian update       SOSCFHessUp     .... L-BFGS
 Level Shifting         CNVShift        .... on
   Level shift para.    LevelShift      ....    0.2500
   Turn off err/grad.   ShiftErr        ....    0.0010
 Zerner damping         CNVZerner       .... off
 Static damping         CNVDamp         .... on
   Fraction old density DampFac         ....    0.7000
   Max. Damping (<1)    DampMax         ....    0.9800
   Min. Damping (>=0)   DampMin         ....    0.0000
   Turn off err/grad.   DampErr         ....    0.1000

SCF Procedure:
 Maximum # iterations   MaxIter         ....   125
 SCF integral mode      SCFMode         .... Direct
   Integral package                     .... SHARK and LIBINT hybrid scheme
 Reset frequency        DirectResetFreq ....    20
 Integral Threshold     Thresh          ....  1.000e-09 Eh
 Primitive CutOff       TCut            ....  1.000e-10 Eh

Convergence Tolerance:
 Convergence Check Mode ConvCheckMode   .... Total+1el-Energy
 Convergence forced     ConvForced      .... 0
 Energy Change          TolE            ....  1.000e-05 Eh
 1-El. energy change                    ....  1.000e-02 Eh
 Orbital Gradient       TolG            ....  1.000e-04
 Orbital Rotation angle TolX            ....  1.000e-04
 DIIS Error             TolErr          ....  5.000e-04

------------------------------
INITIAL GUESS: MODEL POTENTIAL
------------------------------
Loading Hartree-Fock densities                     ... done
Calculating cut-offs                               ... done
Initializing the effective Hamiltonian             ... done
Setting up the integral package (SHARK)            ... done
Starting the Coulomb interaction                   ... done (   0.3 sec)
Making the grid                                    ... done (   0.3 sec)
Mapping shells                                     ... done
Starting the XC term evaluation                    ... done (   0.3 sec)
  promolecular density results
     # of electrons  =     81.996930953
     EX              =    -63.434860138
     EC              =     -2.712543520
     EX+EC           =    -66.147403658
Transforming the Hamiltonian                       ... done (   0.0 sec)
Diagonalizing the Hamiltonian                      ... done (   0.0 sec)
Back transforming the eigenvectors                 ... done (   0.0 sec)
Now organizing SCF variables                       ... done
                      ------------------
                      INITIAL GUESS DONE (   1.0 sec)
                      ------------------
             **** ENERGY FILE WAS UPDATED (sp.en.tmp) ****
Finished Guess after   1.3 sec
Maximum memory used throughout the entire GUESS-calculation: 21.6 MB

-------------------------------------------------------------------------------------------
                                      ORCA LEAN-SCF
                              memory conserving SCF solver
-------------------------------------------------------------------------------------------

----------------------------------------D-I-I-S--------------------------------------------
Iteration    Energy (Eh)           Delta-E    RMSDP     MaxDP     DIISErr   Damp  Time(sec)
-------------------------------------------------------------------------------------------
               ***  Starting incremental Fock matrix formation  ***
    1    -463.4308555468757049     0.00e+00  4.75e-03  1.96e-01  2.16e-01  0.700   1.6
Warning: op=0 Small HOMO/LUMO gap (   0.097) - skipping pre-diagonalization
         Will do a full diagonalization
    2    -463.5631501411061208    -1.32e-01  2.95e-03  8.04e-02  7.42e-02  0.700   1.5
                               ***Turning on AO-DIIS***
    3    -463.6080664661529909    -4.49e-02  1.13e-03  1.43e-02  2.40e-02  0.700   1.6
    4    -463.6350146713092499    -2.69e-02  1.67e-03  2.38e-02  9.51e-03  0.000   1.5
    5    -463.6962358541869662    -6.12e-02  5.29e-04  9.39e-03  6.39e-03  0.000   1.7
                              *** Initializing SOSCF ***
---------------------------------------S-O-S-C-F--------------------------------------
Iteration    Energy (Eh)           Delta-E    RMSDP     MaxDP     MaxGrad    Time(sec)
--------------------------------------------------------------------------------------
    6    -463.6968694877647295    -6.34e-04  2.17e-04  4.86e-03  2.10e-03     1.5
               *** Restarting incremental Fock matrix formation ***
    7    -463.6969270004939290    -5.75e-05  1.37e-04  2.13e-03  3.71e-04     1.6
    8    -463.6969150916125955     1.19e-05  9.04e-05  4.66e-03  9.10e-04     1.3
    9    -463.6969332541146969    -1.82e-05  6.54e-05  2.13e-03  1.76e-04     1.3
   10    -463.6969305106632646     2.74e-06  2.90e-05  8.78e-04  6.02e-04     1.2
                 **** Energy Check signals convergence ****

               *****************************************************
               *                     SUCCESS                       *
               *           SCF CONVERGED AFTER  10 CYCLES          *
               *****************************************************

             **** ENERGY FILE WAS UPDATED (sp.en.tmp) ****

----------------
TOTAL SCF ENERGY
----------------

Total Energy       :       -463.69693051066326 Eh          -12617.83496 eV

Components:
Nuclear Repulsion  :        602.86581673479111 Eh           16404.81288 eV
Electronic Energy  :      -1066.56274724545437 Eh          -29022.64784 eV
One Electron Energy:      -1822.35925358636928 Eh          -49588.91634 eV
Two Electron Energy:        755.79650634091502 Eh           20566.26851 eV

Virial components:
Potential Energy   :       -923.36818981132717 Eh          -25126.12583 eV
Kinetic Energy     :        459.67125930066391 Eh           12508.29087 eV
Virial Ratio       :          2.00875771788761

DFT components:
N(Alpha)           :       41.000038015040 electrons
N(Beta)            :       41.000038015040 electrons
N(Total)           :       82.000076030080 electrons
E(X)               :      -64.726121594132 Eh       
E(C)               :       -2.723981454250 Eh       
E(XC)              :      -67.450103048382 Eh       

---------------
SCF CONVERGENCE
---------------

  Last Energy change         ...   -2.7435e-06  Tolerance :   1.0000e-05
  Last MAX-Density change    ...    8.7794e-04  Tolerance :   1.0000e-03
  Last RMS-Density change    ...    2.8961e-05  Tolerance :   1.0000e-04
  Last DIIS Error            ...    2.0994e-03  Tolerance :   5.0000e-04
  Last Orbital Gradient      ...    6.0235e-04  Tolerance :   1.0000e-04
  Last Orbital Rotation      ...    1.1783e-03  Tolerance :   1.0000e-04


----------------
ORBITAL ENERGIES
----------------

  NO   OCC          E(Eh)            E(eV) 
   0   2.0000     -18.741846      -509.9916 
   1   2.0000      -9.961955      -271.0786 
   2   2.0000      -9.919553      -269.9248 
   3   2.0000      -9.908876      -269.6342 
   4   2.0000      -9.908126      -269.6138 
   5   2.0000      -9.904910      -269.5263 
   6   2.0000      -9.903660      -269.4923 
   7   2.0000      -9.893908      -269.2269 
   8   2.0000      -9.892093      -269.1775 
   9   2.0000      -9.887981      -269.0657 
  10   2.0000      -9.875508      -268.7262 
  11   2.0000      -0.931127       -25.3373 
  12   2.0000      -0.784113       -21.3368 
  13   2.0000      -0.734595       -19.9893 
  14   2.0000      -0.684505       -18.6263 
  15   2.0000      -0.675973       -18.3942 
  16   2.0000      -0.621852       -16.9214 
  17   2.0000      -0.591041       -16.0830 
  18   2.0000      -0.561961       -15.2917 
  19   2.0000      -0.520329       -14.1589 
  20   2.0000      -0.483535       -13.1577 
  21   2.0000      -0.469150       -12.7662 
  22   2.0000      -0.447797       -12.1852 
  23   2.0000      -0.434332       -11.8188 
  24   2.0000      -0.405938       -11.0461 
  25   2.0000      -0.402389       -10.9496 
  26   2.0000      -0.390725       -10.6322 
  27   2.0000      -0.383002       -10.4220 
  28   2.0000      -0.363227        -9.8839 
  29   2.0000      -0.356125        -9.6906 
  30   2.0000      -0.354489        -9.6461 
  31   2.0000      -0.348727        -9.4893 
  32   2.0000      -0.345025        -9.3886 
  33   2.0000      -0.333954        -9.0873 
  34   2.0000      -0.324635        -8.8338 
  35   2.0000      -0.300696        -8.1823 
  36   2.0000      -0.285191        -7.7604 
  37   2.0000      -0.282844        -7.6966 
  38   2.0000      -0.238337        -6.4855 
  39   2.0000      -0.219336        -5.9684 
  40   2.0000      -0.200704        -5.4614 
  41   0.0000      -0.090172        -2.4537 
  42   0.0000      -0.019309        -0.5254 
  43   0.0000       0.022508         0.6125 
  44   0.0000       0.024089         0.6555 
  45   0.0000       0.041368         1.1257 
  46   0.0000       0.062045         1.6883 
  47   0.0000       0.071175         1.9368 
  48   0.0000       0.074181         2.0186 
  49   0.0000       0.086407         2.3512 
  50   0.0000       0.090954         2.4750 
  51   0.0000       0.109734         2.9860 
*Only the first 10 virtual orbitals were printed.

                    ********************************
                    * MULLIKEN POPULATION ANALYSIS *
                    ********************************

-----------------------
MULLIKEN ATOMIC CHARGES
-----------------------
   0 C :   -0.234666
   1 C :   -0.060466
   2 C :   -0.228505
   3 C :   -0.130009
   4 H :    0.052898
   5 C :   -0.139125
   6 C :   -0.043074
   7 C :   -0.060909
   8 C :   -0.180194
   9 C :   -0.040158
  10 C :    0.034461
  11 O :   -0.173577
  12 H :    0.117372
  13 H :    0.119418
  14 H :    0.112181
  15 H :    0.085140
  16 H :    0.081199
  17 H :    0.090092
  18 H :    0.093472
  19 H :    0.091299
  20 H :    0.095825
  21 H :    0.068768
  22 H :    0.116040
  23 H :    0.101013
  24 H :    0.031506
Sum of atomic charges:   -0.0000000

--------------------------------
MULLIKEN REDUCED ORBITAL CHARGES
--------------------------------
  0 C s       :     3.023991  s :     3.023991
      pz      :     1.046827  p :     3.182045
      px      :     1.064565
      py      :     1.070653
      dz2     :     0.006494  d :     0.028629
      dxz     :     0.004361
      dyz     :     0.007854
      dx2y2   :     0.005550
      dxy     :     0.004371

  1 C s       :     3.068793  s :     3.068793
      pz      :     1.023995  p :     2.949449
      px      :     0.958460
      py      :     0.966994
      dz2     :     0.010011  d :     0.042225
      dxz     :     0.012284
      dyz     :     0.006076
      dx2y2   :     0.005789
      dxy     :     0.008066

  2 C s       :     3.190629  s :     3.190629
      pz      :     0.940834  p :     3.011265
      px      :     1.022056
      py      :     1.048376
      dz2     :     0.007154  d :     0.026610
      dxz     :     0.008315
      dyz     :     0.002133
      dx2y2   :     0.004188
      dxy     :     0.004820

  3 C s       :     3.067926  s :     3.067926
      pz      :     1.014387  p :     3.020445
      px      :     1.018419
      py      :     0.987639
      dz2     :     0.007442  d :     0.041638
      dxz     :     0.008101
      dyz     :     0.008909
      dx2y2   :     0.007470
      dxy     :     0.009715

  4 H s       :     0.947102  s :     0.947102

  5 C s       :     3.044429  s :     3.044429
      pz      :     1.025204  p :     3.058125
      px      :     0.982125
      py      :     1.050796
      dz2     :     0.004471  d :     0.036571
      dxz     :     0.006506
      dyz     :     0.010854
      dx2y2   :     0.006821
      dxy     :     0.007919

  6 C s       :     2.945814  s :     2.945814
      pz      :     1.047361  p :     3.061496
      px      :     0.990802
      py      :     1.023334
      dz2     :     0.006551  d :     0.035764
      dxz     :     0.006025
      dyz     :     0.009535
      dx2y2   :     0.005277
      dxy     :     0.008375

  7 C s       :     3.099232  s :     3.099232
      pz      :     1.008599  p :     2.922695
      px      :     0.930848
      py      :     0.983249
      dz2     :     0.008665  d :     0.038982
      dxz     :     0.008705
      dyz     :     0.006628
      dx2y2   :     0.008225
      dxy     :     0.006759

  8 C s       :     3.255207  s :     3.255207
      pz      :     0.942947  p :     2.890035
      px      :     1.002948
      py      :     0.944140
      dz2     :     0.005985  d :     0.034952
      dxz     :     0.008607
      dyz     :     0.005949
      dx2y2   :     0.007205
      dxy     :     0.007205

  9 C s       :     2.911331  s :     2.911331
      pz      :     1.028207  p :     3.093285
      px      :     0.989330
      py      :     1.075748
      dz2     :     0.004037  d :     0.035543
      dxz     :     0.008615
      dyz     :     0.008708
      dx2y2   :     0.007892
      dxy     :     0.006289

 10 C s       :     3.207605  s :     3.207605
      pz      :     0.891872  p :     2.673042
      px      :     0.927941
      py      :     0.853229
      dz2     :     0.016119  d :     0.084893
      dxz     :     0.013970
      dyz     :     0.015971
      dx2y2   :     0.021830
      dxy     :     0.017003

 11 O s       :     3.758618  s :     3.758618
      pz      :     1.519996  p :     4.397687
      px      :     1.558433
      py      :     1.319258
      dz2     :     0.002537  d :     0.017271
      dxz     :     0.003365
      dyz     :     0.002947
      dx2y2   :     0.003991
      dxy     :     0.004430

 12 H s       :     0.882628  s :     0.882628

 13 H s       :     0.880582  s :     0.880582

 14 H s       :     0.887819  s :     0.887819

 15 H s       :     0.914860  s :     0.914860

 16 H s       :     0.918801  s :     0.918801

 17 H s       :     0.909908  s :     0.909908

 18 H s       :     0.906528  s :     0.906528

 19 H s       :     0.908701  s :     0.908701

 20 H s       :     0.904175  s :     0.904175

 21 H s       :     0.931232  s :     0.931232

 22 H s       :     0.883960  s :     0.883960

 23 H s       :     0.898987  s :     0.898987

 24 H s       :     0.968494  s :     0.968494


------------------------
MULLIKEN OVERLAP CHARGES
------------------------
B(  0-C ,  1-C ) :   0.8071 B(  0-C ,  2-C ) :  -0.1905 B(  0-C ,  3-C ) :  -0.2389 
B(  0-C , 12-H ) :   0.7107 B(  0-C , 13-H ) :   0.7022 B(  0-C , 14-H ) :   0.7131 
B(  1-C ,  2-C ) :   1.4898 B(  1-C ,  3-C ) :   0.7302 B(  1-C ,  5-C ) :  -0.1042 
B(  1-C ,  9-C ) :  -0.0738 B(  2-C ,  3-C ) :  -0.1036 B(  2-C , 15-H ) :   0.6793 
B(  2-C , 16-H ) :   0.6997 B(  3-C ,  4-H ) :   0.5642 B(  3-C ,  5-C ) :   0.8003 
B(  3-C ,  7-C ) :  -0.0959 B(  3-C ,  9-C ) :   0.6225 B(  3-C , 15-H ) :  -0.0623 
B(  3-C , 23-H ) :  -0.0514 B(  5-C ,  6-C ) :   0.7805 B(  5-C ,  7-C ) :  -0.0670 
B(  5-C ,  9-C ) :  -0.1300 B(  5-C , 17-H ) :   0.6605 B(  5-C , 18-H ) :   0.7149 
B(  6-C ,  7-C ) :   0.6852 B(  6-C ,  8-C ) :  -0.2058 B(  6-C ,  9-C ) :  -0.1085 
B(  6-C , 10-C ) :  -0.1040 B(  6-C , 18-H ) :  -0.0616 B(  6-C , 19-H ) :   0.6132 
B(  6-C , 20-H ) :   0.6335 B(  7-C ,  8-C ) :   0.8288 B(  7-C , 10-C ) :   0.2476 
B(  7-C , 11-O ) :  -0.2401 B(  7-C , 20-H ) :  -0.0699 B(  7-C , 21-H ) :  -0.1182 
B(  7-C , 24-H ) :  -0.3568 B(  8-C ,  9-C ) :   0.6356 B(  8-C , 21-H ) :   0.7770 
B(  9-C , 21-H ) :  -0.1264 B(  9-C , 22-H ) :   0.6093 B(  9-C , 23-H ) :   0.6829 
B( 10-C , 11-O ) :   1.3557 B( 10-C , 24-H ) :   0.8058 B( 11-O , 20-H ) :   0.0546 
B( 11-O , 24-H ) :  -0.0956 B( 15-H , 16-H ) :  -0.1139 B( 17-H , 18-H ) :  -0.0624 
B( 19-H , 20-H ) :  -0.0515 


                     *******************************
                     * LOEWDIN POPULATION ANALYSIS *
                     *******************************

----------------------
LOEWDIN ATOMIC CHARGES
----------------------
   0 C :   -0.329811
   1 C :   -0.051724
   2 C :   -0.266517
   3 C :   -0.124667
   4 H :    0.121736
   5 C :   -0.204588
   6 C :   -0.210969
   7 C :   -0.103785
   8 C :   -0.088002
   9 C :   -0.214047
  10 C :   -0.006494
  11 O :   -0.135204
  12 H :    0.133938
  13 H :    0.134286
  14 H :    0.122720
  15 H :    0.117309
  16 H :    0.116714
  17 H :    0.123936
  18 H :    0.121833
  19 H :    0.129914
  20 H :    0.130610
  21 H :    0.124842
  22 H :    0.148488
  23 H :    0.131705
  24 H :    0.077776

-------------------------------
LOEWDIN REDUCED ORBITAL CHARGES
-------------------------------
  0 C s       :     2.935766  s :     2.935766
      pz      :     1.077256  p :     3.323864
      px      :     1.119429
      py      :     1.127178
      dz2     :     0.017812  d :     0.070181
      dxz     :     0.009517
      dyz     :     0.018546
      dx2y2   :     0.013654
      dxy     :     0.010653

  1 C s       :     2.870152  s :     2.870152
      pz      :     1.041821  p :     3.072908
      px      :     1.086310
      py      :     0.944776
      dz2     :     0.027017  d :     0.108665
      dxz     :     0.034801
      dyz     :     0.012662
      dx2y2   :     0.016206
      dxy     :     0.017979

  2 C s       :     2.952520  s :     2.952520
      pz      :     1.079601  p :     3.244394
      px      :     1.094919
      py      :     1.069874
      dz2     :     0.018718  d :     0.069603
      dxz     :     0.024068
      dyz     :     0.004390
      dx2y2   :     0.011739
      dxy     :     0.010688

  3 C s       :     2.876519  s :     2.876519
      pz      :     1.066509  p :     3.146162
      px      :     1.035468
      py      :     1.044186
      dz2     :     0.016436  d :     0.101986
      dxz     :     0.021510
      dyz     :     0.020971
      dx2y2   :     0.015969
      dxy     :     0.027099

  4 H s       :     0.878264  s :     0.878264

  5 C s       :     2.908955  s :     2.908955
      pz      :     1.101865  p :     3.207230
      px      :     1.036213
      py      :     1.069152
      dz2     :     0.011167  d :     0.088403
      dxz     :     0.014066
      dyz     :     0.025408
      dx2y2   :     0.016885
      dxy     :     0.020876

  6 C s       :     2.895350  s :     2.895350
      pz      :     1.068359  p :     3.227720
      px      :     1.060567
      py      :     1.098794
      dz2     :     0.016807  d :     0.087898
      dxz     :     0.014703
      dyz     :     0.023344
      dx2y2   :     0.013163
      dxy     :     0.019880

  7 C s       :     2.875941  s :     2.875941
      pz      :     1.042359  p :     3.119669
      px      :     1.056861
      py      :     1.020450
      dz2     :     0.021256  d :     0.108175
      dxz     :     0.026285
      dyz     :     0.018295
      dx2y2   :     0.022355
      dxy     :     0.019985

  8 C s       :     2.911141  s :     2.911141
      pz      :     1.036788  p :     3.086585
      px      :     1.049122
      py      :     1.000675
      dz2     :     0.015410  d :     0.090276
      dxz     :     0.021765
      dyz     :     0.014905
      dx2y2   :     0.018867
      dxy     :     0.019330

  9 C s       :     2.897104  s :     2.897104
      pz      :     1.098368  p :     3.229337
      px      :     1.058299
      py      :     1.072670
      dz2     :     0.008737  d :     0.087606
      dxz     :     0.021231
      dyz     :     0.021639
      dx2y2   :     0.020075
      dxy     :     0.015925

 10 C s       :     2.919778  s :     2.919778
      pz      :     0.971799  p :     2.885493
      px      :     1.007303
      py      :     0.906391
      dz2     :     0.036890  d :     0.201223
      dxz     :     0.032855
      dyz     :     0.038203
      dx2y2   :     0.050971
      dxy     :     0.042303

 11 O s       :     3.559760  s :     3.559760
      pz      :     1.563168  p :     4.545270
      px      :     1.600469
      py      :     1.381634
      dz2     :     0.003873  d :     0.030174
      dxz     :     0.005798
      dyz     :     0.005990
      dx2y2   :     0.005441
      dxy     :     0.009072

 12 H s       :     0.866062  s :     0.866062

 13 H s       :     0.865714  s :     0.865714

 14 H s       :     0.877280  s :     0.877280

 15 H s       :     0.882691  s :     0.882691

 16 H s       :     0.883286  s :     0.883286

 17 H s       :     0.876064  s :     0.876064

 18 H s       :     0.878167  s :     0.878167

 19 H s       :     0.870086  s :     0.870086

 20 H s       :     0.869390  s :     0.869390

 21 H s       :     0.875158  s :     0.875158

 22 H s       :     0.851512  s :     0.851512

 23 H s       :     0.868295  s :     0.868295

 24 H s       :     0.922224  s :     0.922224


---------------------------------
LOEWDIN BOND ORDERS (THRESH 0.050000)
---------------------------------
B(  0-C ,  1-C ) :   1.0889 B(  0-C ,  2-C ) :   0.0850 B(  0-C ,  3-C ) :   0.0517 
B(  0-C , 12-H ) :   0.9284 B(  0-C , 13-H ) :   0.9214 B(  0-C , 14-H ) :   0.9256 
B(  1-C ,  2-C ) :   1.9846 B(  1-C ,  3-C ) :   1.0301 B(  1-C ,  5-C ) :   0.0612 
B(  1-C ,  9-C ) :   0.0556 B(  2-C ,  3-C ) :   0.0904 B(  2-C , 15-H ) :   0.9175 
B(  2-C , 16-H ) :   0.9180 B(  3-C ,  4-H ) :   0.8688 B(  3-C ,  5-C ) :   1.0401 
B(  3-C ,  6-C ) :   0.0515 B(  3-C ,  8-C ) :   0.0522 B(  3-C ,  9-C ) :   1.0144 
B(  5-C ,  6-C ) :   1.0756 B(  5-C ,  7-C ) :   0.0630 B(  5-C , 17-H ) :   0.9004 
B(  5-C , 18-H ) :   0.8964 B(  6-C ,  7-C ) :   1.0517 B(  6-C ,  8-C ) :   0.0785 
B(  6-C , 10-C ) :   0.0604 B(  6-C , 19-H ) :   0.8887 B(  6-C , 20-H ) :   0.8877 
B(  7-C ,  8-C ) :   1.7582 B(  7-C ,  9-C ) :   0.0853 B(  7-C , 10-C ) :   1.1740 
B(  7-C , 11-O ) :   0.1154 B(  8-C ,  9-C ) :   1.1260 B(  8-C , 10-C ) :   0.1308 
B(  8-C , 11-O ) :   0.1172 B(  8-C , 21-H ) :   0.8808 B(  9-C , 22-H ) :   0.8692 
B(  9-C , 23-H ) :   0.8904 B( 10-C , 11-O ) :   2.2548 B( 10-C , 24-H ) :   0.8719 
B( 11-O , 24-H ) :   0.0672 

------------------------------------------
LOEWDIN REDUCED ORBITAL POPULATIONS PER MO
-------------------------------------------
THRESHOLD FOR PRINTING IS 0.1%%
                      0         1         2         3         4         5   
                 -18.74185  -9.96195  -9.91955  -9.90888  -9.90813  -9.90491
                   2.00000   2.00000   2.00000   2.00000   2.00000   2.00000
                  --------  --------  --------  --------  --------  --------
 0 C  pz              0.0       0.0       0.0       0.0       0.0       0.1
 1 C  s               0.0       0.0       0.0       0.0       0.0      99.5
 2 C  px              0.0       0.0       0.0       0.0       0.0       0.1
 3 C  s               0.0       0.0       0.0      99.4       0.2       0.0
 7 C  px              0.0       0.1       0.1       0.0       0.0       0.0
 8 C  s               0.0       0.0      99.6       0.0       0.0       0.0
 8 C  px              0.0       0.0       0.0       0.0       0.1       0.0
 9 C  s               0.0       0.0       0.0       0.2      99.5       0.0
 9 C  px              0.0       0.0       0.1       0.0       0.0       0.0
10 C  s               0.0      99.5       0.0       0.0       0.0       0.0
11 O  s              99.9       0.0       0.0       0.0       0.0       0.0
11 O  px              0.0       0.1       0.0       0.0       0.0       0.0
11 O  py              0.0       0.1       0.0       0.0       0.0       0.0

                      6         7         8         9        10        11   
                  -9.90366  -9.89391  -9.89209  -9.88798  -9.87551  -0.93113
                   2.00000   2.00000   2.00000   2.00000   2.00000   2.00000
                  --------  --------  --------  --------  --------  --------
 0 C  s               0.0       0.0       0.0      99.7       0.0       0.0
 1 C  pz              0.0       0.0       0.0       0.1       0.0       0.0
 1 C  px              0.0       0.0       0.0       0.0       0.1       0.0
 2 C  s               0.0       0.0       0.0       0.0      99.6       0.0
 5 C  s               0.0      99.6       0.0       0.0       0.0       0.0
 6 C  s               0.0       0.0      99.6       0.0       0.0       0.2
 6 C  pz              0.1       0.0       0.0       0.0       0.0       0.1
 6 C  px              0.0       0.1       0.0       0.0       0.0       0.1
 7 C  s              99.5       0.0       0.0       0.0       0.0       1.4
 7 C  px              0.0       0.0       0.0       0.0       0.0       1.7
 7 C  py              0.0       0.0       0.0       0.0       0.0       0.2
 8 C  s               0.0       0.0       0.0       0.0       0.0       0.1
10 C  s               0.0       0.0       0.0       0.0       0.0      19.4
10 C  pz              0.0       0.0       0.0       0.0       0.0       3.0
10 C  px              0.1       0.0       0.0       0.0       0.0       4.8
10 C  py              0.0       0.0       0.0       0.0       0.0       5.6
10 C  dxz             0.0       0.0       0.0       0.0       0.0       0.3
10 C  dyz             0.0       0.0       0.0       0.0       0.0       0.5
10 C  dxy             0.0       0.0       0.0       0.0       0.0       0.9
11 O  s               0.0       0.0       0.0       0.0       0.0      52.4
11 O  pz              0.0       0.0       0.0       0.0       0.0       1.3
11 O  px              0.0       0.0       0.0       0.0       0.0       2.7
11 O  py              0.0       0.0       0.0       0.0       0.0       2.7
11 O  dxy             0.0       0.0       0.0       0.0       0.0       0.1
20 H  s               0.0       0.0       0.1       0.0       0.0       0.1
24 H  s               0.0       0.0       0.0       0.0       0.0       1.7

                     12        13        14        15        16        17   
                  -0.78411  -0.73460  -0.68450  -0.67597  -0.62185  -0.59104
                   2.00000   2.00000   2.00000   2.00000   2.00000   2.00000
                  --------  --------  --------  --------  --------  --------
 0 C  s               1.4       8.6       0.5       7.8      24.7       0.0
 0 C  pz              0.6       1.9       0.0       0.3       0.9       0.0
 0 C  px              0.0       0.1       0.0       0.3       0.3       0.4
 0 C  py              0.1       0.1       0.0       0.0       0.0       0.0
 1 C  s               5.2      19.4       0.1       5.1       1.1       0.0
 1 C  pz              0.2       0.0       0.3       1.6      14.7       0.1
 1 C  px              0.8       0.0       0.1       4.1       4.7       8.3
 1 C  py              0.1       0.0       0.1       0.7       0.4       0.2
 1 C  dz2             0.0       0.0       0.0       0.0       0.2       0.0
 1 C  dxz             0.0       0.0       0.0       0.1       0.0       0.2
 1 C  dx2y2           0.0       0.1       0.0       0.0       0.1       0.0
 2 C  s               1.2       8.8       0.1       6.6      14.8       7.3
 2 C  pz              0.1       0.5       0.0       0.5       0.3       0.1
 2 C  px              0.7       2.5       0.0       0.5       0.3       0.3
 2 C  dx2y2           0.0       0.1       0.0       0.1       0.1       0.0
 3 C  s              12.3       6.7       0.3       6.5       1.0       7.2
 3 C  pz              0.4       0.5       1.6       0.1       0.5       0.1
 3 C  px              0.6       2.5       0.2       2.6       1.3       0.3
 3 C  py              0.0       0.3       4.9       0.7       0.0       1.1
 3 C  dxy             0.0       0.0       0.2       0.0       0.0       0.0
 4 H  s               2.0       1.3       0.1       1.5       0.9       1.9
 5 C  s               8.3       0.1      16.5       2.6       0.1       0.6
 5 C  pz              0.1       0.1       0.2       0.0       0.0       0.5
 5 C  px              0.1       2.3       1.2       0.8       0.4       5.9
 5 C  py              1.7       0.1       0.0       0.5       0.1       0.1
 5 C  dxy             0.0       0.0       0.0       0.0       0.0       0.1
 6 C  s               7.6       3.2      14.7       0.7       0.5       8.3
 6 C  pz              1.3       0.7       0.0       0.4       0.0       0.5
 6 C  px              0.4       0.4       1.5       1.9       0.1       0.1
 6 C  py              0.2       0.4       0.5       0.3       0.0       0.0
 7 C  s              10.4      10.7       0.0       9.5       0.3       1.3
 7 C  pz              0.0       0.1       4.9       0.2       0.3       5.3
 7 C  px              1.7       0.2       0.0       0.9       0.3       5.9
 7 C  py              0.2       0.1       3.9       0.0       0.1       0.2
 8 C  s              11.6       6.4      10.8       0.3       0.0       0.4
 8 C  pz              1.2       0.4       0.0       0.0       0.0       0.2
 8 C  px              0.2       1.0       1.0       6.6       0.5       4.3
 8 C  py              0.4       0.7       0.6       1.5       0.0       1.0
 9 C  s              11.2       0.0      11.2       9.8       0.2       2.7
 9 C  pz              0.1       0.2       0.6       0.4       0.2       0.5
 9 C  px              0.3       2.8       1.1       0.5       0.0       1.7
 9 C  py              1.4       0.2       0.2       0.1       0.0       1.4
10 C  s               0.6       1.2       0.1       2.7       0.4       6.5
10 C  pz              0.0       0.0       0.1       0.0       0.0       1.1
10 C  px              2.1       2.9       0.0       4.2       0.3       2.5
10 C  py              0.4       0.6       0.1       1.1       0.2       2.4
11 O  s               0.5       0.7       0.0       1.3       0.1       1.7
11 O  pz              0.0       0.0       0.0       0.0       0.0       0.2
11 O  px              0.0       0.0       0.0       0.1       0.0       0.3
11 O  py              0.0       0.0       0.0       0.1       0.0       0.4
12 H  s               0.2       1.6       0.1       2.0       6.3       0.0
13 H  s               0.2       1.5       0.1       1.7       7.0       0.0
14 H  s               0.4       1.5       0.1       1.2       7.7       0.1
15 H  s               0.2       1.4       0.0       1.0       4.5       1.7
16 H  s               0.2       1.4       0.0       1.5       2.8       2.6
17 H  s               1.2       0.1       3.6       0.6       0.0       0.3
18 H  s               1.6       0.1       3.2       0.3       0.2       0.3
19 H  s               1.3       0.5       2.9       0.1       0.1       2.8
20 H  s               1.0       0.5       3.1       0.2       0.1       2.5
21 H  s               1.6       1.1       2.7       0.1       0.0       0.0
22 H  s               1.9       0.0       2.6       2.4       0.0       1.2
23 H  s               1.9       0.1       2.9       1.9       0.2       0.9
24 H  s               0.1       0.3       0.1       0.7       0.2       3.3

                     18        19        20        21        22        23   
                  -0.56196  -0.52033  -0.48354  -0.46915  -0.44780  -0.43433
                   2.00000   2.00000   2.00000   2.00000   2.00000   2.00000
                  --------  --------  --------  --------  --------  --------
 0 C  s               0.0       0.1       1.9       0.6       0.4       0.0
 0 C  pz              0.0       0.5       6.8       1.6       4.3       1.0
 0 C  px              0.0       0.1       0.2       0.2       0.7       7.5
 0 C  py              0.2       0.0       0.9       0.0       0.1       0.5
 0 C  dz2             0.0       0.0       0.2       0.0       0.1       0.0
 1 C  s               0.1       1.2       7.0       0.1       1.8       1.4
 1 C  pz              0.0       0.3       0.0       0.5       1.8       0.5
 1 C  px              0.8       2.3       2.0       0.0       0.4       4.9
 1 C  py              1.1       0.3       0.1       0.2       0.2       1.2
 2 C  s               0.7       1.9       3.2       0.1       0.3       1.8
 2 C  pz              0.0       0.0       0.8       0.2       3.9       7.6
 2 C  px              0.1       1.6       7.5       0.2       1.0       7.9
 2 C  py              0.1       0.1       0.1       0.1       0.1       0.1
 2 C  dxz             0.0       0.0       0.1       0.0       0.0       0.1
 3 C  s               1.5       2.2       0.8       1.1       0.3       0.4
 3 C  pz              0.4       0.0       5.7       7.7       2.4       5.6
 3 C  px              0.8       1.6       5.7       1.1       1.7       0.0
 3 C  py              7.2       0.0       1.7       0.6       0.0       0.0
 3 C  dxz             0.0       0.0       0.1       0.0       0.0       0.0
 3 C  dxy             0.1       0.0       0.0       0.0       0.0       0.0
 4 H  s               0.9       0.8       2.3       5.4       2.2       0.7
 5 C  s               9.5       4.5       0.0       0.8       0.1       0.5
 5 C  pz              0.1       0.4       0.0       9.2       0.4       3.0
 5 C  px              0.7       0.1       0.2       0.0       1.7       1.1
 5 C  py              1.6       3.4       3.0       2.3       1.3       0.8
 6 C  s               3.8       0.0       1.5       2.7       0.2       0.7
 6 C  pz              0.1       0.4       1.1      13.3       0.0       0.0
 6 C  px              6.0       0.9       1.1       0.1       2.9       0.1
 6 C  py              0.6       3.2       2.4       0.2       1.6       0.1
 6 C  dyz             0.0       0.0       0.0       0.1       0.0       0.0
 7 C  s               1.0       1.2       0.5       2.3       0.6       0.6
 7 C  pz              4.7       0.7       0.0       0.2       0.0       0.1
 7 C  px              4.3      10.1       0.6       0.1       4.1       0.6
 7 C  py              4.4       1.2       0.3       2.7       0.9       0.5
 7 C  dxz             0.2       0.2       0.0       0.0       0.0       0.0
 8 C  s               9.7       1.5       1.0       1.7       0.4       0.1
 8 C  pz              1.1       1.3       6.1       3.6       4.4       2.9
 8 C  px              0.4       1.5       0.1       1.7       0.6       0.5
 8 C  py              0.1       2.6       2.5       3.0       1.6       0.5
 9 C  s               2.6       4.5       0.0       0.9       0.0       0.2
 9 C  pz              1.3       0.6       8.2       0.4       0.7       5.6
 9 C  px              6.5       0.3       0.0       0.3       0.4       0.9
 9 C  py              0.1       4.6       0.6       0.1       1.5       7.9
10 C  s               1.6       8.7       0.0       0.2       1.6       0.1
10 C  pz              0.2       2.9       0.0       3.1      11.8       2.3
10 C  px              2.2       0.5       0.0       2.6       8.4       1.2
10 C  py              0.2       2.5       0.0       1.1       1.9       0.0
10 C  dxz             0.1       0.1       0.0       0.0       0.0       0.0
11 O  s               1.3       3.4       0.0       0.0       0.6       0.1
11 O  pz              0.0       0.9       0.0       0.6       5.0       0.9
11 O  px              0.6       0.7       0.0       0.6       1.2       0.1
11 O  py              0.1       1.2       0.0       0.2       1.6       0.1
12 H  s               0.1       0.2       2.8       0.6       0.4       0.8
13 H  s               0.0       0.1       1.7       0.7       0.8       0.1
14 H  s               0.0       0.0       0.8       0.0       1.2       3.5
15 H  s               0.2       0.7       3.3       0.0       2.6       7.3
16 H  s               0.4       1.6       4.3       0.3       0.0       1.6
17 H  s               3.9       3.1       0.1       0.1       1.2       2.9
18 H  s               4.0       2.1       0.3       5.2       0.1       0.0
19 H  s               1.7       0.1       0.4       7.4       0.6       0.1
20 H  s               1.9       0.1       2.9       1.2       0.9       0.5
21 H  s               4.8       0.0       4.3       6.3       3.2       0.7
22 H  s               1.5       3.0       0.5       0.0       0.0       6.9
23 H  s               1.4       3.8       1.7       0.7       0.6       0.4
24 H  s               0.1       6.9       0.0       3.1      10.4       1.6

                     24        25        26        27        28        29   
                  -0.40594  -0.40239  -0.39072  -0.38300  -0.36323  -0.35612
                   2.00000   2.00000   2.00000   2.00000   2.00000   2.00000
                  --------  --------  --------  --------  --------  --------
 0 C  s               0.0       0.2       0.0       0.0       0.0       0.0
 0 C  pz              2.0       1.5       3.2       3.8       1.4       1.2
 0 C  px              0.0       4.6       4.4       1.5       1.5       1.4
 0 C  py              3.2       3.2       0.5      19.1      12.9       5.6
 0 C  dyz             0.0       0.0       0.0       0.1       0.0       0.1
 0 C  dxy             0.0       0.0       0.0       0.1       0.1       0.0
 1 C  s               0.0       0.1       0.0       0.0       0.2       0.0
 1 C  pz              0.5       7.9       1.4       0.1       2.9       0.0
 1 C  px              0.2       0.5       4.0       1.3       1.5       0.0
 1 C  py              4.3       0.5       0.1       3.7       1.2       0.2
 1 C  dyz             0.0       0.0       0.0       0.1       0.0       0.0
 2 C  s               0.0       0.0       0.2       0.0       0.0       0.0
 2 C  pz              1.6      11.1       0.3       0.1       0.0       0.0
 2 C  px              1.4       6.2       4.9       1.2       3.2       0.0
 2 C  py              1.9       0.9       0.3       1.4       0.1       0.1
 3 C  s               0.6       0.9       0.5       0.3       0.0       0.1
 3 C  pz              0.1       0.2       2.1       0.1       0.0       0.1
 3 C  px              4.0       3.6       0.0       0.0       0.2       0.3
 3 C  py              5.5       3.1       1.5       0.8       0.9       1.9
 3 C  dxz             0.0       0.0       0.1       0.0       0.0       0.0
 4 H  s               0.2       0.0       2.2       0.1       0.2       0.0
 5 C  s               0.1       0.1       0.1       0.4       0.0       0.2
 5 C  pz              0.3       0.5       2.5       4.2       0.2      12.6
 5 C  px              4.5       0.9       4.3       0.6       0.3       0.0
 5 C  py              6.3       1.4       0.7       0.5       2.0       1.4
 5 C  dyz             0.0       0.0       0.0       0.0       0.0       0.1
 6 C  s               0.0       0.0       0.1       0.2       0.0       0.1
 6 C  pz              0.7       0.3       8.4       0.0       0.0       3.4
 6 C  px              1.1       1.0       0.0       1.6       0.5       0.3
 6 C  py              3.6       1.0       6.6       4.3       3.1       3.0
 7 C  s               0.4       0.0       0.5       0.2       0.3       0.0
 7 C  pz              3.2       2.9       0.4       0.6       0.0       5.2
 7 C  px              3.7       0.5       0.8       0.0       0.0       0.8
 7 C  py              1.2       0.1       8.1       0.0       0.3       0.3
 7 C  dxz             0.0       0.0       0.0       0.0       0.1       0.2
 7 C  dxy             0.0       0.0       0.0       0.0       0.0       0.3
 8 C  s               0.1       0.0       0.3       0.0       0.5       0.4
 8 C  pz              0.9       4.9       3.3       0.3       0.5       1.6
 8 C  px              6.2       2.5       2.5       2.1       0.6       0.6
 8 C  py              4.4       0.5       0.2       0.2       1.4       6.3
 8 C  dxz             0.1       0.0       0.1       0.0       0.1       0.0
 9 C  s               0.0       0.0       0.1       0.0       0.3       0.3
 9 C  pz              0.5       0.1       0.0       7.9      12.8       0.6
 9 C  px              7.7       7.2       1.1       0.1       2.9       0.2
 9 C  py              2.1       3.6       1.8       0.8       0.1       3.3
 9 C  dxz             0.1       0.0       0.2       0.0       0.1       0.0
 9 C  dyz             0.0       0.2       0.0       0.0       0.1       0.0
10 C  s               0.7       0.3       0.2       0.3       0.3       0.3
10 C  pz              3.2       0.1       1.1       1.6       1.2       0.4
10 C  px              0.4       1.7       0.2       0.1       1.3       0.9
10 C  py              0.2       0.2       2.8       0.3       1.0       7.0
11 O  s               2.3       1.1       1.5       1.5       3.4       2.0
11 O  pz              0.0       1.1       2.9       0.2       1.4       5.1
11 O  px              4.9       0.1       2.9       2.6       5.9      10.2
11 O  py              2.5       2.2       0.1       2.9       6.0       0.0
12 H  s               0.4       0.4       2.2       2.9       8.0       0.8
13 H  s               2.4       0.3       0.8      11.2       1.3       4.4
14 H  s               0.0       3.6       0.7       1.3       0.1       0.9
15 H  s               0.5       3.1       0.6       0.0       0.1       0.0
16 H  s               1.9       7.2       1.7       1.1       1.0       0.0
17 H  s               0.6       0.1       3.3       2.0       0.0       5.2
18 H  s               0.8       0.6       0.1       1.7       0.6       2.5
19 H  s               1.1       0.0       6.1       0.2       0.4       0.0
20 H  s               0.2       0.1       0.9       3.9       1.5       0.9
21 H  s               0.8       2.0       1.6       0.9       0.4       3.3
22 H  s               1.0       1.8       0.8       3.3       3.2       1.5
23 H  s               1.6       0.5       1.1       2.5       8.4       0.1
24 H  s               0.5       0.6       0.1       0.6       0.6       1.5

                     30        31        32        33        34        35   
                  -0.35449  -0.34873  -0.34502  -0.33395  -0.32464  -0.30070
                   2.00000   2.00000   2.00000   2.00000   2.00000   2.00000
                  --------  --------  --------  --------  --------  --------
 0 C  s               0.0       0.0       0.0       0.0       0.4       0.0
 0 C  pz              0.4       1.3       0.2       0.0      11.6       2.1
 0 C  px              0.2      10.5       0.4      19.5       1.7       0.0
 0 C  py              2.7       1.7       1.3       0.1       0.1       0.2
 0 C  dz2             0.0       0.0       0.0       0.0       0.1       0.0
 0 C  dxz             0.0       0.1       0.0       0.2       0.0       0.0
 0 C  dx2y2           0.0       0.1       0.0       0.3       0.0       0.0
 1 C  s               0.0       0.4       0.0       0.0       0.3       0.0
 1 C  pz              0.0       0.3       0.4       0.2       6.5       2.5
 1 C  px              0.0       0.5       2.4       2.8       3.7       0.4
 1 C  py              0.1       0.1       0.2       0.0       0.1       1.2
 1 C  dz2             0.0       0.0       0.0       0.1       0.4       0.0
 1 C  dxz             0.0       0.3       0.3       0.1       0.0       0.1
 1 C  dx2y2           0.0       0.0       0.0       0.0       0.2       0.1
 2 C  s               0.0       0.1       0.1       0.1       0.3       0.0
 2 C  pz              0.1       0.4       1.2       9.8       8.6       0.2
 2 C  px              0.2       1.6       5.4       0.3       1.5       0.0
 2 C  py              0.1       0.2       1.3       0.6       0.3       1.4
 2 C  dz2             0.0       0.0       0.0       0.1       0.2       0.0
 2 C  dxz             0.0       0.1       0.1       0.0       0.1       0.0
 3 C  s               0.1       0.6       0.1       0.0       0.1       0.2
 3 C  pz              0.3       0.5       3.5       5.4       0.9       0.1
 3 C  px              0.7       1.7       3.7       0.3       0.3       0.3
 3 C  py              0.3       0.4       3.3       0.9       0.0      14.8
 3 C  dz2             0.0       0.0       0.1       0.1       0.1       0.1
 3 C  dxz             0.0       0.1       0.0       0.1       0.1       0.1
 4 H  s               0.3       0.2       2.0       3.7       0.7       2.2
 5 C  s               0.1       0.1       0.2       0.0       0.0       0.1
 5 C  pz              0.6       0.3       0.2       1.7       7.4       0.0
 5 C  px              1.3       1.9       6.3       0.2       2.5       0.0
 5 C  py              0.2       6.9       0.2       0.0       1.8      14.9
 5 C  dz2             0.0       0.0       0.0       0.0       0.1       0.1
 5 C  dxz             0.0       0.0       0.1       0.1       0.0       0.2
 5 C  dx2y2           0.0       0.0       0.0       0.0       0.1       0.2
 5 C  dxy             0.1       0.0       0.0       0.0       0.0       0.3
 6 C  s               0.1       0.0       0.0       0.0       0.1       0.1
 6 C  pz              2.3       0.1       2.9       2.9       7.5       0.4
 6 C  px              2.9       7.8       6.0       0.0       2.6       0.2
 6 C  py              5.6       1.4       0.5       0.7       2.1      11.0
 6 C  dxz             0.0       0.0       0.1       0.0       0.0       0.1
 6 C  dyz             0.0       0.1       0.1       0.1       0.1       0.0
 6 C  dx2y2           0.0       0.1       0.0       0.0       0.1       0.0
 6 C  dxy             0.1       0.0       0.0       0.0       0.0       0.3
 7 C  s               0.2       0.1       0.7       0.1       0.1       0.1
 7 C  pz              0.9       1.5       1.5       0.8       0.4       4.8
 7 C  px              2.2       0.7       3.4       0.1       0.0       0.3
 7 C  py              0.1       2.4       2.2       0.2       0.9       1.1
 7 C  dz2             0.1       0.0       0.1       0.0       0.1       0.1
 7 C  dxz             0.0       0.2       0.0       0.0       0.0       0.1
 7 C  dx2y2           0.1       0.0       0.1       0.0       0.0       0.0
 8 C  s               0.1       0.3       0.0       0.0       0.0       0.0
 8 C  pz              3.0       1.2       0.1       0.0       0.0       1.2
 8 C  px              8.2       0.0       0.3       1.3       0.6       1.9
 8 C  py              0.1       0.3       0.0       0.1       0.3       1.2
 8 C  dz2             0.1       0.0       0.0       0.0       0.0       0.1
 8 C  dyz             0.2       0.0       0.0       0.0       0.0       0.0
 8 C  dx2y2           0.2       0.0       0.1       0.0       0.0       0.0
 8 C  dxy             0.0       0.0       0.0       0.0       0.0       0.1
 9 C  s               0.4       0.0       0.1       0.0       0.0       0.0
 9 C  pz              0.4       1.1       2.2       1.6       0.5       0.3
 9 C  px             11.1       0.5       0.3       0.2       0.6       0.0
 9 C  py              6.5       2.0       5.0       0.2       0.3       6.6
 9 C  dxz             0.1       0.0       0.0       0.0       0.0       0.3
 9 C  dx2y2           0.0       0.1       0.0       0.0       0.0       0.1
10 C  s               0.5       0.1       0.2       0.0       0.0       0.1
10 C  pz              1.5       2.2       9.5       0.9       0.5       0.4
10 C  px              3.4       6.1       0.1       1.1       0.3       0.2
10 C  py              1.7       5.0       4.4       4.0       2.1       0.1
10 C  dxz             0.0       0.0       0.2       0.0       0.0       0.1
11 O  s               3.1       0.5       0.0       0.1       0.1       0.1
11 O  pz              3.6       0.8       8.7       2.9       2.2       0.2
11 O  px              3.4       1.0       0.1       3.3       1.9       0.2
11 O  py              9.8      13.3       7.2       3.1       1.4       2.3
12 H  s               0.5       5.3       0.3       4.0       0.2       0.0
13 H  s               1.6       0.3       0.4       0.9       1.5       1.0
14 H  s               0.2       4.6       0.5      11.9       2.4       0.0
15 H  s               0.1       0.2       0.6       6.0       6.5       0.5
16 H  s               0.2       1.3       4.2       1.6       0.8       0.4
17 H  s               0.6       1.0       0.9       0.4       0.4       3.5
18 H  s               0.4       1.2       0.2       0.4       5.8       4.7
19 H  s               0.2       0.3       0.4       2.4       6.2       1.7
20 H  s               6.0       3.2       0.2       0.0       0.1       6.0
21 H  s               3.3       0.4       0.1       0.1       0.0       1.3
22 H  s               0.5       2.1       0.2       0.9       0.0       2.0
23 H  s               4.7       0.3       1.2       0.3       0.0       1.7
24 H  s               1.1       0.1       1.3       0.3       0.1       0.3

                     36        37        38        39        40        41   
                  -0.28519  -0.28284  -0.23834  -0.21934  -0.20070  -0.09017
                   2.00000   2.00000   2.00000   2.00000   2.00000   0.00000
                  --------  --------  --------  --------  --------  --------
 0 C  s               0.1       0.0       0.0       0.0       0.0       0.0
 0 C  pz              4.2       2.7       0.1       0.1       0.0       0.0
 0 C  px              0.1       0.3       0.3       0.0       0.0       0.1
 0 C  py              1.1       0.2       0.3       2.1       0.0       0.0
 0 C  dyz             0.0       0.0       0.0       0.4       0.0       0.0
 1 C  s               0.4       0.0       0.1       0.0       0.0       0.0
 1 C  pz              5.1       1.7       0.5       1.9       0.0       0.0
 1 C  px              6.3       0.0       0.9       1.1       0.0       0.1
 1 C  py              4.7       0.1       1.6      24.5       0.0       0.0
 1 C  dz2             0.1       0.2       0.0       0.0       0.0       0.0
 1 C  dxz             0.5       0.0       0.0       0.0       0.0       0.0
 1 C  dyz             0.0       0.0       0.0       0.1       0.0       0.0
 1 C  dxy             0.1       0.0       0.0       0.5       0.0       0.0
 2 C  s               0.1       0.2       0.0       0.0       0.0       0.0
 2 C  pz              2.9       0.1       0.2       3.5       0.0       0.0
 2 C  px              3.4       0.5       0.0       2.1       0.0       0.0
[...]
 6 C  pz              0.0       0.0       0.1       0.0       0.6       0.0
 6 C  px              1.3       0.0       0.1       0.0       0.4       0.0
 6 C  py              0.1       0.0       0.3       0.0       0.2       0.0
 6 C  dz2             0.5       0.0       2.0       0.0       0.8       0.1
 6 C  dxz             1.7       0.0       0.2       0.0       3.9       0.0
 6 C  dyz             0.5       0.0       1.2       0.0       0.5       0.0
 6 C  dx2y2           3.0       0.1       2.5       0.1       0.0       0.0
 6 C  dxy             1.1       0.0       0.9       0.0       2.0       0.0
 7 C  s               1.2       0.0       2.0       0.0       0.1       0.0
 7 C  pz              0.0       0.0       1.5       0.0       0.2       0.0
 7 C  px              0.3       0.0       0.4       0.0       0.1       0.0
 7 C  py              0.1       0.0       1.4       0.0       0.1       0.0
 7 C  dz2             0.3       0.2       0.0       0.1      12.9       0.8
 7 C  dxz             0.0       0.1      11.3       0.1       1.0       0.0
 7 C  dyz             1.2       0.3       3.7       0.0       6.8       0.1
 7 C  dx2y2           0.2       0.2       0.8       0.1       6.8       0.1
 7 C  dxy             2.6       0.0       5.9       0.1       8.5       0.4
 8 C  s               1.6       0.0       2.0       0.0       0.1       0.0
 8 C  pz              0.4       0.0       0.6       0.0       0.1       0.0
 8 C  px              0.2       0.0       1.3       0.1       0.3       0.0
 8 C  py              0.1       0.0       1.3       0.0       0.3       0.0
 8 C  dz2             0.0       0.1       1.9       0.0       7.6       0.0
 8 C  dxz             0.1       0.1       6.1       0.1       0.2       0.0
 8 C  dyz             0.5       0.0       1.4       0.1       4.8       0.0
 8 C  dx2y2           1.0       0.0       0.3       0.2       7.4       0.0
 8 C  dxy             0.6       0.3      10.3       0.0       4.3       0.1
 9 C  s               0.0       0.0       0.0       0.0       0.7       0.0
 9 C  pz              0.4       0.0       0.0       0.1       0.1       0.0
 9 C  px              0.5       0.0       0.3       0.1       0.7       0.0
 9 C  py              0.3       0.0       0.0       0.2       0.0       0.0
 9 C  dz2             0.2       0.3       0.3       0.0       0.2       0.0
 9 C  dxz             0.0       0.2       3.0       0.1       4.0       0.0
 9 C  dyz             1.8       1.1       0.4       0.7       0.3       0.0
 9 C  dx2y2           2.9       0.0       0.1       0.4       2.4       0.0
 9 C  dxy             1.8       0.0       4.0       0.4       0.1       0.0
10 C  s               0.1       0.0       0.0       0.0       1.0       0.0
10 C  pz              0.0       0.0       0.1       0.0       0.4       0.3
10 C  px              0.1       0.0       0.2       0.0       0.7       0.1
10 C  py              0.0       0.0       0.0       0.0       0.0       0.6
10 C  dz2             0.0       0.0       0.0       0.0       0.2       2.8
10 C  dxz             2.0       0.1       2.5       0.1       4.9       5.4
10 C  dyz             0.6       0.0       0.4       0.0       0.1       0.1
10 C  dx2y2           1.0       0.0       0.9       0.0       1.5       9.1
10 C  dxy             0.0       0.0       0.3       0.0       1.3       1.4
11 O  s               0.0       0.0       0.2       0.0       0.7       0.0
11 O  pz              0.0       0.0       0.2       0.0       0.1       0.4
11 O  px              0.0       0.0       0.0       0.0       0.3       0.2
11 O  py              0.0       0.0       0.1       0.0       0.2       0.7
11 O  dz2             0.3       0.1       4.2       0.0       0.3      15.9
11 O  dxz            10.8       0.0       0.1       0.0       0.1      19.9
11 O  dyz             8.0       0.0       9.3       0.1       1.1       0.1
11 O  dx2y2           5.0       0.2       1.2       0.0       0.2      37.5
11 O  dxy             0.2       0.0       0.2       0.0       1.6       3.6
14 H  s               0.0       0.0       0.0       0.1       0.0       0.0
15 H  s               0.0       0.1       0.0       0.8       0.0       0.0
16 H  s               0.0       0.0       0.0       0.8       0.0       0.0
20 H  s               0.1       0.0       0.0       0.0       0.2       0.0
21 H  s               0.0       0.0       0.3       0.0       0.7       0.0
23 H  s               0.0       0.0       0.1       0.0       0.2       0.0
24 H  s               0.2       0.0       0.0       0.0       0.0       0.0

                    180       181   
                   3.22443   3.51034
                   0.00000   0.00000
                  --------  --------
 6 C  dz2             0.1       0.0
 6 C  dxz             0.3       0.0
 6 C  dyz             0.3       0.1
 6 C  dx2y2           0.3       0.0
 7 C  px              1.1       0.1
 7 C  py              0.2       0.1
 7 C  dz2             0.0       0.2
 7 C  dxz             5.9       0.7
 7 C  dyz             1.0       0.0
 7 C  dx2y2           2.1       0.0
 7 C  dxy             1.1       0.4
 8 C  s               0.5       0.1
 8 C  pz              0.1       0.0
 8 C  px              0.3       0.0
 8 C  py              0.3       0.0
 8 C  dz2             0.1       0.1
 8 C  dxz             0.7       0.0
 8 C  dx2y2           0.0       0.1
 8 C  dxy             0.7       0.0
 9 C  dxz             0.1       0.0
 9 C  dxy             0.1       0.0
10 C  s               0.1       7.2
10 C  pz              0.3       1.2
10 C  px              0.2       2.7
10 C  py              0.3       2.6
10 C  dz2             7.2       0.9
10 C  dxz             0.1       1.6
10 C  dyz             4.9       0.7
10 C  dx2y2           7.6       0.1
10 C  dxy             4.1       4.0
11 O  s               0.3       6.1
11 O  pz              0.3       0.9
11 O  px              0.8       1.4
11 O  py              0.0       1.7
11 O  dz2            17.7       1.6
11 O  dxz             0.1      16.9
11 O  dyz            10.7      18.8
11 O  dx2y2          17.6       0.4
11 O  dxy            11.1      29.0
24 H  s               0.5       0.0


                      *****************************
                      * MAYER POPULATION ANALYSIS *
                      *****************************

  NA   - Mulliken gross atomic population
  ZA   - Total nuclear charge
  QA   - Mulliken gross atomic charge
  VA   - Mayer's total valence
  BVA  - Mayer's bonded valence
  FA   - Mayer's free valence

  ATOM       NA         ZA         QA         VA         BVA        FA
  0 C      6.2347     6.0000    -0.2347     3.9205     3.9205    -0.0000
  1 C      6.0605     6.0000    -0.0605     4.2921     4.2921     0.0000
  2 C      6.2285     6.0000    -0.2285     3.9350     3.9350    -0.0000
  3 C      6.1300     6.0000    -0.1300     4.1322     4.1322     0.0000
  4 H      0.9471     1.0000     0.0529     0.9572     0.9572     0.0000
  5 C      6.1391     6.0000    -0.1391     4.1229     4.1229     0.0000
  6 C      6.0431     6.0000    -0.0431     3.9966     3.9966    -0.0000
  7 C      6.0609     6.0000    -0.0609     3.9367     3.9367     0.0000
  8 C      6.1802     6.0000    -0.1802     3.9793     3.9793    -0.0000
  9 C      6.0402     6.0000    -0.0402     3.9548     3.9548     0.0000
 10 C      5.9655     6.0000     0.0345     4.1016     4.1016    -0.0000
 11 O      8.1736     8.0000    -0.1736     2.2957     2.2957     0.0000
 12 H      0.8826     1.0000     0.1174     0.9588     0.9588     0.0000
 13 H      0.8806     1.0000     0.1194     0.9507     0.9507     0.0000
 14 H      0.8878     1.0000     0.1122     0.9668     0.9668     0.0000
 15 H      0.9149     1.0000     0.0851     0.9499     0.9499    -0.0000
 16 H      0.9188     1.0000     0.0812     0.9493     0.9493    -0.0000
 17 H      0.9099     1.0000     0.0901     0.9491     0.9491     0.0000
 18 H      0.9065     1.0000     0.0935     0.9574     0.9574     0.0000
 19 H      0.9087     1.0000     0.0913     0.9480     0.9480    -0.0000
 20 H      0.9042     1.0000     0.0958     0.9807     0.9807    -0.0000
 21 H      0.9312     1.0000     0.0688     0.9646     0.9646     0.0000
 22 H      0.8840     1.0000     0.1160     0.9456     0.9456     0.0000
 23 H      0.8990     1.0000     0.1010     0.9600     0.9600     0.0000
 24 H      0.9685     1.0000     0.0315     0.9587     0.9587     0.0000

  Mayer bond orders larger than 0.100000
B(  0-C ,  1-C ) :   1.1027 B(  0-C , 12-H ) :   0.9373 B(  0-C , 13-H ) :   0.9262 
B(  0-C , 14-H ) :   0.9304 B(  1-C ,  2-C ) :   2.0386 B(  1-C ,  3-C ) :   1.0305 
B(  2-C , 15-H ) :   0.9085 B(  2-C , 16-H ) :   0.9151 B(  3-C ,  4-H ) :   0.8719 
B(  3-C ,  5-C ) :   1.1074 B(  3-C ,  9-C ) :   1.0523 B(  5-C ,  6-C ) :   1.1192 
B(  5-C , 17-H ) :   0.9142 B(  5-C , 18-H ) :   0.9091 B(  6-C ,  7-C ) :   1.0937 
B(  6-C , 19-H ) :   0.8826 B(  6-C , 20-H ) :   0.8911 B(  7-C ,  8-C ) :   1.7241 
B(  7-C , 10-C ) :   1.0349 B(  8-C ,  9-C ) :   1.0959 B(  8-C , 11-O ) :   0.1046 
B(  8-C , 21-H ) :   0.9314 B(  9-C , 22-H ) :   0.8739 B(  9-C , 23-H ) :   0.9050 
B( 10-C , 11-O ) :   2.0991 B( 10-C , 24-H ) :   0.9170 

-------
TIMINGS
-------

Total SCF time: 0 days 0 hours 0 min 15 sec 

Total time                  ....      15.263 sec
Sum of individual times     ....      14.625 sec  ( 95.8%)

SCF preparation             ....       0.212 sec  (  1.4%)
Fock matrix formation       ....      13.261 sec  ( 86.9%)
  Startup                   ....       0.065 sec  (  0.5% of F)
  Split-RI-J                ....       5.674 sec  ( 42.8% of F)
  XC integration            ....       6.882 sec  ( 51.9% of F)
    Basis function eval.    ....       2.373 sec  ( 34.5% of XC)
    Density eval.           ....       1.021 sec  ( 14.8% of XC)
    XC-Functional eval.     ....       0.499 sec  (  7.3% of XC)
    XC-Potential eval.      ....       1.522 sec  ( 22.1% of XC)
Diagonalization             ....       0.000 sec  (  0.0%)
Density matrix formation    ....       0.241 sec  (  1.6%)
Total Energy calculation    ....       0.044 sec  (  0.3%)
Population analysis         ....       0.122 sec  (  0.8%)
Orbital Transformation      ....       0.071 sec  (  0.5%)
Orbital Orthonormalization  ....       0.000 sec  (  0.0%)
DIIS solution               ....       0.492 sec  (  3.2%)
  MO trafo                  ....       0.000 sec  (  0.0 % of DIIS)
  Orb grad                  ....       0.000 sec  (  0.0 % of DIIS)
  Energy W gradient         ....       0.000 sec  (  0.0 % of DIIS)
  DIIS error                ....       0.009 sec  (  1.9 % of DIIS)
  DIIS work                 ....       0.420 sec  ( 85.3 % of DIIS)
  Form Q                    ....       0.000 sec  (  0.0 % of DIIS)
  Form QpQm                 ....       0.000 sec  (  0.0 % of DIIS)
  Exp/Cayley                ....       0.000 sec  (  0.0 % of DIIS)
  Orb update                ....       0.000 sec  (  0.0 % of DIIS)
  Wake-sleep                ....       0.024 sec  (  4.8 % of DIIS)
SOSCF solution              ....       0.182 sec  (  1.2%)
  MO trafo                  ....       0.074 sec  ( 40.4 % of SOSCF)
  Orb grad                  ....       0.003 sec  (  1.6 % of SOSCF)
  Rot update                ....       0.047 sec  ( 25.9 % of SOSCF)
  Step                      ....       0.058 sec  ( 32.0 % of SOSCF)
Finished LeanSCF after  15.4 sec

Maximum memory used throughout the entire LEANSCF-calculation: 17.6 MB


-------------------------------------------------------------------------------
                          DFT DISPERSION CORRECTION                            
                                                                               
                                DFTD4 V3.4.0                                   
-------------------------------------------------------------------------------
The PBE functional is recognized
Active option DFTDOPT                   ...         5   

-------------------------   ----------------
Dispersion correction           -0.026806010
-------------------------   ----------------

------------------   -----------------
gCP correction             0.102517521
------------------   -----------------

-------------------------   --------------------
FINAL SINGLE POINT ENERGY      -463.621218999610
-------------------------   --------------------


------------------------------------------------------------------------------
                              ORCA PROPERTY CALCULATIONS
------------------------------------------------------------------------------

GBWName                                 ... sp.gbw
Number of atoms                         ...     25
Number of basis functions               ...    182
Max core memory                         ...   1024 MB

Electric properties:
Dipole moment                           ... YES
Quadrupole moment                       ...  NO
Static polarizability (Dipole/Dipole)   ...  NO
Static polarizability (Dipole/Quad.)    ...  NO
Static polarizability (Quad./Quad.)     ...  NO
Static polarizability (Velocity)        ...  NO

Atomic electric properties:
Dipole moment                           ...  NO
Quadrupole moment                       ...  NO
Static polarizability                   ...  NO

Choice of electric origin               ... Center of mass
Position of electric origin             ...     0.000034     0.000005     0.000003

General magnetic properties:
Magnetizability                         ...  NO

EPR properties:
g-Tensor (aka g-matrix)                 ...  NO
Zero-Field splitting spin-orbit         ...  NO
Zero-field splitting spin-spin          ...  NO
Hyperfine couplings                     ...  NO (   0 nuclei)
Quadrupole couplings                    ...  NO (   0 nuclei)
Contact density                         ...  NO (   0 nuclei)

NMR properties:
Chemical shifts                         ...  NO (   0 nuclei)
Spin-rotation constants                 ...  NO (   0 nuclei)
Spin-spin couplings                     ...  NO (   0 nuclei,    0 pairs)

Choice of magnetic origin               ... GIAO
Position of magnetic origin             ...     0.000000     0.000000     0.000000

Properties with geometric perturbations:
SCF Hessian                             ...  NO
IR spectrum                             ...  NO
VCD spectrum                            ...  NO
X-ray spectroscopy properties:
SCF XES/XAS/RIXS spectra                ...  NO


-------------
DIPOLE MOMENT
-------------

Method             : SCF
Type of density    : Electron Density
Multiplicity       :   1
Irrep              :   0
Energy             :  -463.6969305106632646 Eh
Relativity type    : 
Basis              : AO
                                X                 Y                 Z
Electronic contribution:    -10.022027808       0.035843322      -1.180479660
Nuclear contribution   :     11.086291596       0.662595960       1.467523247
                        -----------------------------------------
Total Dipole Moment    :      1.064263789       0.698439282       0.287043587
                        -----------------------------------------
Magnitude (a.u.)       :      1.304940176
Magnitude (Debye)      :      3.316894330



--------------------
Rotational spectrum 
--------------------
 
Rotational constants in cm-1:             0.086458             0.019818             0.018884 
Rotational constants in MHz :          2591.934410           594.141205           566.124062 

Dipole components along the rotational axes: 
x,y,z [a.u.] :    -1.094937    -0.566620    -0.427694 
x,y,z [Debye]:    -2.783110    -1.440234    -1.087113 

 

Dipole moment calculation done in   0.0 sec 

Maximum memory used throughout the entire PROP-calculation: 11.2 MB

--------------------------------
SUGGESTED CITATIONS FOR THIS RUN
--------------------------------

Below you find a list of papers that are relevant to this ORCA run
We neither can nor want to force you to cite these papers, but we appreciate if you do
You receive ORCA, which is the product of decades of hard work by many enthusiastic individuals, for free
The only thing we kindly ask in return is that you cite our papers,
We deeply appreciate it, if you show your appreciation for ORCA by not just citing the generic ORCA reference.

Please note that relegating all ORCA citations to the supporting information does *not* help us.
SI sections are not indexed - citations you put there will not count into any citation statistics
But we need these citations in order to attract the funding resources that allow us to do what we are doing

Therefore, if you are a happy ORCA user, please consider citing a few of the papers listed below in the main body of your paper

In addition to the list printed below, the program has created the file sp.bibtex that contains the list in bibtex format
You can import this file easily into all common literature databanks and citation aid programs


List of essential papers. We consider these as the minimum necessary citations

  1. Neese,F.
     Software update: the ORCA program system, version 5.0
     WIRES Comput. Molec. Sci., 2022 12(1)e1606
     doi.org/10.1002/wcms.1606

List of papers to cite with high priority. The work reported in these papers was absolutely
necessary for this run to complete.
Our perspective: the developers of density functionals and basis sets usually get cited in chemistry papers
Good! But without the algorithms to do something with them, the functionals or basis sets would not do anything.
Hence, in our opinion, the algorithm design and method developments papers are equally worthy of getting cited

  1. Neese,F.
     An improvement of the resolution of the identity approximation for the formation of the Coulomb matrix
     J. Comp. Chem., 2003 24(14)1740-1747
     doi.org/10.1002/jcc.10318
  2. Neese,F.
     The SHARK Integral Generation and Digestion System
     J. Comp. Chem., 2022  1-16
     doi.org/10.1002/jcc.26942
  3. Caldeweyher,E.; Bannwarth,C.; Grimme,S.
     Extension of the D3 dispersion coefficient model
     J. Chem. Phys., 2017 147 034112-XXXX
     doi.org/10.1063/1.4993215
  4. Caldeweyher,E.; Ehlert,S.; Hansen,A.; Neugebauer,H.; Spicher,S.; Bannwarth,C.; Grimme,S.
     A generally applicable atomic-charge dependent London dispersion correction
     J. Chem. Phys., 2019 150 154122-XXXX
     doi.org/10.1063/1.5090222
  5. Caldeweyher,E.; Mewes,J.; Ehlert,S.; Grimme,S.
     Extension and evaluation of the D4 London-dispersion model for periodic systems
     Phys. Chem. Chem. Phys., 2020 22(16)8499-8512
     doi.org/10.1039/D0CP00502A

List of suggested additional citations. These are papers that are important in the 'surrounding' of 
of this run, or papers that preceded the highly important papers. If you like your results we are grateful for a citation.

  1. Neese,F.
     The ORCA program system
     WIRES Comput. Molec. Sci., 2012 2(1)73-78
     doi.org/10.1002/wcms.81
  2. Neese,F.
     Software update: the ORCA program system, version 4.0
     WIRES Comput. Molec. Sci., 2018 8(1)1-6
     doi.org/10.1002/wcms.1327
  3. Neese,F.; Wennmohs,F.; Becker,U.; Riplinger,C.
     The ORCA quantum chemistry program package
     J. Chem. Phys., 2020 152 Art. No. L224108
     doi.org/10.1063/5.0004608

List of optional additional citations

  1. Neese,F.
     Approximate second-order SCF convergence for spin unrestricted wavefunctions
     Chem. Phys. Lett., 2000 325(1-3)93-98
     doi.org/10.1016/s0009-2614(00)00662-x

Timings for individual modules:

Sum of individual times          ...       18.085 sec (=   0.301 min)
Startup calculation              ...        1.248 sec (=   0.021 min)   6.9 %
SCF iterations                   ...       16.726 sec (=   0.279 min)  92.5 %
Property calculations            ...        0.112 sec (=   0.002 min)   0.6 %
                             ****ORCA TERMINATED NORMALLY****
TOTAL RUN TIME: 0 days 0 hours 0 minutes 18 seconds 856 msec
