      -----------------------------------------------------------      
     |                   =====================                   |     
     |                           x T B                           |     
     |                   =====================                   |     
     |                         S. Grimme                         |     
     |          Mulliken Center for Theoretical Chemistry        |     
     |                    University of Bonn                     |     
      -----------------------------------------------------------      

   * xtb version 6.7.1 (edcfbbe) compiled by 'albert@albert-system' on 2024-07-22

   xtb is free software: you can redistribute it and/or modify it under
   the terms of the GNU Lesser General Public License as published by
   the Free Software Foundation, either version 3 of the License, or
   (at your option) any later version.
   
   xtb is distributed in the hope that it will be useful,
   but WITHOUT ANY WARRANTY; without even the implied warranty of
   MERCHANTABILITY or FITNESS FOR A PARTICULAR PURPOSE.  See the
   GNU Lesser General Public License for more details.
   
   Cite this work as:
   * C. Bannwarth, E. Caldeweyher, S. Ehlert, A. Hansen, P. Pracht,
     J. Seibert, S. Spicher, S. Grimme, WIREs Comput. Mol. Sci., 2020, 11,
     e01493. DOI: 10.1002/wcms.1493
   
   for GFN2-xTB:
   * C. Bannwarth, S. Ehlert and S. Grimme., J. Chem. Theory Comput., 2019,
     15, 1652-1671. DOI: 10.1021/acs.jctc.8b01176
   for GFN1-xTB:
   * S. Grimme, C. Bannwarth, P. Shushkov, J. Chem. Theory Comput., 2017,
     13, 1989-2009. DOI: 10.1021/acs.jctc.7b00118
   for GFN0-xTB:
   * P. Pracht, E. Caldeweyher, S. Ehlert, S. Grimme, ChemRxiv, 2019, preprint.
     DOI: 10.26434/chemrxiv.8326202.v1
   for GFN-FF:
   * S. Spicher and S. Grimme, Angew. Chem. Int. Ed., 2020, 59, 15665-15673.
     DOI: 10.1002/anie.202004239
   
   for ALPB and GBSA implicit solvation:
   * S. Ehlert, M. Stahn, S. Spicher, S. Grimme, J. Chem. Theory Comput.,
     2021, 17, 4250-4261. DOI: 10.1021/acs.jctc.1c00471
   
   for ddCOSMO and CPCM-X implicit solvation:
   * M. Stahn, S. Ehlert, S. Grimme, J. Phys. Chem. A,
     2023, XX, XXXX-XXXX. DOI: 10.1021/acs.jpca.3c04382
   
   for DFT-D4:
   * E. Caldeweyher, C. Bannwarth and S. Grimme, J. Chem. Phys., 2017,
     147, 034112. DOI: 10.1063/1.4993215
   * E. Caldeweyher, S. Ehlert, A. Hansen, H. Neugebauer, S. Spicher,
     C. Bannwarth and S. Grimme, J. Chem. Phys., 2019, 150, 154122.
     DOI: 10.1063/1.5090222
   * E. Caldeweyher, J.-M. Mewes, S. Ehlert and S. Grimme, Phys. Chem. Chem. Phys.
     2020, 22, 8499-8512. DOI: 10.1039/D0CP00502A
   
   for sTDA-xTB:
   * S. Grimme and C. Bannwarth, J. Chem. Phys., 2016, 145, 054103.
     DOI: 10.1063/1.4959605
   
   in the mass-spec context:
   * V. Asgeirsson, C. Bauer and S. Grimme, Chem. Sci., 2017, 8, 4879.
     DOI: 10.1039/c7sc00601b
   * J. Koopman and S. Grimme, ACS Omega 2019, 4, 12, 15120-15133.
     DOI: 10.1021/acsomega.9b02011
   
   for metadynamics refer to:
   * S. Grimme, J. Chem. Theory Comput., 2019, 155, 2847-2862
     DOI: 10.1021/acs.jctc.9b00143
   
   for SPH calculations refer to:
   * S. Spicher and S. Grimme, J. Chem. Theory Comput., 2021, 17, 1701-1714
     DOI: 10.1021/acs.jctc.0c01306
   
   for ONIOM refer to:
   * C. Plett, A. Katbashev, S. Ehlert, S. Grimme, M. Bursch,
     Phys. Chem. Chem. Phys., 2023, 25, 17860-17868. DOI: 10.1039/D3CP02178E
   
   for DIPRO refer to:
   * J. Kohn, N. Gildemeister, S. Grimme, D. Fazzi, A. Hansen,
     J. Chem. Phys., 2023, just accepted.
   
   for PTB refer to:
   * S. Grimme, M. Mueller, A. Hansen, J. Chem. Phys., 2023, 158, 124111.
     DOI: 10.1063/5.0137838
   
   with help from (in alphabetical order)
   P. Atkinson, C. Bannwarth, F. Bohle, G. Brandenburg, E. Caldeweyher
   M. Checinski, S. Dohm, S. Ehlert, S. Ehrlich, I. Gerasimov, C. Hölzer
   A. Katbashev, J. Kohn, J. Koopman, C. Lavigne, S. Lehtola, F. März, M. Müller,
   F. Musil, H. Neugebauer, J. Pisarek, C. Plett, P. Pracht, F. Pultar,
   J. Seibert, P. Shushkov, S. Spicher, M. Stahn, M. Steiner, T. Strunk,
   J. Stückrath, T. Rose, and J. Unsleber
   
 * started run on 2025/04/07 at 10:41:58.326     
   ID    Z sym.   atoms
    1    6 C      1-3, 5, 6
    2    8 O      4
    3    1 H      7-16

           -------------------------------------------------
          |                Calculation Setup                |
           -------------------------------------------------

          program call               : /srv/scratch/z5358697/.xtb/bin/xtb xtb_opt.coord --opt normal --orca -I xtb_opt-xcontrol-inp
          hostname                   : k155
          coordinate file            : xtb_opt.coord
          omp threads                :                     7

           -------------------------------------------------
          |                   Orca driver                   |
           -------------------------------------------------
orca executable           : /apps/z_install_tree/linux-rocky8-ivybridge/gcc-12.2.0/orca-6.0.0-srtngmq3qlimg2qxbl6avaaiffipurdx/bin/orca
orca input file           : xtb_opt.inp
orca input line           : 
orca parallel             : true
orca number of threads    : 7
                         * ORCA takes the control...
  ------------------------------------------------------------------------

                                 *****************
                                 * O   R   C   A *
                                 *****************

                                            #,                                       
                                            ###                                      
                                            ####                                     
                                            #####                                    
                                            ######                                   
                                           ########,                                 
                                     ,,################,,,,,                         
                               ,,#################################,,                 
                          ,,##########################################,,             
                       ,#########################################, ''#####,          
                    ,#############################################,,   '####,        
                  ,##################################################,,,,####,       
                ,###########''''           ''''###############################       
              ,#####''   ,,,,##########,,,,          '''####'''          '####       
            ,##' ,,,,###########################,,,                        '##       
           ' ,,###''''                  '''############,,,                           
         ,,##''                                '''############,,,,        ,,,,,,###''
      ,#''                                            '''#######################'''  
     '                                                          ''''####''''         
             ,#######,   #######,   ,#######,      ##                                
            ,#'     '#,  ##    ##  ,#'     '#,    #''#        ,####,   ,####,        
            ##       ##  ##   ,#'  ##            #'  '#       #'       #'  '#        
            ##       ##  #######   ##           ,######,      #####,   #    #        
            '#,     ,#'  ##    ##  '#,     ,#' ,#      #,     #,   #   #,  ,#        
             '#######'   ##     ##  '#######'  #'      '#     '####' # '####'        



                #########################################################
                #                        -***-                          #
                #          Department of theory and spectroscopy        #
                #                                                       #
                #                      Frank Neese                      #
                #                                                       #
                #     Directorship, Architecture, Infrastructure        #
                #                    SHARK, DRIVERS                     #
                #        Core code/Algorithms in most modules           #
                #                                                       #
                #        Max Planck Institute fuer Kohlenforschung      #
                #                Kaiser Wilhelm Platz 1                 #
                #                 D-45470 Muelheim/Ruhr                 #
                #                      Germany                          #
                #                                                       #
                #                  All rights reserved                  #
                #                        -***-                          #
                #########################################################


                         Program Version 6.0.0  -   RELEASE  -


 With contributions from (in alphabetic order):
   Daniel Aravena         : Magnetic Suceptibility
   Michael Atanasov       : Ab Initio Ligand Field Theory (pilot matlab implementation)
   Alexander A. Auer      : GIAO ZORA, VPT2 properties, NMR spectrum
   Ute Becker             : All parallelization in ORCA, NUMFREQ, NUMCALC
   Giovanni Bistoni       : ED, misc. LED, open-shell LED, HFLD
   Martin Brehm           : Molecular dynamics
   Dmytro Bykov           : pre 5.0 version of the SCF Hessian
   Marcos Casanova-Páez   : Triplet and SCS-CIS(D). UHF-(DLPNO)-IP/EA/STEOM-CCSD. UHF-CVS-IP/STEOM-CCSD
   Vijay G. Chilkuri      : MRCI spin determinant printing, contributions to CSF-ICE
   Pauline Colinet        : FMM embedding
   Dipayan Datta          : RHF DLPNO-CCSD density
   Achintya Kumar Dutta   : EOM-CC, STEOM-CC
   Nicolas Foglia         : Exact transition moments, OPA infrastructure, MCD improvements
   Dmitry Ganyushin       : Spin-Orbit,Spin-Spin,Magnetic field MRCI
   Miquel Garcia          : C-PCM and meta-GGA Hessian, CCSD/C-PCM, Gaussian charge scheme
   Tiago L. C. Gouveia    : GS-ROHF, GS-ROCIS
   Yang Guo               : DLPNO-NEVPT2, F12-NEVPT2, CIM, IAO-localization
   Andreas Hansen         : Spin unrestricted coupled pair/coupled cluster methods
   Ingolf Harden          : AUTO-CI MPn and infrastructure 
   Benjamin Helmich-Paris : MC-RPA, TRAH-(SCF,CASSCF), AVAS, COSX integrals, SCF dyn. polar.
   Lee Huntington         : MR-EOM, pCC
   Robert Izsak           : Overlap fitted RIJCOSX, COSX-SCS-MP3, EOM
   Riya Kayal             : Wick's Theorem for AUTO-CI, AUTO-CI UHF-CCSDT
   Emily Kempfer          : AUTO-CI, RHF CISDT and CCSDT
   Christian Kollmar      : KDIIS, OOCD, Brueckner-CCSD(T), CCSD density, CASPT2, CASPT2-K, improved NEVPT2
   Axel Koslowski         : Symmetry handling
   Simone Kossmann        : Meta GGA functionals, TD-DFT gradient, OOMP2, (MP2 Hessian; deprecated post 5.0)
   Lucas Lang             : DCDCAS
   Marvin Lechner         : AUTO-CI (C++ implementation), FIC-MRCC
   Spencer Leger          : CASSCF response
   Dagmar Lenk            : GEPOL surface, SMD, ORCA-2-JSON
   Dimitrios Liakos       : Extrapolation schemes; Compound Job, initial MDCI parallelization
   Dimitrios Manganas     : Further ROCIS development; embedding schemes. LFT, Crystal Embedding
   Dimitrios Pantazis     : SARC Basis sets
   Anastasios Papadopoulos: AUTO-CI, single reference methods and gradients
   Taras Petrenko         : pre 6.0 DFT Hessian and TD-DFT gradient, (ASA, deprecated), ECA, 1-Electron XAS/XES, NRVS
   Peter Pinski           : DLPNO-MP2, DLPNO-MP2 Gradient
   Christoph Reimann      : Effective Core Potentials
   Marius Retegan         : Local ZFS, SOC
   Christoph Riplinger    : Optimizer, TS searches, QM/MM, DLPNO-CCSD(T), (RO)-DLPNO pert. Triples
   Michael Roemelt        : Original ROCIS implementation
   Masaaki Saitow         : Open-shell DLPNO-CCSD energy and density
   Barbara Sandhoefer     : DKH picture change effects
   Kantharuban Sivalingam : CASSCF convergence/infrastructure, NEVPT2 and variants, FIC-MRCI
   Bernardo de Souza      : ESD, SOC TD-DFT
   Georgi Stoychev        : AutoAux, RI-MP2 NMR, DLPNO-MP2 response, X2C
   Van Anh Tran           : RI-MP2 g-tensors
   Willem Van den Heuvel  : Paramagnetic NMR
   Zikuan Wang            : NOTCH, Electric field optimization 
   Frank Wennmohs         : Technical directorship and infrastructure
   Hang Xu                : AUTO-CI-Response properties 


 We gratefully acknowledge several colleagues who have allowed us to
 interface, adapt or use parts of their codes:
   Stefan Grimme, W. Hujo, H. Kruse, P. Pracht,  : VdW corrections, initial TS optimization,
                  C. Bannwarth, S. Ehlert,         DFT functionals, gCP, sTDA/sTD-DF
                  L. Wittmann, M. Mueller
   Ed Valeev, F. Pavosevic, A. Kumar             : LibInt (2-el integral package), F12 methods
   Garnet Chan, S. Sharma, J. Yang, R. Olivares  : DMRG
   Ulf Ekstrom                                   : XCFun DFT Library
   Mihaly Kallay                                 : mrcc  (arbitrary order and MRCC methods)
   Frank Weinhold                                : gennbo (NPA and NBO analysis)
   Simon Mueller                                 : openCOSMO-RS
   Christopher J. Cramer and Donald G. Truhlar   : smd solvation model
   Lars Goerigk                                  : TD-DFT with DH, B97 family of functionals
   V. Asgeirsson, H. Jonsson                     : NEB implementation
   FAccTs GmbH                                   : IRC, NEB, NEB-TS, DLPNO-Multilevel, CI-OPT
                                                   MM, QMMM, 2- and 3-layer-ONIOM, Crystal-QMMM,
                                                   LR-CPCM, SF, NACMEs, symmetry and pop. for TD-DFT,
                                                   nearIR, NL-DFT gradient (VV10), updates on ESD,
                                                   ML-optimized integration grids, MBIS, APM,
                                                   GOAT, DOCKER, SOLVATOR, interface openCOSMO-RS
   S Lehtola, MJT Oliveira, MAL Marques          : LibXC Library
   Liviu Ungur et al                             : ANISO software


 Your calculation uses the libint2 library for the computation of 2-el integrals
 For citations please refer to: http://libint.valeyev.net

 Your ORCA version has been built with support for libXC version: 6.2.2
 For citations please refer to: https://libxc.gitlab.io

 This ORCA versions uses:
   CBLAS   interface :  Fast vector & matrix operations
   LAPACKE interface :  Fast linear algebra routines
   SCALAPACK package :  Parallel linear algebra routines
   Shared memory     :  Shared parallel matrices
   BLAS/LAPACK       :  OpenBLAS 0.3.27  USE64BITINT DYNAMIC_ARCH NO_AFFINITY SkylakeX SINGLE_THREADED
        Core in use  :  SkylakeX
   Copyright (c) 2011-2014, The OpenBLAS Project




***************************************
The coordinates will be read from file: xtb_opt.xyz
***************************************


Your calculation utilizes the geometrical counterpoise correction gCP
Please cite in your paper:
H.Kruse, S. Grimme J.Chem.Phys., 136, (2012), 154101 
   

Your calculation utilizes the atom-pairwise dispersion correction
based on EEQ partial charges (D4)


Your calculation utilizes the SMD solvation module
Please cite in your paper:
A.V. Marenich, C.J. Cramer, D.G. Truhlar J. Phys. Chem. B, 113, (2009), 6378 

================================================================================

----- Orbital basis set information -----
Your calculation utilizes the basis: def2-mTZVPP
   Stefan Grimme, Andreas Hansen, Sebastian Ehlert, and Jan-Michael Mewes 
   J. Chem. Phys. 154, 064103 (2021). DOI: 10.1063/5.0040021

----- AuxJ basis set information -----
Your calculation utilizes the auxiliary basis: def2/J
   F. Weigend, Phys. Chem. Chem. Phys. 8, 1057 (2006).

================================================================================
                                        WARNINGS
                       Please study these warnings very carefully!
================================================================================

WARNING: Old DensityContainer found on disk!
         Will remove this file - 
         If you want to keep old densities, please start your calculation with a different basename. 

Using LibXC functional ID 497 : Re-regularized SCAN exchange by Furness et al
[ 1]  J. W. Furness, A. D. Kaplan, J. Ning, J. P. Perdew, and J. Sun.,  J. Phys. Chem. Lett. 11, 8208-8215 (2020)
[ 2]  J. W. Furness, A. D. Kaplan, J. Ning, J. P. Perdew, and J. Sun.,  J. Phys. Chem. Lett. 11, 9248-9248 (2020)
Using LibXC functional ID 498 : Re-regularized SCAN correlation by Furness et al
[ 1]  J. W. Furness, A. D. Kaplan, J. Ning, J. P. Perdew, and J. Sun.,  J. Phys. Chem. Lett. 11, 8208-8215 (2020)
[ 2]  J. W. Furness, A. D. Kaplan, J. Ning, J. P. Perdew, and J. Sun.,  J. Phys. Chem. Lett. 11, 9248-9248 (2020)
Using LibXC functional ID 497 : Re-regularized SCAN exchange by Furness et al
[ 1]  J. W. Furness, A. D. Kaplan, J. Ning, J. P. Perdew, and J. Sun.,  J. Phys. Chem. Lett. 11, 8208-8215 (2020)
[ 2]  J. W. Furness, A. D. Kaplan, J. Ning, J. P. Perdew, and J. Sun.,  J. Phys. Chem. Lett. 11, 9248-9248 (2020)
Using LibXC functional ID 498 : Re-regularized SCAN correlation by Furness et al
[ 1]  J. W. Furness, A. D. Kaplan, J. Ning, J. P. Perdew, and J. Sun.,  J. Phys. Chem. Lett. 11, 8208-8215 (2020)
[ 2]  J. W. Furness, A. D. Kaplan, J. Ning, J. P. Perdew, and J. Sun.,  J. Phys. Chem. Lett. 11, 9248-9248 (2020)

================================================================================
                                       INPUT FILE
================================================================================
NAME = xtb_opt.inp
|  1> ! r2scan-3c def2/J RI DEFGRID2 scfconv7 ENGRAD tightSCF miniprint
|  2> %cpcm
|  3>     smd true
|  4>     smdsolvent "water"
|  5> end
|  6> * xyzfile 0 1 xtb_opt.xyz
|  7> 
|  8>                          ****END OF INPUT****
================================================================================

                     *******************************
                     * Energy+Gradient Calculation *
                     *******************************

---------------------------------
CARTESIAN COORDINATES (ANGSTROEM)
---------------------------------
  C      2.543282   -0.082048    0.028945
  C      1.281702    0.762326   -0.050674
  C      0.000021   -0.030254    0.000568
  O      0.000007   -1.257467    0.000907
  C     -1.281684    0.762382    0.050544
  C     -2.543292   -0.081989   -0.028733
  H      2.588370   -0.802713   -0.792891
  H      3.430186    0.554989   -0.028325
  H      2.585622   -0.640534    0.969437
  H      1.242320    1.508907    0.753573
  H      1.252762    1.346122   -0.981818
  H     -1.242078    1.508431   -0.754188
  H     -1.252950    1.346784    0.981304
  H     -3.430198    0.555121    0.027804
  H     -2.588617   -0.801987    0.793682
  H     -2.585400   -0.641235   -0.968783

----------------------------
CARTESIAN COORDINATES (A.U.)
----------------------------
  NO LB      ZA    FRAG     MASS         X           Y           Z
   0 C     6.0000    0    12.011    4.806106   -0.155048    0.054698
   1 C     6.0000    0    12.011    2.422065    1.440588   -0.095760
   2 C     6.0000    0    12.011    0.000040   -0.057172    0.001073
   3 O     8.0000    0    15.999    0.000014   -2.376268    0.001713
   4 C     6.0000    0    12.011   -2.422031    1.440693    0.095515
   5 C     6.0000    0    12.011   -4.806126   -0.154936   -0.054298
   6 H     1.0000    0     1.008    4.891311   -1.516907   -1.498347
   7 H     1.0000    0     1.008    6.482113    1.048778   -0.053526
   8 H     1.0000    0     1.008    4.886118   -1.210434    1.831971
   9 H     1.0000    0     1.008    2.347645    2.851421    1.424047
  10 H     1.0000    0     1.008    2.367376    2.543802   -1.855367
  11 H     1.0000    0     1.008   -2.347187    2.850522   -1.425209
  12 H     1.0000    0     1.008   -2.367732    2.545054    1.854397
  13 H     1.0000    0     1.008   -6.482136    1.049026    0.052543
  14 H     1.0000    0     1.008   -4.891777   -1.515536    1.499841
  15 H     1.0000    0     1.008   -4.885698   -1.211759   -1.830735

------------------------------------------------------------------------------
                   ___                                                        
                  /   \      - P O W E R E D   B Y -                         
                 /     \                                                     
                 |  |  |   _    _      __       _____    __    __             
                 |  |  |  | |  | |    /  \     |  _  \  |  |  /  |          
                  \  \/   | |  | |   /    \    | | | |  |  | /  /          
                 / \  \   | |__| |  /  /\  \   | |_| |  |  |/  /          
                |  |  |   |  __  | /  /__\  \  |    /   |      \           
                |  |  |   | |  | | |   __   |  |    \   |  |\   \          
                \     /   | |  | | |  |  |  |  | |\  \  |  | \   \       
                 \___/    |_|  |_| |__|  |__|  |_| \__\ |__|  \__/        
                                                                              
                      - O R C A' S   B I G   F R I E N D -                    
                                      &                                       
                       - I N T E G R A L  F E E D E R -                       
                                                                              
 v1 FN, 2020, v2 2021, v3 2022-2024                                           
------------------------------------------------------------------------------


----------------------
SHARK INTEGRAL PACKAGE
----------------------

Number of atoms                             ...     16
Number of basis functions                   ...    169
Number of shells                            ...     85
Maximum angular momentum                    ...      2
Integral batch strategy                     ... SHARK/LIBINT Hybrid
RI-J (if used) integral strategy            ... SPLIT-RIJ (Revised 2003 algorithm where possible)
Printlevel                                  ...      1
Contraction scheme used                     ... SEGMENTED contraction
Prescreening option                         ... SCHWARTZ
   Thresh                                   ... 3.000e-11
   Tcut                                     ... 1.000e-12
   Tpresel                                  ... 1.000e-12 
Coulomb Range Separation                    ... NOT USED
Exchange Range Separation                   ... NOT USED
Multipole approximations                    ... NOT USED
Finite Nucleus Model                        ... NOT USED
CABS basis                                  ... NOT available
Auxiliary Coulomb fitting basis             ... AVAILABLE
   # of basis functions in Aux-J            ...    404
   # of shells in Aux-J                     ...    140
   Maximum angular momentum in Aux-J        ...      4
Auxiliary J/K fitting basis                 ... NOT available
Auxiliary Correlation fitting basis         ... NOT available
Auxiliary 'external' fitting basis          ... NOT available

Checking pre-screening integrals            ... done (  0.0 sec) Dimension = 85
Check shell pair data                       ... done (  0.0 sec)
Shell pair information
Shell pair cut-off parameter TPreSel        ...   1.0e-12
Total number of shell pairs                 ...      3655
Shell pairs after pre-screening             ...      3374
Total number of primitive shell pairs       ...     12882
Primitive shell pairs kept                  ...      8859
          la=0 lb=0:   1167 shell pairs
          la=1 lb=0:   1292 shell pairs
          la=1 lb=1:    374 shell pairs
          la=2 lb=0:    328 shell pairs
          la=2 lb=1:    186 shell pairs
          la=2 lb=2:     27 shell pairs

Calculating one electron integrals          ... done (  0.0 sec)
Calculating RI/J V-Matrix + Cholesky decomp.... done (  0.1 sec)
Calculating Nuclear repulsion               ... done (  0.0 sec) ENN=    239.134984733970 Eh

Diagonalization of the overlap matrix:
Smallest eigenvalue                        ... 1.958e-04
Time for diagonalization                   ...    0.002 sec
Threshold for overlap eigenvalues          ... 1.000e-07
Number of eigenvalues below threshold      ... 0
Time for construction of square roots      ...    0.014 sec
Total time needed                          ...    0.024 sec

-------------------
DFT GRID GENERATION
-------------------

General Integration Accuracy     IntAcc      ... 4.388
Radial Grid Type                 RadialGrid  ... OptM3 with GC (2021)
Angular Grid (max. ang.)         AngularGrid ... 4 (Lebedev-302)
Angular grid pruning method      GridPruning ... 4 (adaptive)
Weight generation scheme         WeightScheme... mBecke (2022)
Basis function cutoff            BFCut       ... 1.0000e-11
Integration weight cutoff        WCut        ... 1.0000e-14
Partially contracted basis set               ... off
Rotationally invariant grid construction     ... off
Angular grids for H and He will be reduced by one unit
Diffuse basis detected: some atoms will have their outermost
                        angular grid increased by 1.

Total number of grid points                  ...    68724
Total number of batches                      ...     1083
Average number of points per batch           ...       63
Average number of grid points per atom       ...     4295
Initializing property integral containers    ... done (  0.0 sec)

SHARK setup successfully completed in   0.8 seconds

Maximum memory used throughout the entire STARTUP-calculation: 30.5 MB
Occupation numbers will be reassigned to an Aufbau configuration
             **** ENERGY FILE WAS UPDATED (xtb_opt.en.tmp) ****
Finished Guess after   0.3 sec
Maximum memory used throughout the entire GUESS-calculation: 11.5 MB
--------------------
CPCM SOLVATION MODEL
--------------------
CPCM parameters:
  Epsilon                                         ...      78.3550
  Refrac                                          ...       1.3328
  Rsolv                                           ...       1.3000
  Surface type                                    ... GAUSSIAN VDW
  Discretization scheme                           ... Constant charge density
    Threshold for H atoms                         ...       5.0000 (charges/Ang^2)
    Threshold for non-H atoms                     ...       5.0000 (charges/Ang^2)
  Epsilon function type                           ...         CPCM
Solvent:                                          ... WATER
SMD-CDS solvent descriptors:
  Soln                                            ...       1.3328
  Soln25                                          ...       1.3323
  Sola                                            ...       0.0000
  Solb                                            ...       0.0000
  Solg                                            ...       0.0000
  Solc                                            ...       0.0000
  Solh                                            ...       0.0000
Radii:
  Scheme                                          ... Element-dependent radii
  Radius for C  used is    3.4960 Bohr (=   1.8500 Ang.)
  Radius for O  used is    2.8724 Bohr (=   1.5200 Ang.)
  Radius for H  used is    2.2677 Bohr (=   1.2000 Ang.)
Calculating surface                               ...        done! (  0.0s)
Cavity surface points                             ...         1229
Cavity Volume                                     ...     705.9239
Cavity Surface-area                               ...     479.9495
Calculating surface distance matrix               ...        done! (  0.0s)
Performing Cholesky decomposition & store         ...        done! (  0.1s)
Overall time for CPCM initialization              ...                 0.1s

----------------------------------------D-I-I-S--------------------------------------------
Iteration    Energy (Eh)           Delta-E    RMSDP     MaxDP     DIISErr   Damp  Time(sec)
-------------------------------------------------------------------------------------------
               ***  Starting incremental Fock matrix formation  ***
                              *** Initializing SOSCF ***
---------------------------------------S-O-S-C-F--------------------------------------
Iteration    Energy (Eh)           Delta-E    RMSDP     MaxDP     MaxGrad    Time(sec)
--------------------------------------------------------------------------------------
    1    -271.7230295151578048     0.00e+00  8.70e-08  1.50e-06  1.55e-07     1.8
               *** Restarting incremental Fock matrix formation ***
    2    -271.7230295151647397    -6.93e-12  5.87e-08  1.09e-06  3.78e-07     1.8
                  *** Gradient check signals convergence ***

               *****************************************************
               *                     SUCCESS                       *
               *           SCF CONVERGED AFTER   2 CYCLES          *
               *****************************************************


SMD CDS free energy correction energy :                 3.81137     Kcal/mol
Total Energy after SMD CDS correction =              -271.716955705 Eh
             **** ENERGY FILE WAS UPDATED (xtb_opt.en.tmp) ****

----------------
TOTAL SCF ENERGY
----------------

Total Energy       :       -271.71695570549548 Eh           -7393.79426 eV

Components:
Nuclear Repulsion  :        239.13498473397007 Eh            6507.19375 eV
Electronic Energy  :       -510.83999317059158 Eh          -13900.66291 eV
One Electron Energy:       -840.86491516829494 Eh          -22881.09759 eV
Two Electron Energy:        330.02492199770336 Eh            8980.43468 eV
CPCM Dielectric    :         -0.01802107854319 Eh              -0.49038 eV
SMD CDS (Gcds)     :          0.00607380966927 Eh               0.16528 eV

Virial components:
Potential Energy   :       -542.11755887766981 Eh          -14751.76874 eV
Kinetic Energy     :        270.40060317217433 Eh            7357.97448 eV
Virial Ratio       :          2.00486815679358

DFT components:
N(Alpha)           :       24.000020866273 electrons
N(Beta)            :       24.000020866273 electrons
N(Total)           :       48.000041732546 electrons
E(X)               :      -37.826540590914 Eh       
E(C)               :       -1.505444924225 Eh       
E(XC)              :      -39.331985515138 Eh       

CPCM Solvation Model Properties:
Surface-charge          :         -0.04384913155475
Corrected charge        :         -0.00000000000000
Outlying charge corr.   :          0.00015923781055 Eh               0.00433 eV
Free-energy (cav+disp)  :          0.00607380966927 Eh               0.16528 eV

---------------
SCF CONVERGENCE
---------------

  Last Energy change         ...    6.9349e-12  Tolerance :   1.0000e-07
  Last MAX-Density change    ...    1.0896e-06  Tolerance :   1.0000e-07
  Last RMS-Density change    ...    5.8714e-08  Tolerance :   5.0000e-09
  Last DIIS Error            ...    1.3217e-06  Tolerance :   1.0000e-07
  Last Orbital Gradient      ...    3.7808e-07  Tolerance :   1.0000e-04
  Last Orbital Rotation      ...    5.7359e-07  Tolerance :   1.0000e-04


----------------
ORBITAL ENERGIES
----------------

  NO   OCC          E(Eh)            E(eV) 
   0   2.0000     -18.945050      -515.5210 
   1   2.0000     -10.121809      -275.4284 
   2   2.0000     -10.032352      -272.9942 
   3   2.0000     -10.032347      -272.9940 
   4   2.0000     -10.016722      -272.5689 
   5   2.0000     -10.016720      -272.5688 
   6   2.0000      -1.007585       -27.4178 
   7   2.0000      -0.754370       -20.5275 
   8   2.0000      -0.726183       -19.7604 
   9   2.0000      -0.636336       -17.3156 
  10   2.0000      -0.575964       -15.6728 
  11   2.0000      -0.487320       -13.2606 
  12   2.0000      -0.443598       -12.0709 
  13   2.0000      -0.440390       -11.9836 
  14   2.0000      -0.406878       -11.0717 
  15   2.0000      -0.401231       -10.9180 
  16   2.0000      -0.368952       -10.0397 
  17   2.0000      -0.346507        -9.4289 
  18   2.0000      -0.331376        -9.0172 
  19   2.0000      -0.322962        -8.7882 
  20   2.0000      -0.321232        -8.7412 
  21   2.0000      -0.312767        -8.5108 
  22   2.0000      -0.305438        -8.3114 
  23   2.0000      -0.223463        -6.0807 
  24   0.0000      -0.045402        -1.2354 
  25   0.0000       0.082912         2.2561 
  26   0.0000       0.116085         3.1588 
  27   0.0000       0.125357         3.4111 
  28   0.0000       0.152720         4.1557 
  29   0.0000       0.157720         4.2918 
  30   0.0000       0.162617         4.4250 
  31   0.0000       0.166692         4.5359 
  32   0.0000       0.184235         5.0133 
  33   0.0000       0.190359         5.1799 
  34   0.0000       0.195644         5.3237 
*Only the first 10 virtual orbitals were printed.
Total SCF time: 0 days 0 hours 0 min 4 sec 
Finished LeanSCF after   4.1 sec

Maximum memory used throughout the entire LEANSCF-calculation: 21.2 MB


-------------------------------------------------------------------------------
                          DFT DISPERSION CORRECTION                            
                                                                               
                                DFTD4 V3.4.0                                   
-------------------------------------------------------------------------------
-------------------------   ----------------
Dispersion correction           -0.003610606
-------------------------   ----------------

------------------   -----------------
gCP correction             0.007247035
------------------   -----------------

-------------------------   --------------------
FINAL SINGLE POINT ENERGY      -271.713319276982
-------------------------   --------------------

------------------------------------------------------------------------------
                         ORCA SCF GRADIENT CALCULATION
------------------------------------------------------------------------------

Nuc. rep. gradient        (SHARK) ... done (  0.0 sec)
HCore & Overlap gradient  (SHARK) ... done (  0.1 sec)
Split-RIJ-J gradient      (SHARK) ... done (  0.7 sec)
XC gradient                       ... done (  3.2 sec)
CPCM gradient                     ... done (  0.5 sec)
SMD gradient                      ... done (  0.0 sec)
Dispersion correction             ... done (  0.0 sec)

-------------------
DISPERSION GRADIENT
-------------------

   1   C   :    0.000074244   -0.000009588    0.000000596
   2   C   :    0.000050377    0.000027190   -0.000002155
   3   C   :    0.000000002   -0.000002596    0.000000012
   4   O   :    0.000000001   -0.000058121    0.000000032
   5   C   :   -0.000050376    0.000027193    0.000002137
   6   C   :   -0.000074246   -0.000009586   -0.000000598
   7   H   :    0.000025742   -0.000008239   -0.000004115
   8   H   :    0.000028122    0.000001593   -0.000000055
   9   H   :    0.000026919   -0.000007580    0.000005621
  10   H   :    0.000021396    0.000014414    0.000007377
  11   H   :    0.000022269    0.000012564   -0.000010300
  12   H   :   -0.000021396    0.000014411   -0.000007387
  13   H   :   -0.000022269    0.000012569    0.000010291
  14   H   :   -0.000028121    0.000001593    0.000000047
  15   H   :   -0.000025741   -0.000008234    0.000004117
  16   H   :   -0.000026923   -0.000007584   -0.000005620

Difference to translation invariance:
           :   -0.0000000000    0.0000000000   -0.0000000000

Difference to rotation invariance:
           :   -0.0000000000   -0.0000000000    0.0000000000

Norm of the Dispersion gradient    ...    0.0001697831
RMS gradient                       ...    0.0000245061
MAX gradient                       ...    0.0000742457
gCP correction                   ... done

------------------
CARTESIAN GRADIENT
------------------

   1   C   :   -0.000023019    0.000102343   -0.000095739
   2   C   :    0.000089519    0.000055171   -0.000031316
   3   C   :    0.000012437   -0.000052132    0.000113546
   4   O   :   -0.000001885   -0.000111542   -0.000033197
   5   C   :   -0.000093865    0.000054361   -0.000044340
   6   C   :    0.000017069    0.000108232    0.000092986
   7   H   :   -0.000062835   -0.000207614   -0.000146587
   8   H   :    0.000056660    0.000005048   -0.000029572
   9   H   :    0.000006379   -0.000198570    0.000325929
  10   H   :    0.000009545    0.000157023    0.000151093
  11   H   :    0.000020416    0.000169408   -0.000230821
  12   H   :   -0.000024795    0.000171327   -0.000152513
  13   H   :   -0.000002392    0.000149051    0.000223796
  14   H   :   -0.000061796    0.000004873    0.000031221
  15   H   :    0.000064205   -0.000208694    0.000150620
  16   H   :   -0.000005642   -0.000198285   -0.000325106

Difference to translation invariance:
           :   -0.0000000000   -0.0000000000    0.0000000000

Difference to rotation invariance:
           :   -0.0000005948    0.0000991835    0.0000007913

Norm of the Cartesian gradient     ...    0.0008888090
RMS gradient                       ...    0.0001282885
MAX gradient                       ...    0.0003259291

-------
TIMINGS
-------

Total SCF gradient time     ....        4.991 sec

Densities                   ....       0.000 sec  (  0.0%)
One electron gradient       ....       0.136 sec  (  2.7%)
RI-J Coulomb gradient       ....       0.735 sec  ( 14.7%)
XC gradient                 ....       3.222 sec  ( 64.6%)
CPCM gradient               ....       0.466 sec  (  9.3%)
   A-Matrix (El+Nuc)        ....       0.047 sec  (  0.9%)
   Potential                ....       0.419 sec  (  8.4%)
SMD gradient                ....       0.018 sec  (  0.4%)

Maximum memory used throughout the entire SCFGRAD-calculation: 31.5 MB

------------------------------------------------------------------------------
                              ORCA PROPERTY CALCULATIONS
------------------------------------------------------------------------------

GBWName                                 ... xtb_opt.gbw
Number of atoms                         ...     16
Number of basis functions               ...    169
Max core memory                         ...   1024 MB

Electric properties:
Dipole moment                           ... YES
Quadrupole moment                       ...  NO
Static polarizability (Dipole/Dipole)   ...  NO
Static polarizability (Dipole/Quad.)    ...  NO
Static polarizability (Quad./Quad.)     ...  NO
Static polarizability (Velocity)        ...  NO

Atomic electric properties:
Dipole moment                           ...  NO
Quadrupole moment                       ...  NO
Static polarizability                   ...  NO

Choice of electric origin               ... Center of mass
Position of electric origin             ...     0.000011    -0.003800     0.000485

General magnetic properties:
Magnetizability                         ...  NO

EPR properties:
g-Tensor (aka g-matrix)                 ...  NO
Zero-Field splitting spin-orbit         ...  NO
Zero-field splitting spin-spin          ...  NO
Hyperfine couplings                     ...  NO (   0 nuclei)
Quadrupole couplings                    ...  NO (   0 nuclei)
Contact density                         ...  NO (   0 nuclei)

NMR properties:
Chemical shifts                         ...  NO (   0 nuclei)
Spin-rotation constants                 ...  NO (   0 nuclei)
Spin-spin couplings                     ...  NO (   0 nuclei,    0 pairs)

Choice of magnetic origin               ... GIAO
Position of magnetic origin             ...     0.000000     0.000000     0.000000

Properties with geometric perturbations:
SCF Hessian                             ...  NO
IR spectrum                             ...  NO
VCD spectrum                            ...  NO
X-ray spectroscopy properties:
SCF XES/XAS/RIXS spectra                ...  NO


-------------
DIPOLE MOMENT
-------------

Method             : SCF
Type of density    : Electron Density
Multiplicity       :   1
Irrep              :   0
Energy             :  -271.7169557054954794 Eh
Relativity type    : 
Basis              : AO
                                X                 Y                 Z
Electronic contribution:      0.000032970      -1.909213804       0.001880658
Nuclear contribution   :     -0.000036401       3.690977422      -0.002590178
                        -----------------------------------------
Total Dipole Moment    :     -0.000003432       1.781763618      -0.000709520
                        -----------------------------------------
Magnitude (a.u.)       :      1.781763759
Magnitude (Debye)      :      4.528883560



--------------------
Rotational spectrum 
--------------------
 
Rotational constants in cm-1:             0.297026             0.065300             0.055775 
Rotational constants in MHz :          8904.629287          1957.642592          1672.078625 

Dipole components along the rotational axes: 
x,y,z [a.u.] :     0.000033     1.781764     0.000118 
x,y,z [Debye]:     0.000085     4.528884     0.000300 

 

Dipole moment calculation done in   0.0 sec 

Maximum memory used throughout the entire PROP-calculation: 9.8 MB

--------------------------------
SUGGESTED CITATIONS FOR THIS RUN
--------------------------------

Below you find a list of papers that are relevant to this ORCA run
We neither can nor want to force you to cite these papers, but we appreciate if you do
You receive ORCA, which is the product of decades of hard work by many enthusiastic individuals, for free
The only thing we kindly ask in return is that you cite our papers,
We deeply appreciate it, if you show your appreciation for ORCA by not just citing the generic ORCA reference.

Please note that relegating all ORCA citations to the supporting information does *not* help us.
SI sections are not indexed - citations you put there will not count into any citation statistics
But we need these citations in order to attract the funding resources that allow us to do what we are doing

Therefore, if you are a happy ORCA user, please consider citing a few of the papers listed below in the main body of your paper

In addition to the list printed below, the program has created the file xtb_opt.bibtex that contains the list in bibtex format
You can import this file easily into all common literature databanks and citation aid programs


List of essential papers. We consider these as the minimum necessary citations

  1. Neese,F.
     Software update: the ORCA program system, version 5.0
     WIRES Comput. Molec. Sci., 2022 12(1)e1606
     doi.org/10.1002/wcms.1606
  2. Grimme,S.; Hansen,A.; Ehlert,S.; Mewes,J.
     r2SCAN-3c: A 'Swiss army knife' composite electronic-structure method
     J. Chem. Phys., 2021 154 064103
     doi.org/10.1063/5.0040021

List of papers to cite with high priority. The work reported in these papers was absolutely
necessary for this run to complete.
Our perspective: the developers of density functionals and basis sets usually get cited in chemistry papers
Good! But without the algorithms to do something with them, the functionals or basis sets would not do anything.
Hence, in our opinion, the algorithm design and method developments papers are equally worthy of getting cited

  1. Neese,F.
     An improvement of the resolution of the identity approximation for the formation of the Coulomb matrix
     J. Comp. Chem., 2003 24(14)1740-1747
     doi.org/10.1002/jcc.10318
  2. Garcia-Rates,M.; Neese,F.
     Effect of the Solute Cavity on the Solvation Energy and its Derivatives within the Framework of the Gaussian Charge Scheme
     J. Comput. Chem., 2020 41 922-939
     doi.org/10.1002/jcc.26139
  3. Neese,F.
     The SHARK Integral Generation and Digestion System
     J. Comp. Chem., 2022  1-16
     doi.org/10.1002/jcc.26942
  4. Lehtola,S.; Steigemann,C.; Oliveira,M.; Marques,M.
     Recent developments in Libxc - A comprehensive library of functionals for density functional theory
     Software X, 2018 7 
     doi.org/10.1016/j.softx.2017.11.002
  5. Caldeweyher,E.; Bannwarth,C.; Grimme,S.
     Extension of the D3 dispersion coefficient model
     J. Chem. Phys., 2017 147 034112-XXXX
     doi.org/10.1063/1.4993215
  6. Caldeweyher,E.; Ehlert,S.; Hansen,A.; Neugebauer,H.; Spicher,S.; Bannwarth,C.; Grimme,S.
     A generally applicable atomic-charge dependent London dispersion correction
     J. Chem. Phys., 2019 150 154122-XXXX
     doi.org/10.1063/1.5090222
  7. Caldeweyher,E.; Mewes,J.; Ehlert,S.; Grimme,S.
     Extension and evaluation of the D4 London-dispersion model for periodic systems
     Phys. Chem. Chem. Phys., 2020 22(16)8499-8512
     doi.org/10.1039/D0CP00502A

List of suggested additional citations. These are papers that are important in the 'surrounding' of 
of this run, or papers that preceded the highly important papers. If you like your results we are grateful for a citation.

  1. Neese,F.
     The ORCA program system
     WIRES Comput. Molec. Sci., 2012 2(1)73-78
     doi.org/10.1002/wcms.81
  2. Neese,F.
     Software update: the ORCA program system, version 4.0
     WIRES Comput. Molec. Sci., 2018 8(1)1-6
     doi.org/10.1002/wcms.1327
  3. Neese,F.; Wennmohs,F.; Becker,U.; Riplinger,C.
     The ORCA quantum chemistry program package
     J. Chem. Phys., 2020 152 Art. No. L224108
     doi.org/10.1063/5.0004608

List of optional additional citations

  1. Neese,F.
     Approximate second-order SCF convergence for spin unrestricted wavefunctions
     Chem. Phys. Lett., 2000 325(1-3)93-98
     doi.org/10.1016/s0009-2614(00)00662-x

Timings for individual modules:

Sum of individual times          ...       10.374 sec (=   0.173 min)
Startup calculation              ...        0.818 sec (=   0.014 min)   7.9 %
SCF iterations                   ...        4.388 sec (=   0.073 min)  42.3 %
Property calculations            ...        0.091 sec (=   0.002 min)   0.9 %
SCF Gradient evaluation          ...        5.077 sec (=   0.085 min)  48.9 %
                             ****ORCA TERMINATED NORMALLY****
TOTAL RUN TIME: 0 days 0 hours 0 minutes 11 seconds 105 msec
  ------------------------------------------------------------------------
          * successful ORCA run, taking over control again...

         :::::::::::::::::::::::::::::::::::::::::::::::::::::
         ::                  ORCA SUMMARY                   ::
         :::::::::::::::::::::::::::::::::::::::::::::::::::::
         :: total energy            -271.713319276982 Eh    ::
         :: gradient norm              0.000888809007 Eh/a0 ::
         :: HOMO-LUMO gap              0.000000000000 eV    ::
         :::::::::::::::::::::::::::::::::::::::::::::::::::::

      ----------------------------------------------------------- 
     |                       L-ANC optimizer                     |
      ----------------------------------------------------------- 
          low memory version by Sebastian Ehlert

          ...................................................
          :                      SETUP                      :
          :.................................................:
          :   energy convergence        0.5000000E-05 Eh    :
          :   grad. convergence         0.1000000E-02 Eh/a0 :
          :   optimization log               true           :
          :   writing optlog all                1     steps :
          :   Hessian reset                     8     steps :
          :   maximium step len.        1.0000000     a0    :
          :   LBFGS images                      8           :
          ...................................................
 * calculating model hessian...
Using Lindh-Hessian (1995)
 Shifting diagonal of input Hessian by   1.000000000000000E-002
 Lowest  eigenvalues of input Hessian
    0.000000    0.000000    0.000000    0.000000    0.000000    0.000000
    0.013145    0.014519    0.015625    0.022265    0.022617    0.028261
    0.030788    0.051551    0.054674    0.059098    0.062900    0.064040
 Highest eigenvalues
    1.140550    1.142315    1.196435    1.274336    1.434557    2.062546
 

........................................................................
.............................. CYCLE    1 ..............................
........................................................................
                         * ORCA takes the control...
  ------------------------------------------------------------------------

                                 *****************
                                 * O   R   C   A *
                                 *****************

                                            #,                                       
                                            ###                                      
                                            ####                                     
                                            #####                                    
                                            ######                                   
                                           ########,                                 
                                     ,,################,,,,,                         
                               ,,#################################,,                 
                          ,,##########################################,,             
                       ,#########################################, ''#####,          
                    ,#############################################,,   '####,        
                  ,##################################################,,,,####,       
                ,###########''''           ''''###############################       
              ,#####''   ,,,,##########,,,,          '''####'''          '####       
            ,##' ,,,,###########################,,,                        '##       
           ' ,,###''''                  '''############,,,                           
         ,,##''                                '''############,,,,        ,,,,,,###''
      ,#''                                            '''#######################'''  
     '                                                          ''''####''''         
             ,#######,   #######,   ,#######,      ##                                
            ,#'     '#,  ##    ##  ,#'     '#,    #''#        ,####,   ,####,        
            ##       ##  ##   ,#'  ##            #'  '#       #'       #'  '#        
            ##       ##  #######   ##           ,######,      #####,   #    #        
            '#,     ,#'  ##    ##  '#,     ,#' ,#      #,     #,   #   #,  ,#        
             '#######'   ##     ##  '#######'  #'      '#     '####' # '####'        



                #########################################################
                #                        -***-                          #
                #          Department of theory and spectroscopy        #
                #                                                       #
                #                      Frank Neese                      #
                #                                                       #
                #     Directorship, Architecture, Infrastructure        #
                #                    SHARK, DRIVERS                     #
                #        Core code/Algorithms in most modules           #
                #                                                       #
                #        Max Planck Institute fuer Kohlenforschung      #
                #                Kaiser Wilhelm Platz 1                 #
                #                 D-45470 Muelheim/Ruhr                 #
                #                      Germany                          #
                #                                                       #
                #                  All rights reserved                  #
                #                        -***-                          #
                #########################################################


                         Program Version 6.0.0  -   RELEASE  -


 With contributions from (in alphabetic order):
   Daniel Aravena         : Magnetic Suceptibility
   Michael Atanasov       : Ab Initio Ligand Field Theory (pilot matlab implementation)
   Alexander A. Auer      : GIAO ZORA, VPT2 properties, NMR spectrum
   Ute Becker             : All parallelization in ORCA, NUMFREQ, NUMCALC
   Giovanni Bistoni       : ED, misc. LED, open-shell LED, HFLD
   Martin Brehm           : Molecular dynamics
   Dmytro Bykov           : pre 5.0 version of the SCF Hessian
   Marcos Casanova-Páez   : Triplet and SCS-CIS(D). UHF-(DLPNO)-IP/EA/STEOM-CCSD. UHF-CVS-IP/STEOM-CCSD
   Vijay G. Chilkuri      : MRCI spin determinant printing, contributions to CSF-ICE
   Pauline Colinet        : FMM embedding
   Dipayan Datta          : RHF DLPNO-CCSD density
   Achintya Kumar Dutta   : EOM-CC, STEOM-CC
   Nicolas Foglia         : Exact transition moments, OPA infrastructure, MCD improvements
   Dmitry Ganyushin       : Spin-Orbit,Spin-Spin,Magnetic field MRCI
   Miquel Garcia          : C-PCM and meta-GGA Hessian, CCSD/C-PCM, Gaussian charge scheme
   Tiago L. C. Gouveia    : GS-ROHF, GS-ROCIS
   Yang Guo               : DLPNO-NEVPT2, F12-NEVPT2, CIM, IAO-localization
   Andreas Hansen         : Spin unrestricted coupled pair/coupled cluster methods
   Ingolf Harden          : AUTO-CI MPn and infrastructure 
   Benjamin Helmich-Paris : MC-RPA, TRAH-(SCF,CASSCF), AVAS, COSX integrals, SCF dyn. polar.
   Lee Huntington         : MR-EOM, pCC
   Robert Izsak           : Overlap fitted RIJCOSX, COSX-SCS-MP3, EOM
   Riya Kayal             : Wick's Theorem for AUTO-CI, AUTO-CI UHF-CCSDT
   Emily Kempfer          : AUTO-CI, RHF CISDT and CCSDT
   Christian Kollmar      : KDIIS, OOCD, Brueckner-CCSD(T), CCSD density, CASPT2, CASPT2-K, improved NEVPT2
   Axel Koslowski         : Symmetry handling
   Simone Kossmann        : Meta GGA functionals, TD-DFT gradient, OOMP2, (MP2 Hessian; deprecated post 5.0)
   Lucas Lang             : DCDCAS
   Marvin Lechner         : AUTO-CI (C++ implementation), FIC-MRCC
   Spencer Leger          : CASSCF response
   Dagmar Lenk            : GEPOL surface, SMD, ORCA-2-JSON
   Dimitrios Liakos       : Extrapolation schemes; Compound Job, initial MDCI parallelization
   Dimitrios Manganas     : Further ROCIS development; embedding schemes. LFT, Crystal Embedding
   Dimitrios Pantazis     : SARC Basis sets
   Anastasios Papadopoulos: AUTO-CI, single reference methods and gradients
   Taras Petrenko         : pre 6.0 DFT Hessian and TD-DFT gradient, (ASA, deprecated), ECA, 1-Electron XAS/XES, NRVS
   Peter Pinski           : DLPNO-MP2, DLPNO-MP2 Gradient
   Christoph Reimann      : Effective Core Potentials
   Marius Retegan         : Local ZFS, SOC
   Christoph Riplinger    : Optimizer, TS searches, QM/MM, DLPNO-CCSD(T), (RO)-DLPNO pert. Triples
   Michael Roemelt        : Original ROCIS implementation
   Masaaki Saitow         : Open-shell DLPNO-CCSD energy and density
   Barbara Sandhoefer     : DKH picture change effects
   Kantharuban Sivalingam : CASSCF convergence/infrastructure, NEVPT2 and variants, FIC-MRCI
   Bernardo de Souza      : ESD, SOC TD-DFT
   Georgi Stoychev        : AutoAux, RI-MP2 NMR, DLPNO-MP2 response, X2C
   Van Anh Tran           : RI-MP2 g-tensors
   Willem Van den Heuvel  : Paramagnetic NMR
   Zikuan Wang            : NOTCH, Electric field optimization 
   Frank Wennmohs         : Technical directorship and infrastructure
   Hang Xu                : AUTO-CI-Response properties 


 We gratefully acknowledge several colleagues who have allowed us to
 interface, adapt or use parts of their codes:
   Stefan Grimme, W. Hujo, H. Kruse, P. Pracht,  : VdW corrections, initial TS optimization,
                  C. Bannwarth, S. Ehlert,         DFT functionals, gCP, sTDA/sTD-DF
                  L. Wittmann, M. Mueller
   Ed Valeev, F. Pavosevic, A. Kumar             : LibInt (2-el integral package), F12 methods
   Garnet Chan, S. Sharma, J. Yang, R. Olivares  : DMRG
   Ulf Ekstrom                                   : XCFun DFT Library
   Mihaly Kallay                                 : mrcc  (arbitrary order and MRCC methods)
   Frank Weinhold                                : gennbo (NPA and NBO analysis)
   Simon Mueller                                 : openCOSMO-RS
   Christopher J. Cramer and Donald G. Truhlar   : smd solvation model
   Lars Goerigk                                  : TD-DFT with DH, B97 family of functionals
   V. Asgeirsson, H. Jonsson                     : NEB implementation
   FAccTs GmbH                                   : IRC, NEB, NEB-TS, DLPNO-Multilevel, CI-OPT
                                                   MM, QMMM, 2- and 3-layer-ONIOM, Crystal-QMMM,
                                                   LR-CPCM, SF, NACMEs, symmetry and pop. for TD-DFT,
                                                   nearIR, NL-DFT gradient (VV10), updates on ESD,
                                                   ML-optimized integration grids, MBIS, APM,
                                                   GOAT, DOCKER, SOLVATOR, interface openCOSMO-RS
   S Lehtola, MJT Oliveira, MAL Marques          : LibXC Library
   Liviu Ungur et al                             : ANISO software


 Your calculation uses the libint2 library for the computation of 2-el integrals
 For citations please refer to: http://libint.valeyev.net

 Your ORCA version has been built with support for libXC version: 6.2.2
 For citations please refer to: https://libxc.gitlab.io

 This ORCA versions uses:
   CBLAS   interface :  Fast vector & matrix operations
   LAPACKE interface :  Fast linear algebra routines
   SCALAPACK package :  Parallel linear algebra routines
   Shared memory     :  Shared parallel matrices
   BLAS/LAPACK       :  OpenBLAS 0.3.27  USE64BITINT DYNAMIC_ARCH NO_AFFINITY SkylakeX SINGLE_THREADED
        Core in use  :  SkylakeX
   Copyright (c) 2011-2014, The OpenBLAS Project




***************************************
The coordinates will be read from file: xtb_opt.xyz
***************************************


Your calculation utilizes the geometrical counterpoise correction gCP
Please cite in your paper:
H.Kruse, S. Grimme J.Chem.Phys., 136, (2012), 154101 
   

Your calculation utilizes the atom-pairwise dispersion correction
based on EEQ partial charges (D4)


Your calculation utilizes the SMD solvation module
Please cite in your paper:
A.V. Marenich, C.J. Cramer, D.G. Truhlar J. Phys. Chem. B, 113, (2009), 6378 

================================================================================

----- Orbital basis set information -----
Your calculation utilizes the basis: def2-mTZVPP
   Stefan Grimme, Andreas Hansen, Sebastian Ehlert, and Jan-Michael Mewes 
   J. Chem. Phys. 154, 064103 (2021). DOI: 10.1063/5.0040021

----- AuxJ basis set information -----
Your calculation utilizes the auxiliary basis: def2/J
   F. Weigend, Phys. Chem. Chem. Phys. 8, 1057 (2006).

================================================================================
                                        WARNINGS
                       Please study these warnings very carefully!
================================================================================

WARNING: Old DensityContainer found on disk!
         Will remove this file - 
         If you want to keep old densities, please start your calculation with a different basename. 

Using LibXC functional ID 497 : Re-regularized SCAN exchange by Furness et al
[ 1]  J. W. Furness, A. D. Kaplan, J. Ning, J. P. Perdew, and J. Sun.,  J. Phys. Chem. Lett. 11, 8208-8215 (2020)
[ 2]  J. W. Furness, A. D. Kaplan, J. Ning, J. P. Perdew, and J. Sun.,  J. Phys. Chem. Lett. 11, 9248-9248 (2020)
Using LibXC functional ID 498 : Re-regularized SCAN correlation by Furness et al
[ 1]  J. W. Furness, A. D. Kaplan, J. Ning, J. P. Perdew, and J. Sun.,  J. Phys. Chem. Lett. 11, 8208-8215 (2020)
[ 2]  J. W. Furness, A. D. Kaplan, J. Ning, J. P. Perdew, and J. Sun.,  J. Phys. Chem. Lett. 11, 9248-9248 (2020)
Using LibXC functional ID 497 : Re-regularized SCAN exchange by Furness et al
[ 1]  J. W. Furness, A. D. Kaplan, J. Ning, J. P. Perdew, and J. Sun.,  J. Phys. Chem. Lett. 11, 8208-8215 (2020)
[ 2]  J. W. Furness, A. D. Kaplan, J. Ning, J. P. Perdew, and J. Sun.,  J. Phys. Chem. Lett. 11, 9248-9248 (2020)
Using LibXC functional ID 498 : Re-regularized SCAN correlation by Furness et al
[ 1]  J. W. Furness, A. D. Kaplan, J. Ning, J. P. Perdew, and J. Sun.,  J. Phys. Chem. Lett. 11, 8208-8215 (2020)
[ 2]  J. W. Furness, A. D. Kaplan, J. Ning, J. P. Perdew, and J. Sun.,  J. Phys. Chem. Lett. 11, 9248-9248 (2020)

================================================================================
                                       INPUT FILE
================================================================================
NAME = xtb_opt.inp
|  1> ! r2scan-3c def2/J RI DEFGRID2 scfconv7 ENGRAD tightSCF miniprint
|  2> %cpcm
|  3>     smd true
|  4>     smdsolvent "water"
|  5> end
|  6> * xyzfile 0 1 xtb_opt.xyz
|  7> 
|  8>                          ****END OF INPUT****
================================================================================

                     *******************************
                     * Energy+Gradient Calculation *
                     *******************************

---------------------------------
CARTESIAN COORDINATES (ANGSTROEM)
---------------------------------
  C      2.544558   -0.080649    0.028775
  C      1.281087    0.760339   -0.050328
  C     -0.000024   -0.032640   -0.000108
  O     -0.000020   -1.259732    0.000907
  C     -1.281076    0.760425    0.050214
  C     -2.544547   -0.080607   -0.028390
  H      2.592042   -0.799764   -0.793698
  H      3.429911    0.558432   -0.027055
  H      2.587512   -0.639833    0.968012
  H      1.240606    1.506484    0.753760
  H      1.251581    1.344342   -0.980748
  H     -1.240600    1.505984   -0.754399
  H     -1.251519    1.345096    0.980232
  H     -3.429880    0.558553    0.026824
  H     -2.592180   -0.799126    0.794589
  H     -2.587395   -0.640469   -0.967234

----------------------------
CARTESIAN COORDINATES (A.U.)
----------------------------
  NO LB      ZA    FRAG     MASS         X           Y           Z
   0 C     6.0000    0    12.011    4.808517   -0.152404    0.054377
   1 C     6.0000    0    12.011    2.420903    1.436833   -0.095106
   2 C     6.0000    0    12.011   -0.000046   -0.061680   -0.000204
   3 O     8.0000    0    15.999   -0.000039   -2.380549    0.001714
   4 C     6.0000    0    12.011   -2.420883    1.436996    0.094890
   5 C     6.0000    0    12.011   -4.808498   -0.152325   -0.053650
   6 H     1.0000    0     1.008    4.898249   -1.511335   -1.499871
   7 H     1.0000    0     1.008    6.481593    1.055283   -0.051126
   8 H     1.0000    0     1.008    4.889688   -1.209110    1.829278
   9 H     1.0000    0     1.008    2.344406    2.846842    1.424400
  10 H     1.0000    0     1.008    2.365145    2.540438   -1.853346
  11 H     1.0000    0     1.008   -2.344393    2.845898   -1.425607
  12 H     1.0000    0     1.008   -2.365028    2.541863    1.852370
  13 H     1.0000    0     1.008   -6.481535    1.055511    0.050690
  14 H     1.0000    0     1.008   -4.898510   -1.510130    1.501555
  15 H     1.0000    0     1.008   -4.889468   -1.210310   -1.827808

------------------------------------------------------------------------------
                   ___                                                        
                  /   \      - P O W E R E D   B Y -                         
                 /     \                                                     
                 |  |  |   _    _      __       _____    __    __             
                 |  |  |  | |  | |    /  \     |  _  \  |  |  /  |          
                  \  \/   | |  | |   /    \    | | | |  |  | /  /          
                 / \  \   | |__| |  /  /\  \   | |_| |  |  |/  /          
                |  |  |   |  __  | /  /__\  \  |    /   |      \           
                |  |  |   | |  | | |   __   |  |    \   |  |\   \          
                \     /   | |  | | |  |  |  |  | |\  \  |  | \   \       
                 \___/    |_|  |_| |__|  |__|  |_| \__\ |__|  \__/        
                                                                              
                      - O R C A' S   B I G   F R I E N D -                    
                                      &                                       
                       - I N T E G R A L  F E E D E R -                       
                                                                              
 v1 FN, 2020, v2 2021, v3 2022-2024                                           
------------------------------------------------------------------------------


----------------------
SHARK INTEGRAL PACKAGE
----------------------

Number of atoms                             ...     16
Number of basis functions                   ...    169
Number of shells                            ...     85
Maximum angular momentum                    ...      2
Integral batch strategy                     ... SHARK/LIBINT Hybrid
RI-J (if used) integral strategy            ... SPLIT-RIJ (Revised 2003 algorithm where possible)
Printlevel                                  ...      1
Contraction scheme used                     ... SEGMENTED contraction
Prescreening option                         ... SCHWARTZ
   Thresh                                   ... 3.000e-11
   Tcut                                     ... 1.000e-12
   Tpresel                                  ... 1.000e-12 
Coulomb Range Separation                    ... NOT USED
Exchange Range Separation                   ... NOT USED
Multipole approximations                    ... NOT USED
Finite Nucleus Model                        ... NOT USED
CABS basis                                  ... NOT available
Auxiliary Coulomb fitting basis             ... AVAILABLE
   # of basis functions in Aux-J            ...    404
   # of shells in Aux-J                     ...    140
   Maximum angular momentum in Aux-J        ...      4
Auxiliary J/K fitting basis                 ... NOT available
Auxiliary Correlation fitting basis         ... NOT available
Auxiliary 'external' fitting basis          ... NOT available

Checking pre-screening integrals            ... done (  0.0 sec) Dimension = 85
Check shell pair data                       ... done (  0.0 sec)
Shell pair information
Shell pair cut-off parameter TPreSel        ...   1.0e-12
Total number of shell pairs                 ...      3655
Shell pairs after pre-screening             ...      3374
Total number of primitive shell pairs       ...     12882
Primitive shell pairs kept                  ...      8859
          la=0 lb=0:   1167 shell pairs
          la=1 lb=0:   1292 shell pairs
          la=1 lb=1:    374 shell pairs
          la=2 lb=0:    328 shell pairs
          la=2 lb=1:    186 shell pairs
          la=2 lb=2:     27 shell pairs

Calculating one electron integrals          ... done (  0.0 sec)
Calculating RI/J V-Matrix + Cholesky decomp.... done (  0.1 sec)
Calculating Nuclear repulsion               ... done (  0.0 sec) ENN=    239.140796333525 Eh

Diagonalization of the overlap matrix:
Smallest eigenvalue                        ... 1.962e-04
Time for diagonalization                   ...    0.002 sec
Threshold for overlap eigenvalues          ... 1.000e-07
Number of eigenvalues below threshold      ... 0
Time for construction of square roots      ...    0.013 sec
Total time needed                          ...    0.022 sec

-------------------
DFT GRID GENERATION
-------------------

General Integration Accuracy     IntAcc      ... 4.388
Radial Grid Type                 RadialGrid  ... OptM3 with GC (2021)
Angular Grid (max. ang.)         AngularGrid ... 4 (Lebedev-302)
Angular grid pruning method      GridPruning ... 4 (adaptive)
Weight generation scheme         WeightScheme... mBecke (2022)
Basis function cutoff            BFCut       ... 1.0000e-11
Integration weight cutoff        WCut        ... 1.0000e-14
Partially contracted basis set               ... off
Rotationally invariant grid construction     ... off
Angular grids for H and He will be reduced by one unit
Diffuse basis detected: some atoms will have their outermost
                        angular grid increased by 1.

Total number of grid points                  ...    68726
Total number of batches                      ...     1083
Average number of points per batch           ...       63
Average number of grid points per atom       ...     4295
Initializing property integral containers    ... done (  0.0 sec)

SHARK setup successfully completed in   0.8 seconds

Maximum memory used throughout the entire STARTUP-calculation: 30.5 MB
Occupation numbers will be reassigned to an Aufbau configuration
             **** ENERGY FILE WAS UPDATED (xtb_opt.en.tmp) ****
Finished Guess after   0.2 sec
Maximum memory used throughout the entire GUESS-calculation: 11.5 MB
--------------------
CPCM SOLVATION MODEL
--------------------
CPCM parameters:
  Epsilon                                         ...      78.3550
  Refrac                                          ...       1.3328
  Rsolv                                           ...       1.3000
  Surface type                                    ... GAUSSIAN VDW
  Discretization scheme                           ... Constant charge density
    Threshold for H atoms                         ...       5.0000 (charges/Ang^2)
    Threshold for non-H atoms                     ...       5.0000 (charges/Ang^2)
  Epsilon function type                           ...         CPCM
Solvent:                                          ... WATER
SMD-CDS solvent descriptors:
  Soln                                            ...       1.3328
  Soln25                                          ...       1.3323
  Sola                                            ...       0.0000
  Solb                                            ...       0.0000
  Solg                                            ...       0.0000
  Solc                                            ...       0.0000
  Solh                                            ...       0.0000
Radii:
  Scheme                                          ... Element-dependent radii
  Radius for C  used is    3.4960 Bohr (=   1.8500 Ang.)
  Radius for O  used is    2.8724 Bohr (=   1.5200 Ang.)
  Radius for H  used is    2.2677 Bohr (=   1.2000 Ang.)
Calculating surface                               ...        done! (  0.0s)
Cavity surface points                             ...         1227
Cavity Volume                                     ...     705.7967
Cavity Surface-area                               ...     479.9230
Calculating surface distance matrix               ...        done! (  0.0s)
Performing Cholesky decomposition & store         ...        done! (  0.1s)
Overall time for CPCM initialization              ...                 0.1s

----------------------------------------D-I-I-S--------------------------------------------
Iteration    Energy (Eh)           Delta-E    RMSDP     MaxDP     DIISErr   Damp  Time(sec)
-------------------------------------------------------------------------------------------
               ***  Starting incremental Fock matrix formation  ***
                              *** Initializing SOSCF ***
---------------------------------------S-O-S-C-F--------------------------------------
Iteration    Energy (Eh)           Delta-E    RMSDP     MaxDP     MaxGrad    Time(sec)
--------------------------------------------------------------------------------------
    1    -271.7230342656904440     0.00e+00  2.71e-05  3.47e-04  8.29e-05     1.8
               *** Restarting incremental Fock matrix formation ***
    2    -271.7230401011756840    -5.84e-06  1.29e-05  1.29e-04  6.88e-05     1.7
    3    -271.7230403834564640    -2.82e-07  1.00e-05  2.85e-04  7.68e-05     1.4
    4    -271.7230403880163294    -4.56e-09  7.14e-06  1.95e-04  8.59e-05     1.4
                 **** Energy Check signals convergence ****

               *****************************************************
               *                     SUCCESS                       *
               *           SCF CONVERGED AFTER   4 CYCLES          *
               *****************************************************


SMD CDS free energy correction energy :                 3.81154     Kcal/mol
Total Energy after SMD CDS correction =              -271.716966306 Eh
             **** ENERGY FILE WAS UPDATED (xtb_opt.en.tmp) ****

----------------
TOTAL SCF ENERGY
----------------

Total Energy       :       -271.71696630563127 Eh           -7393.79455 eV

Components:
Nuclear Repulsion  :        239.14079633352483 Eh            6507.35190 eV
Electronic Energy  :       -510.84580639675460 Eh          -13900.82110 eV
One Electron Energy:       -840.87264068123557 Eh          -22881.30782 eV
Two Electron Energy:        330.02683428448097 Eh            8980.48672 eV
CPCM Dielectric    :         -0.01803032478654 Eh              -0.49063 eV
SMD CDS (Gcds)     :          0.00607408238506 Eh               0.16528 eV

Virial components:
Potential Energy   :       -542.12628110091896 Eh          -14752.00609 eV
Kinetic Energy     :        270.40931479528768 Eh            7358.21154 eV
Virial Ratio       :          2.00483582272798

DFT components:
N(Alpha)           :       24.000020140572 electrons
N(Beta)            :       24.000020140572 electrons
N(Total)           :       48.000040281144 electrons
E(X)               :      -37.828435520526 Eh       
E(C)               :       -1.505516312572 Eh       
E(XC)              :      -39.333951833098 Eh       

CPCM Solvation Model Properties:
Surface-charge          :         -0.04383979392943
Corrected charge        :         -0.00000000000000
Outlying charge corr.   :          0.00015917586851 Eh               0.00433 eV
Free-energy (cav+disp)  :          0.00607408238506 Eh               0.16528 eV

---------------
SCF CONVERGENCE
---------------

  Last Energy change         ...    4.5599e-09  Tolerance :   1.0000e-07
  Last MAX-Density change    ...    1.9503e-04  Tolerance :   1.0000e-07
  Last RMS-Density change    ...    7.1393e-06  Tolerance :   5.0000e-09
  Last DIIS Error            ...    1.0243e-03  Tolerance :   1.0000e-07
  Last Orbital Gradient      ...    8.5864e-05  Tolerance :   1.0000e-04
  Last Orbital Rotation      ...    1.0343e-04  Tolerance :   1.0000e-04


----------------
ORBITAL ENERGIES
----------------

  NO   OCC          E(Eh)            E(eV) 
   0   2.0000     -18.945448      -515.5318 
   1   2.0000     -10.121680      -275.4249 
   2   2.0000     -10.032143      -272.9885 
   3   2.0000     -10.032138      -272.9884 
   4   2.0000     -10.016558      -272.5644 
   5   2.0000     -10.016556      -272.5643 
   6   2.0000      -1.007756       -27.4224 
   7   2.0000      -0.754541       -20.5321 
   8   2.0000      -0.726266       -19.7627 
   9   2.0000      -0.636515       -17.3205 
  10   2.0000      -0.576050       -15.6751 
  11   2.0000      -0.487416       -13.2633 
  12   2.0000      -0.443611       -12.0713 
  13   2.0000      -0.440499       -11.9866 
  14   2.0000      -0.406990       -11.0747 
  15   2.0000      -0.401325       -10.9206 
  16   2.0000      -0.369072       -10.0430 
  17   2.0000      -0.346697        -9.4341 
  18   2.0000      -0.331342        -9.0163 
  19   2.0000      -0.322930        -8.7874 
  20   2.0000      -0.321452        -8.7472 
  21   2.0000      -0.312803        -8.5118 
  22   2.0000      -0.305429        -8.3111 
  23   2.0000      -0.223554        -6.0832 
  24   0.0000      -0.045361        -1.2343 
  25   0.0000       0.082911         2.2561 
  26   0.0000       0.116300         3.1647 
  27   0.0000       0.125416         3.4128 
  28   0.0000       0.152735         4.1561 
  29   0.0000       0.157915         4.2971 
  30   0.0000       0.162747         4.4286 
  31   0.0000       0.166711         4.5364 
  32   0.0000       0.184455         5.0193 
  33   0.0000       0.190511         5.1841 
  34   0.0000       0.195534         5.3207 
*Only the first 10 virtual orbitals were printed.
Total SCF time: 0 days 0 hours 0 min 6 sec 
Finished LeanSCF after   6.9 sec

Maximum memory used throughout the entire LEANSCF-calculation: 21.2 MB


-------------------------------------------------------------------------------
                          DFT DISPERSION CORRECTION                            
                                                                               
                                DFTD4 V3.4.0                                   
-------------------------------------------------------------------------------
-------------------------   ----------------
Dispersion correction           -0.003610443
-------------------------   ----------------

------------------   -----------------
gCP correction             0.007252684
------------------   -----------------

-------------------------   --------------------
FINAL SINGLE POINT ENERGY      -271.713324065017
-------------------------   --------------------

------------------------------------------------------------------------------
                         ORCA SCF GRADIENT CALCULATION
------------------------------------------------------------------------------

Nuc. rep. gradient        (SHARK) ... done (  0.0 sec)
HCore & Overlap gradient  (SHARK) ... done (  0.1 sec)
Split-RIJ-J gradient      (SHARK) ... done (  0.7 sec)
XC gradient                       ... done (  3.2 sec)
CPCM gradient                     ... done (  0.5 sec)
SMD gradient                      ... done (  0.0 sec)
Dispersion correction             ... done (  0.0 sec)

-------------------
DISPERSION GRADIENT
-------------------

   1   C   :    0.000074255   -0.000009488    0.000000585
   2   C   :    0.000050324    0.000027142   -0.000002137
   3   C   :   -0.000000002   -0.000002669   -0.000000006
   4   O   :   -0.000000001   -0.000058207    0.000000031
   5   C   :   -0.000050323    0.000027145    0.000002117
   6   C   :   -0.000074255   -0.000009487   -0.000000583
   7   H   :    0.000025760   -0.000008208   -0.000004138
   8   H   :    0.000028132    0.000001632   -0.000000047
   9   H   :    0.000026923   -0.000007563    0.000005632
  10   H   :    0.000021387    0.000014384    0.000007391
  11   H   :    0.000022260    0.000012536   -0.000010295
  12   H   :   -0.000021387    0.000014380   -0.000007400
  13   H   :   -0.000022258    0.000012543    0.000010287
  14   H   :   -0.000028132    0.000001633    0.000000045
  15   H   :   -0.000025760   -0.000008205    0.000004144
  16   H   :   -0.000026923   -0.000007566   -0.000005627

Difference to translation invariance:
           :   -0.0000000000    0.0000000000   -0.0000000000

Difference to rotation invariance:
           :   -0.0000000000   -0.0000000000    0.0000000000

Norm of the Dispersion gradient    ...    0.0001697582
RMS gradient                       ...    0.0000245025
MAX gradient                       ...    0.0000742551
gCP correction                   ... done

------------------
CARTESIAN GRADIENT
------------------

[...]
SMD CDS (Gcds)     :          0.00607408238506 Eh               0.16528 eV

Virial components:
Potential Energy   :       -542.12653694353935 Eh          -14752.01305 eV
Kinetic Energy     :        270.40957054589910 Eh            7358.21850 eV
Virial Ratio       :          2.00483487270477

DFT components:
N(Alpha)           :       24.000020139514 electrons
N(Beta)            :       24.000020139514 electrons
N(Total)           :       48.000040279028 electrons
E(X)               :      -37.828464525099 Eh       
E(C)               :       -1.505510337675 Eh       
E(XC)              :      -39.333974862774 Eh       

CPCM Solvation Model Properties:
Surface-charge          :         -0.04384251408054
Corrected charge        :          0.00000000000000
Outlying charge corr.   :          0.00015919562206 Eh               0.00433 eV
Free-energy (cav+disp)  :          0.00607408238506 Eh               0.16528 eV

---------------
SCF CONVERGENCE
---------------

  Last Energy change         ...    3.1616e-09  Tolerance :   1.0000e-07
  Last MAX-Density change    ...    1.1097e-04  Tolerance :   1.0000e-07
  Last RMS-Density change    ...    3.7155e-06  Tolerance :   5.0000e-09
  Last DIIS Error            ...    4.9772e-05  Tolerance :   1.0000e-07
  Last Orbital Gradient      ...    1.9597e-05  Tolerance :   1.0000e-04
  Last Orbital Rotation      ...    6.5040e-05  Tolerance :   1.0000e-04


----------------
ORBITAL ENERGIES
----------------

  NO   OCC          E(Eh)            E(eV) 
   0   2.0000     -18.945164      -515.5241 
   1   2.0000     -10.121750      -275.4268 
   2   2.0000     -10.032224      -272.9907 
   3   2.0000     -10.032219      -272.9906 
   4   2.0000     -10.016648      -272.5668 
   5   2.0000     -10.016645      -272.5668 
   6   2.0000      -1.007676       -27.4203 
   7   2.0000      -0.754576       -20.5330 
   8   2.0000      -0.726309       -19.7639 
   9   2.0000      -0.636550       -17.3214 
  10   2.0000      -0.576083       -15.6760 
  11   2.0000      -0.487401       -13.2629 
  12   2.0000      -0.443625       -12.0717 
  13   2.0000      -0.440518       -11.9871 
  14   2.0000      -0.406969       -11.0742 
  15   2.0000      -0.401349       -10.9213 
  16   2.0000      -0.369107       -10.0439 
  17   2.0000      -0.346678        -9.4336 
  18   2.0000      -0.331370        -9.0170 
  19   2.0000      -0.322948        -8.7879 
  20   2.0000      -0.321479        -8.7479 
  21   2.0000      -0.312790        -8.5114 
  22   2.0000      -0.305457        -8.3119 
  23   2.0000      -0.223496        -6.0816 
  24   0.0000      -0.045347        -1.2340 
  25   0.0000       0.082903         2.2559 
  26   0.0000       0.116283         3.1642 
  27   0.0000       0.125404         3.4124 
  28   0.0000       0.152709         4.1554 
  29   0.0000       0.157897         4.2966 
  30   0.0000       0.162731         4.4281 
  31   0.0000       0.166698         4.5361 
  32   0.0000       0.184435         5.0187 
  33   0.0000       0.190494         5.1836 
  34   0.0000       0.195532         5.3207 
*Only the first 10 virtual orbitals were printed.
Total SCF time: 0 days 0 hours 0 min 3 sec 
Finished LeanSCF after   4.1 sec

Maximum memory used throughout the entire LEANSCF-calculation: 21.2 MB


-------------------------------------------------------------------------------
                          DFT DISPERSION CORRECTION                            
                                                                               
                                DFTD4 V3.4.0                                   
-------------------------------------------------------------------------------
-------------------------   ----------------
Dispersion correction           -0.003610443
-------------------------   ----------------

------------------   -----------------
gCP correction             0.007252684
------------------   -----------------

-------------------------   --------------------
FINAL SINGLE POINT ENERGY      -271.713324157026
-------------------------   --------------------

------------------------------------------------------------------------------
                         ORCA SCF GRADIENT CALCULATION
------------------------------------------------------------------------------

Nuc. rep. gradient        (SHARK) ... done (  0.0 sec)
HCore & Overlap gradient  (SHARK) ... done (  0.1 sec)
Split-RIJ-J gradient      (SHARK) ... done (  0.7 sec)
XC gradient                       ... done (  3.2 sec)
CPCM gradient                     ... done (  0.5 sec)
SMD gradient                      ... done (  0.0 sec)
Dispersion correction             ... done (  0.0 sec)

-------------------
DISPERSION GRADIENT
-------------------

   1   C   :    0.000074255   -0.000009488    0.000000585
   2   C   :    0.000050324    0.000027142   -0.000002137
   3   C   :   -0.000000002   -0.000002669   -0.000000006
   4   O   :   -0.000000001   -0.000058207    0.000000031
   5   C   :   -0.000050323    0.000027145    0.000002117
   6   C   :   -0.000074255   -0.000009487   -0.000000583
   7   H   :    0.000025760   -0.000008208   -0.000004138
   8   H   :    0.000028132    0.000001632   -0.000000047
   9   H   :    0.000026923   -0.000007563    0.000005632
  10   H   :    0.000021387    0.000014384    0.000007391
  11   H   :    0.000022260    0.000012536   -0.000010295
  12   H   :   -0.000021387    0.000014380   -0.000007400
  13   H   :   -0.000022258    0.000012543    0.000010287
  14   H   :   -0.000028132    0.000001633    0.000000045
  15   H   :   -0.000025760   -0.000008205    0.000004144
  16   H   :   -0.000026923   -0.000007566   -0.000005627

Difference to translation invariance:
           :   -0.0000000000    0.0000000000   -0.0000000000

Difference to rotation invariance:
           :   -0.0000000000   -0.0000000000    0.0000000000

Norm of the Dispersion gradient    ...    0.0001697582
RMS gradient                       ...    0.0000245025
MAX gradient                       ...    0.0000742551
gCP correction                   ... done

------------------
CARTESIAN GRADIENT
------------------

   1   C   :    0.000079021    0.000036414   -0.000006376
   2   C   :    0.000023966   -0.000053112    0.000078872
   3   C   :   -0.000014603   -0.000033667   -0.000190774
   4   O   :    0.000003287    0.000167662    0.000056157
   5   C   :   -0.000021469   -0.000050143    0.000048530
   6   C   :   -0.000070602    0.000029537    0.000010095
   7   H   :   -0.000071573    0.000002084    0.000063144
   8   H   :    0.000029193   -0.000077067   -0.000023196
   9   H   :   -0.000049953    0.000056937   -0.000052358
  10   H   :    0.000041109    0.000002810   -0.000029438
  11   H   :    0.000031609   -0.000036057    0.000030723
  12   H   :   -0.000012468   -0.000023511    0.000032987
  13   H   :   -0.000061264   -0.000003731   -0.000021357
  14   H   :   -0.000025629   -0.000075498    0.000019603
  15   H   :    0.000069638    0.000001720   -0.000066199
  16   H   :    0.000049739    0.000055622    0.000049588

Difference to translation invariance:
           :   -0.0000000000    0.0000000000    0.0000000000

Difference to rotation invariance:
           :   -0.0000020237    0.0001060954    0.0000007137

Norm of the Cartesian gradient     ...    0.0003978503
RMS gradient                       ...    0.0000574247
MAX gradient                       ...    0.0001907737

-------
TIMINGS
-------

Total SCF gradient time     ....        4.998 sec

Densities                   ....       0.000 sec  (  0.0%)
One electron gradient       ....       0.132 sec  (  2.6%)
RI-J Coulomb gradient       ....       0.739 sec  ( 14.8%)
XC gradient                 ....       3.208 sec  ( 64.2%)
CPCM gradient               ....       0.466 sec  (  9.3%)
   A-Matrix (El+Nuc)        ....       0.048 sec  (  1.0%)
   Potential                ....       0.418 sec  (  8.4%)
SMD gradient                ....       0.012 sec  (  0.2%)

Maximum memory used throughout the entire SCFGRAD-calculation: 31.5 MB

------------------------------------------------------------------------------
                              ORCA PROPERTY CALCULATIONS
------------------------------------------------------------------------------

GBWName                                 ... xtb_opt.gbw
Number of atoms                         ...     16
Number of basis functions               ...    169
Max core memory                         ...   1024 MB

Electric properties:
Dipole moment                           ... YES
Quadrupole moment                       ...  NO
Static polarizability (Dipole/Dipole)   ...  NO
Static polarizability (Dipole/Quad.)    ...  NO
Static polarizability (Quad./Quad.)     ...  NO
Static polarizability (Velocity)        ...  NO

Atomic electric properties:
Dipole moment                           ...  NO
Quadrupole moment                       ...  NO
Static polarizability                   ...  NO

Choice of electric origin               ... Center of mass
Position of electric origin             ...    -0.000006    -0.005402     0.000367

General magnetic properties:
Magnetizability                         ...  NO

EPR properties:
g-Tensor (aka g-matrix)                 ...  NO
Zero-Field splitting spin-orbit         ...  NO
Zero-field splitting spin-spin          ...  NO
Hyperfine couplings                     ...  NO (   0 nuclei)
Quadrupole couplings                    ...  NO (   0 nuclei)
Contact density                         ...  NO (   0 nuclei)

NMR properties:
Chemical shifts                         ...  NO (   0 nuclei)
Spin-rotation constants                 ...  NO (   0 nuclei)
Spin-spin couplings                     ...  NO (   0 nuclei,    0 pairs)

Choice of magnetic origin               ... GIAO
Position of magnetic origin             ...     0.000000     0.000000     0.000000

Properties with geometric perturbations:
SCF Hessian                             ...  NO
IR spectrum                             ...  NO
VCD spectrum                            ...  NO
X-ray spectroscopy properties:
SCF XES/XAS/RIXS spectra                ...  NO


-------------
DIPOLE MOMENT
-------------

Method             : SCF
Type of density    : Electron Density
Multiplicity       :   1
Irrep              :   0
Energy             :  -271.7169663976401921 Eh
Relativity type    : 
Basis              : AO
                                X                 Y                 Z
Electronic contribution:     -0.000073674      -1.920720167       0.000540297
Nuclear contribution   :      0.000104372       3.704361298      -0.001548199
                        -----------------------------------------
Total Dipole Moment    :      0.000030698       1.783641131      -0.001007901
                        -----------------------------------------
Magnitude (a.u.)       :      1.783641416
Magnitude (Debye)      :      4.533656184



--------------------
Rotational spectrum 
--------------------
 
Rotational constants in cm-1:             0.297135             0.065262             0.055748 
Rotational constants in MHz :          8907.869175          1956.517758          1671.283847 

Dipole components along the rotational axes: 
x,y,z [a.u.] :    -0.000005     1.783641    -0.000185 
x,y,z [Debye]:    -0.000013     4.533656    -0.000471 

 

Dipole moment calculation done in   0.0 sec 

Maximum memory used throughout the entire PROP-calculation: 9.8 MB

--------------------------------
SUGGESTED CITATIONS FOR THIS RUN
--------------------------------

Below you find a list of papers that are relevant to this ORCA run
We neither can nor want to force you to cite these papers, but we appreciate if you do
You receive ORCA, which is the product of decades of hard work by many enthusiastic individuals, for free
The only thing we kindly ask in return is that you cite our papers,
We deeply appreciate it, if you show your appreciation for ORCA by not just citing the generic ORCA reference.

Please note that relegating all ORCA citations to the supporting information does *not* help us.
SI sections are not indexed - citations you put there will not count into any citation statistics
But we need these citations in order to attract the funding resources that allow us to do what we are doing

Therefore, if you are a happy ORCA user, please consider citing a few of the papers listed below in the main body of your paper

In addition to the list printed below, the program has created the file xtb_opt.bibtex that contains the list in bibtex format
You can import this file easily into all common literature databanks and citation aid programs


List of essential papers. We consider these as the minimum necessary citations

  1. Neese,F.
     Software update: the ORCA program system, version 5.0
     WIRES Comput. Molec. Sci., 2022 12(1)e1606
     doi.org/10.1002/wcms.1606
  2. Grimme,S.; Hansen,A.; Ehlert,S.; Mewes,J.
     r2SCAN-3c: A 'Swiss army knife' composite electronic-structure method
     J. Chem. Phys., 2021 154 064103
     doi.org/10.1063/5.0040021

List of papers to cite with high priority. The work reported in these papers was absolutely
necessary for this run to complete.
Our perspective: the developers of density functionals and basis sets usually get cited in chemistry papers
Good! But without the algorithms to do something with them, the functionals or basis sets would not do anything.
Hence, in our opinion, the algorithm design and method developments papers are equally worthy of getting cited

  1. Neese,F.
     An improvement of the resolution of the identity approximation for the formation of the Coulomb matrix
     J. Comp. Chem., 2003 24(14)1740-1747
     doi.org/10.1002/jcc.10318
  2. Garcia-Rates,M.; Neese,F.
     Effect of the Solute Cavity on the Solvation Energy and its Derivatives within the Framework of the Gaussian Charge Scheme
     J. Comput. Chem., 2020 41 922-939
     doi.org/10.1002/jcc.26139
  3. Neese,F.
     The SHARK Integral Generation and Digestion System
     J. Comp. Chem., 2022  1-16
     doi.org/10.1002/jcc.26942
  4. Lehtola,S.; Steigemann,C.; Oliveira,M.; Marques,M.
     Recent developments in Libxc - A comprehensive library of functionals for density functional theory
     Software X, 2018 7 
     doi.org/10.1016/j.softx.2017.11.002
  5. Caldeweyher,E.; Bannwarth,C.; Grimme,S.
     Extension of the D3 dispersion coefficient model
     J. Chem. Phys., 2017 147 034112-XXXX
     doi.org/10.1063/1.4993215
  6. Caldeweyher,E.; Ehlert,S.; Hansen,A.; Neugebauer,H.; Spicher,S.; Bannwarth,C.; Grimme,S.
     A generally applicable atomic-charge dependent London dispersion correction
     J. Chem. Phys., 2019 150 154122-XXXX
     doi.org/10.1063/1.5090222
  7. Caldeweyher,E.; Mewes,J.; Ehlert,S.; Grimme,S.
     Extension and evaluation of the D4 London-dispersion model for periodic systems
     Phys. Chem. Chem. Phys., 2020 22(16)8499-8512
     doi.org/10.1039/D0CP00502A

List of suggested additional citations. These are papers that are important in the 'surrounding' of 
of this run, or papers that preceded the highly important papers. If you like your results we are grateful for a citation.

  1. Neese,F.
     The ORCA program system
     WIRES Comput. Molec. Sci., 2012 2(1)73-78
     doi.org/10.1002/wcms.81
  2. Neese,F.
     Software update: the ORCA program system, version 4.0
     WIRES Comput. Molec. Sci., 2018 8(1)1-6
     doi.org/10.1002/wcms.1327
  3. Neese,F.; Wennmohs,F.; Becker,U.; Riplinger,C.
     The ORCA quantum chemistry program package
     J. Chem. Phys., 2020 152 Art. No. L224108
     doi.org/10.1063/5.0004608

List of optional additional citations

  1. Neese,F.
     Approximate second-order SCF convergence for spin unrestricted wavefunctions
     Chem. Phys. Lett., 2000 325(1-3)93-98
     doi.org/10.1016/s0009-2614(00)00662-x

Timings for individual modules:

Sum of individual times          ...       10.321 sec (=   0.172 min)
Startup calculation              ...        0.801 sec (=   0.013 min)   7.8 %
SCF iterations                   ...        4.356 sec (=   0.073 min)  42.2 %
Property calculations            ...        0.088 sec (=   0.001 min)   0.8 %
SCF Gradient evaluation          ...        5.077 sec (=   0.085 min)  49.2 %
                             ****ORCA TERMINATED NORMALLY****
TOTAL RUN TIME: 0 days 0 hours 0 minutes 11 seconds 25 msec
  ------------------------------------------------------------------------
          * successful ORCA run, taking over control again...

         :::::::::::::::::::::::::::::::::::::::::::::::::::::
         ::                  ORCA SUMMARY                   ::
         :::::::::::::::::::::::::::::::::::::::::::::::::::::
         :: total energy            -271.713324157026 Eh    ::
         :: gradient norm              0.000397850303 Eh/a0 ::
         :: HOMO-LUMO gap              0.000000000000 eV    ::
         :::::::::::::::::::::::::::::::::::::::::::::::::::::

           -------------------------------------------------
          |                Property Printout                |
           -------------------------------------------------
           -------------------------------------------------
          |                Geometry Summary                 |
           -------------------------------------------------

      molecular mass/u    :       86.1324919
   center of mass at/Å    :       -0.0000034      -0.0028712       0.0001944
  moments of inertia/u·Å² :        0.5673337E+02   0.2582976E+03   0.3023821E+03
rotational constants/cm⁻¹ :        0.2971378E+00   0.6526437E-01   0.5574944E-01

 * 13 selected distances

     #   Z          #   Z                                           value/Å
     1   6 C        2   6 C                                       1.5198284 (max)
     3   6 C        4   8 O                                       1.2270928
     5   6 C        6   6 C                                       1.5198268
     1   6 C        7   1 H                                       1.0935461
     1   6 C        8   1 H                                       1.0933400
     1   6 C        9   1 H                                       1.0939372
     2   6 C       10   1 H                                       1.0976922
     2   6 C       11   1 H                                       1.0989139
     5   6 C       12   1 H                                       1.0976786
     5   6 C       13   1 H                                       1.0989304
     6   6 C       14   1 H                                       1.0933382 (min)
     6   6 C       15   1 H                                       1.0935417
     6   6 C       16   1 H                                       1.0939419

 * 3 distinct bonds (by element types)

   Z      Z             #   av. dist./Å        max./Å        min./Å
   1 H    6 C          10     1.0954860     1.0989304     1.0933382
   6 C    6 C           2     1.5198276     1.5198284     1.5198268
   6 C    8 O           1     1.2270928     1.2270928     1.2270928


optimized geometry written to: xtbopt.coord


           -------------------------------------------------
          | TOTAL ENERGY             -271.713324157026 Eh   |
          | GRADIENT NORM               0.000397850303 Eh/α |
           -------------------------------------------------

------------------------------------------------------------------------
 * finished run on 2025/04/07 at 10:42:34.482     
------------------------------------------------------------------------
 total:
 * wall-time:     0 d,  0 h,  0 min, 36.155 sec
 *  cpu-time:     0 d,  0 h,  0 min,  1.312 sec
 * ratio c/w:     0.036 speedup
 SCF:
 * wall-time:     0 d,  0 h,  0 min, 11.154 sec
 *  cpu-time:     0 d,  0 h,  0 min,  0.445 sec
 * ratio c/w:     0.040 speedup
 ANC optimizer:
 * wall-time:     0 d,  0 h,  0 min, 24.982 sec
 *  cpu-time:     0 d,  0 h,  0 min,  0.861 sec
 * ratio c/w:     0.034 speedup

