      -----------------------------------------------------------      
     |                   =====================                   |     
     |                           x T B                           |     
     |                   =====================                   |     
     |                         S. Grimme                         |     
     |          Mulliken Center for Theoretical Chemistry        |     
     |                    University of Bonn                     |     
      -----------------------------------------------------------      

   * xtb version 6.7.1 (edcfbbe) compiled by 'albert@albert-system' on 2024-07-22

   xtb is free software: you can redistribute it and/or modify it under
   the terms of the GNU Lesser General Public License as published by
   the Free Software Foundation, either version 3 of the License, or
   (at your option) any later version.
   
   xtb is distributed in the hope that it will be useful,
   but WITHOUT ANY WARRANTY; without even the implied warranty of
   MERCHANTABILITY or FITNESS FOR A PARTICULAR PURPOSE.  See the
   GNU Lesser General Public License for more details.
   
   Cite this work as:
   * C. Bannwarth, E. Caldeweyher, S. Ehlert, A. Hansen, P. Pracht,
     J. Seibert, S. Spicher, S. Grimme, WIREs Comput. Mol. Sci., 2020, 11,
     e01493. DOI: 10.1002/wcms.1493
   
   for GFN2-xTB:
   * C. Bannwarth, S. Ehlert and S. Grimme., J. Chem. Theory Comput., 2019,
     15, 1652-1671. DOI: 10.1021/acs.jctc.8b01176
   for GFN1-xTB:
   * S. Grimme, C. Bannwarth, P. Shushkov, J. Chem. Theory Comput., 2017,
     13, 1989-2009. DOI: 10.1021/acs.jctc.7b00118
   for GFN0-xTB:
   * P. Pracht, E. Caldeweyher, S. Ehlert, S. Grimme, ChemRxiv, 2019, preprint.
     DOI: 10.26434/chemrxiv.8326202.v1
   for GFN-FF:
   * S. Spicher and S. Grimme, Angew. Chem. Int. Ed., 2020, 59, 15665-15673.
     DOI: 10.1002/anie.202004239
   
   for ALPB and GBSA implicit solvation:
   * S. Ehlert, M. Stahn, S. Spicher, S. Grimme, J. Chem. Theory Comput.,
     2021, 17, 4250-4261. DOI: 10.1021/acs.jctc.1c00471
   
   for ddCOSMO and CPCM-X implicit solvation:
   * M. Stahn, S. Ehlert, S. Grimme, J. Phys. Chem. A,
     2023, XX, XXXX-XXXX. DOI: 10.1021/acs.jpca.3c04382
   
   for DFT-D4:
   * E. Caldeweyher, C. Bannwarth and S. Grimme, J. Chem. Phys., 2017,
     147, 034112. DOI: 10.1063/1.4993215
   * E. Caldeweyher, S. Ehlert, A. Hansen, H. Neugebauer, S. Spicher,
     C. Bannwarth and S. Grimme, J. Chem. Phys., 2019, 150, 154122.
     DOI: 10.1063/1.5090222
   * E. Caldeweyher, J.-M. Mewes, S. Ehlert and S. Grimme, Phys. Chem. Chem. Phys.
     2020, 22, 8499-8512. DOI: 10.1039/D0CP00502A
   
   for sTDA-xTB:
   * S. Grimme and C. Bannwarth, J. Chem. Phys., 2016, 145, 054103.
     DOI: 10.1063/1.4959605
   
   in the mass-spec context:
   * V. Asgeirsson, C. Bauer and S. Grimme, Chem. Sci., 2017, 8, 4879.
     DOI: 10.1039/c7sc00601b
   * J. Koopman and S. Grimme, ACS Omega 2019, 4, 12, 15120-15133.
     DOI: 10.1021/acsomega.9b02011
   
   for metadynamics refer to:
   * S. Grimme, J. Chem. Theory Comput., 2019, 155, 2847-2862
     DOI: 10.1021/acs.jctc.9b00143
   
   for SPH calculations refer to:
   * S. Spicher and S. Grimme, J. Chem. Theory Comput., 2021, 17, 1701-1714
     DOI: 10.1021/acs.jctc.0c01306
   
   for ONIOM refer to:
   * C. Plett, A. Katbashev, S. Ehlert, S. Grimme, M. Bursch,
     Phys. Chem. Chem. Phys., 2023, 25, 17860-17868. DOI: 10.1039/D3CP02178E
   
   for DIPRO refer to:
   * J. Kohn, N. Gildemeister, S. Grimme, D. Fazzi, A. Hansen,
     J. Chem. Phys., 2023, just accepted.
   
   for PTB refer to:
   * S. Grimme, M. Mueller, A. Hansen, J. Chem. Phys., 2023, 158, 124111.
     DOI: 10.1063/5.0137838
   
   with help from (in alphabetical order)
   P. Atkinson, C. Bannwarth, F. Bohle, G. Brandenburg, E. Caldeweyher
   M. Checinski, S. Dohm, S. Ehlert, S. Ehrlich, I. Gerasimov, C. Hölzer
   A. Katbashev, J. Kohn, J. Koopman, C. Lavigne, S. Lehtola, F. März, M. Müller,
   F. Musil, H. Neugebauer, J. Pisarek, C. Plett, P. Pracht, F. Pultar,
   J. Seibert, P. Shushkov, S. Spicher, M. Stahn, M. Steiner, T. Strunk,
   J. Stückrath, T. Rose, and J. Unsleber
   
 * started run on 2025/04/11 at 12:24:41.883     
   ID    Z sym.   atoms
    1    6 C      1-8
    2    1 H      9-24

           -------------------------------------------------
          |                Calculation Setup                |
           -------------------------------------------------

          program call               : /srv/scratch/z5358697/.xtb/bin/xtb xtb_opt.coord --opt normal --orca -I xtb_opt-xcontrol-inp
          hostname                   : k071
          coordinate file            : xtb_opt.coord
          omp threads                :                    16

           -------------------------------------------------
          |                   Orca driver                   |
           -------------------------------------------------
orca executable           : /apps/z_install_tree/linux-rocky8-ivybridge/gcc-12.2.0/orca-6.0.0-srtngmq3qlimg2qxbl6avaaiffipurdx/bin/orca
orca input file           : xtb_opt.inp
orca input line           : 
orca parallel             : true
orca number of threads    : 16
                         * ORCA takes the control...
  ------------------------------------------------------------------------

                                 *****************
                                 * O   R   C   A *
                                 *****************

                                            #,                                       
                                            ###                                      
                                            ####                                     
                                            #####                                    
                                            ######                                   
                                           ########,                                 
                                     ,,################,,,,,                         
                               ,,#################################,,                 
                          ,,##########################################,,             
                       ,#########################################, ''#####,          
                    ,#############################################,,   '####,        
                  ,##################################################,,,,####,       
                ,###########''''           ''''###############################       
              ,#####''   ,,,,##########,,,,          '''####'''          '####       
            ,##' ,,,,###########################,,,                        '##       
           ' ,,###''''                  '''############,,,                           
         ,,##''                                '''############,,,,        ,,,,,,###''
      ,#''                                            '''#######################'''  
     '                                                          ''''####''''         
             ,#######,   #######,   ,#######,      ##                                
            ,#'     '#,  ##    ##  ,#'     '#,    #''#        ,####,   ,####,        
            ##       ##  ##   ,#'  ##            #'  '#       #'       #'  '#        
            ##       ##  #######   ##           ,######,      #####,   #    #        
            '#,     ,#'  ##    ##  '#,     ,#' ,#      #,     #,   #   #,  ,#        
             '#######'   ##     ##  '#######'  #'      '#     '####' # '####'        



                #########################################################
                #                        -***-                          #
                #          Department of theory and spectroscopy        #
                #                                                       #
                #                      Frank Neese                      #
                #                                                       #
                #     Directorship, Architecture, Infrastructure        #
                #                    SHARK, DRIVERS                     #
                #        Core code/Algorithms in most modules           #
                #                                                       #
                #        Max Planck Institute fuer Kohlenforschung      #
                #                Kaiser Wilhelm Platz 1                 #
                #                 D-45470 Muelheim/Ruhr                 #
                #                      Germany                          #
                #                                                       #
                #                  All rights reserved                  #
                #                        -***-                          #
                #########################################################


                         Program Version 6.0.0  -   RELEASE  -


 With contributions from (in alphabetic order):
   Daniel Aravena         : Magnetic Suceptibility
   Michael Atanasov       : Ab Initio Ligand Field Theory (pilot matlab implementation)
   Alexander A. Auer      : GIAO ZORA, VPT2 properties, NMR spectrum
   Ute Becker             : All parallelization in ORCA, NUMFREQ, NUMCALC
   Giovanni Bistoni       : ED, misc. LED, open-shell LED, HFLD
   Martin Brehm           : Molecular dynamics
   Dmytro Bykov           : pre 5.0 version of the SCF Hessian
   Marcos Casanova-Páez   : Triplet and SCS-CIS(D). UHF-(DLPNO)-IP/EA/STEOM-CCSD. UHF-CVS-IP/STEOM-CCSD
   Vijay G. Chilkuri      : MRCI spin determinant printing, contributions to CSF-ICE
   Pauline Colinet        : FMM embedding
   Dipayan Datta          : RHF DLPNO-CCSD density
   Achintya Kumar Dutta   : EOM-CC, STEOM-CC
   Nicolas Foglia         : Exact transition moments, OPA infrastructure, MCD improvements
   Dmitry Ganyushin       : Spin-Orbit,Spin-Spin,Magnetic field MRCI
   Miquel Garcia          : C-PCM and meta-GGA Hessian, CCSD/C-PCM, Gaussian charge scheme
   Tiago L. C. Gouveia    : GS-ROHF, GS-ROCIS
   Yang Guo               : DLPNO-NEVPT2, F12-NEVPT2, CIM, IAO-localization
   Andreas Hansen         : Spin unrestricted coupled pair/coupled cluster methods
   Ingolf Harden          : AUTO-CI MPn and infrastructure 
   Benjamin Helmich-Paris : MC-RPA, TRAH-(SCF,CASSCF), AVAS, COSX integrals, SCF dyn. polar.
   Lee Huntington         : MR-EOM, pCC
   Robert Izsak           : Overlap fitted RIJCOSX, COSX-SCS-MP3, EOM
   Riya Kayal             : Wick's Theorem for AUTO-CI, AUTO-CI UHF-CCSDT
   Emily Kempfer          : AUTO-CI, RHF CISDT and CCSDT
   Christian Kollmar      : KDIIS, OOCD, Brueckner-CCSD(T), CCSD density, CASPT2, CASPT2-K, improved NEVPT2
   Axel Koslowski         : Symmetry handling
   Simone Kossmann        : Meta GGA functionals, TD-DFT gradient, OOMP2, (MP2 Hessian; deprecated post 5.0)
   Lucas Lang             : DCDCAS
   Marvin Lechner         : AUTO-CI (C++ implementation), FIC-MRCC
   Spencer Leger          : CASSCF response
   Dagmar Lenk            : GEPOL surface, SMD, ORCA-2-JSON
   Dimitrios Liakos       : Extrapolation schemes; Compound Job, initial MDCI parallelization
   Dimitrios Manganas     : Further ROCIS development; embedding schemes. LFT, Crystal Embedding
   Dimitrios Pantazis     : SARC Basis sets
   Anastasios Papadopoulos: AUTO-CI, single reference methods and gradients
   Taras Petrenko         : pre 6.0 DFT Hessian and TD-DFT gradient, (ASA, deprecated), ECA, 1-Electron XAS/XES, NRVS
   Peter Pinski           : DLPNO-MP2, DLPNO-MP2 Gradient
   Christoph Reimann      : Effective Core Potentials
   Marius Retegan         : Local ZFS, SOC
   Christoph Riplinger    : Optimizer, TS searches, QM/MM, DLPNO-CCSD(T), (RO)-DLPNO pert. Triples
   Michael Roemelt        : Original ROCIS implementation
   Masaaki Saitow         : Open-shell DLPNO-CCSD energy and density
   Barbara Sandhoefer     : DKH picture change effects
   Kantharuban Sivalingam : CASSCF convergence/infrastructure, NEVPT2 and variants, FIC-MRCI
   Bernardo de Souza      : ESD, SOC TD-DFT
   Georgi Stoychev        : AutoAux, RI-MP2 NMR, DLPNO-MP2 response, X2C
   Van Anh Tran           : RI-MP2 g-tensors
   Willem Van den Heuvel  : Paramagnetic NMR
   Zikuan Wang            : NOTCH, Electric field optimization 
   Frank Wennmohs         : Technical directorship and infrastructure
   Hang Xu                : AUTO-CI-Response properties 


 We gratefully acknowledge several colleagues who have allowed us to
 interface, adapt or use parts of their codes:
   Stefan Grimme, W. Hujo, H. Kruse, P. Pracht,  : VdW corrections, initial TS optimization,
                  C. Bannwarth, S. Ehlert,         DFT functionals, gCP, sTDA/sTD-DF
                  L. Wittmann, M. Mueller
   Ed Valeev, F. Pavosevic, A. Kumar             : LibInt (2-el integral package), F12 methods
   Garnet Chan, S. Sharma, J. Yang, R. Olivares  : DMRG
   Ulf Ekstrom                                   : XCFun DFT Library
   Mihaly Kallay                                 : mrcc  (arbitrary order and MRCC methods)
   Frank Weinhold                                : gennbo (NPA and NBO analysis)
   Simon Mueller                                 : openCOSMO-RS
   Christopher J. Cramer and Donald G. Truhlar   : smd solvation model
   Lars Goerigk                                  : TD-DFT with DH, B97 family of functionals
   V. Asgeirsson, H. Jonsson                     : NEB implementation
   FAccTs GmbH                                   : IRC, NEB, NEB-TS, DLPNO-Multilevel, CI-OPT
                                                   MM, QMMM, 2- and 3-layer-ONIOM, Crystal-QMMM,
                                                   LR-CPCM, SF, NACMEs, symmetry and pop. for TD-DFT,
                                                   nearIR, NL-DFT gradient (VV10), updates on ESD,
                                                   ML-optimized integration grids, MBIS, APM,
                                                   GOAT, DOCKER, SOLVATOR, interface openCOSMO-RS
   S Lehtola, MJT Oliveira, MAL Marques          : LibXC Library
   Liviu Ungur et al                             : ANISO software


 Your calculation uses the libint2 library for the computation of 2-el integrals
 For citations please refer to: http://libint.valeyev.net

 Your ORCA version has been built with support for libXC version: 6.2.2
 For citations please refer to: https://libxc.gitlab.io

 This ORCA versions uses:
   CBLAS   interface :  Fast vector & matrix operations
   LAPACKE interface :  Fast linear algebra routines
   SCALAPACK package :  Parallel linear algebra routines
   Shared memory     :  Shared parallel matrices
   BLAS/LAPACK       :  OpenBLAS 0.3.27  USE64BITINT DYNAMIC_ARCH NO_AFFINITY SkylakeX SINGLE_THREADED
        Core in use  :  SkylakeX
   Copyright (c) 2011-2014, The OpenBLAS Project




***************************************
The coordinates will be read from file: xtb_opt.xyz
***************************************


Your calculation utilizes the geometrical counterpoise correction gCP
Please cite in your paper:
H.Kruse, S. Grimme J.Chem.Phys., 136, (2012), 154101 
   

Your calculation utilizes the atom-pairwise dispersion correction
based on EEQ partial charges (D4)


Your calculation utilizes the SMD solvation module
Please cite in your paper:
A.V. Marenich, C.J. Cramer, D.G. Truhlar J. Phys. Chem. B, 113, (2009), 6378 

================================================================================

----- Orbital basis set information -----
Your calculation utilizes the basis: def2-mTZVPP
   Stefan Grimme, Andreas Hansen, Sebastian Ehlert, and Jan-Michael Mewes 
   J. Chem. Phys. 154, 064103 (2021). DOI: 10.1063/5.0040021

----- AuxJ basis set information -----
Your calculation utilizes the auxiliary basis: def2/J
   F. Weigend, Phys. Chem. Chem. Phys. 8, 1057 (2006).

================================================================================
                                        WARNINGS
                       Please study these warnings very carefully!
================================================================================

WARNING: Old DensityContainer found on disk!
         Will remove this file - 
         If you want to keep old densities, please start your calculation with a different basename. 

Using LibXC functional ID 497 : Re-regularized SCAN exchange by Furness et al
[ 1]  J. W. Furness, A. D. Kaplan, J. Ning, J. P. Perdew, and J. Sun.,  J. Phys. Chem. Lett. 11, 8208-8215 (2020)
[ 2]  J. W. Furness, A. D. Kaplan, J. Ning, J. P. Perdew, and J. Sun.,  J. Phys. Chem. Lett. 11, 9248-9248 (2020)
Using LibXC functional ID 498 : Re-regularized SCAN correlation by Furness et al
[ 1]  J. W. Furness, A. D. Kaplan, J. Ning, J. P. Perdew, and J. Sun.,  J. Phys. Chem. Lett. 11, 8208-8215 (2020)
[ 2]  J. W. Furness, A. D. Kaplan, J. Ning, J. P. Perdew, and J. Sun.,  J. Phys. Chem. Lett. 11, 9248-9248 (2020)
Using LibXC functional ID 497 : Re-regularized SCAN exchange by Furness et al
[ 1]  J. W. Furness, A. D. Kaplan, J. Ning, J. P. Perdew, and J. Sun.,  J. Phys. Chem. Lett. 11, 8208-8215 (2020)
[ 2]  J. W. Furness, A. D. Kaplan, J. Ning, J. P. Perdew, and J. Sun.,  J. Phys. Chem. Lett. 11, 9248-9248 (2020)
Using LibXC functional ID 498 : Re-regularized SCAN correlation by Furness et al
[ 1]  J. W. Furness, A. D. Kaplan, J. Ning, J. P. Perdew, and J. Sun.,  J. Phys. Chem. Lett. 11, 8208-8215 (2020)
[ 2]  J. W. Furness, A. D. Kaplan, J. Ning, J. P. Perdew, and J. Sun.,  J. Phys. Chem. Lett. 11, 9248-9248 (2020)

================================================================================
                                       INPUT FILE
================================================================================
NAME = xtb_opt.inp
|  1> ! r2scan-3c def2/J RI DEFGRID2 scfconv7 ENGRAD tightSCF miniprint
|  2> %cpcm
|  3>     smd true
|  4>     smdsolvent "water"
|  5> end
|  6> * xyzfile 0 1 xtb_opt.xyz
|  7> 
|  8>                          ****END OF INPUT****
================================================================================

                     *******************************
                     * Energy+Gradient Calculation *
                     *******************************

---------------------------------
CARTESIAN COORDINATES (ANGSTROEM)
---------------------------------
  C     -3.023307    0.138899    0.468722
  C     -2.077681    0.384920   -0.704020
  C     -0.842937   -0.518394   -0.695939
  C      0.048953   -0.416350    0.550366
  C      1.304696   -1.290195    0.395733
  C      2.266380   -0.449891   -0.473432
  C      1.827150    1.026850   -0.274548
  C      0.670114    0.976100    0.742618
  H     -3.938908    0.729473    0.366420
  H     -3.310136   -0.917122    0.523500
  H     -2.562424    0.408304    1.424198
  H     -2.620829    0.216978   -1.642604
  H     -1.773027    1.438670   -0.715308
  H     -1.171183   -1.562573   -0.791211
  H     -0.240668   -0.303201   -1.587750
  H     -0.530007   -0.715027    1.431779
  H      1.749471   -1.463980    1.382499
  H      1.082896   -2.268554   -0.044708
  H      3.308060   -0.609418   -0.182674
  H      2.184168   -0.734937   -1.526294
  H      2.647602    1.657597    0.079483
  H      1.483372    1.454141   -1.221333
  H      1.068029    1.047392    1.761631
  H     -0.043217    1.795202    0.613413

----------------------------
CARTESIAN COORDINATES (A.U.)
----------------------------
  NO LB      ZA    FRAG     MASS         X           Y           Z
   0 C     6.0000    0    12.011   -5.713222    0.262481    0.885757
   1 C     6.0000    0    12.011   -3.926248    0.727393   -1.330405
   2 C     6.0000    0    12.011   -1.592919   -0.979622   -1.315135
   3 C     6.0000    0    12.011    0.092507   -0.786788    1.040041
   4 C     6.0000    0    12.011    2.465519   -2.438115    0.747828
   5 C     6.0000    0    12.011    4.282838   -0.850170   -0.894657
   6 C     6.0000    0    12.011    3.452813    1.940465   -0.518821
   7 C     6.0000    0    12.011    1.266333    1.844562    1.403344
   8 H     1.0000    0     1.008   -7.443457    1.378504    0.692433
   9 H     1.0000    0     1.008   -6.255250   -1.733108    0.989272
  10 H     1.0000    0     1.008   -4.842280    0.771582    2.691344
  11 H     1.0000    0     1.008   -4.952650    0.410030   -3.104072
  12 H     1.0000    0     1.008   -3.350536    2.718693   -1.351737
  13 H     1.0000    0     1.008   -2.213216   -2.952835   -1.495172
  14 H     1.0000    0     1.008   -0.454797   -0.572968   -3.000412
  15 H     1.0000    0     1.008   -1.001568   -1.351206    2.705669
  16 H     1.0000    0     1.008    3.306021   -2.766522    2.612545
  17 H     1.0000    0     1.008    2.046377   -4.286946   -0.084486
  18 H     1.0000    0     1.008    6.251327   -1.151632   -0.345204
  19 H     1.0000    0     1.008    4.127479   -1.388830   -2.884277
  20 H     1.0000    0     1.008    5.003243    3.132405    0.150201
  21 H     1.0000    0     1.008    2.803168    2.747927   -2.307985
  22 H     1.0000    0     1.008    2.018282    1.979285    3.329000
  23 H     1.0000    0     1.008   -0.081668    3.392440    1.159183

------------------------------------------------------------------------------
                   ___                                                        
                  /   \      - P O W E R E D   B Y -                         
                 /     \                                                     
                 |  |  |   _    _      __       _____    __    __             
                 |  |  |  | |  | |    /  \     |  _  \  |  |  /  |          
                  \  \/   | |  | |   /    \    | | | |  |  | /  /          
                 / \  \   | |__| |  /  /\  \   | |_| |  |  |/  /          
                |  |  |   |  __  | /  /__\  \  |    /   |      \           
                |  |  |   | |  | | |   __   |  |    \   |  |\   \          
                \     /   | |  | | |  |  |  |  | |\  \  |  | \   \       
                 \___/    |_|  |_| |__|  |__|  |_| \__\ |__|  \__/        
                                                                              
                      - O R C A' S   B I G   F R I E N D -                    
                                      &                                       
                       - I N T E G R A L  F E E D E R -                       
                                                                              
 v1 FN, 2020, v2 2021, v3 2022-2024                                           
------------------------------------------------------------------------------


----------------------
SHARK INTEGRAL PACKAGE
----------------------

Number of atoms                             ...     24
Number of basis functions                   ...    232
Number of shells                            ...    120
Maximum angular momentum                    ...      2
Integral batch strategy                     ... SHARK/LIBINT Hybrid
RI-J (if used) integral strategy            ... SPLIT-RIJ (Revised 2003 algorithm where possible)
Printlevel                                  ...      1
Contraction scheme used                     ... SEGMENTED contraction
Prescreening option                         ... SCHWARTZ
   Thresh                                   ... 3.000e-11
   Tcut                                     ... 1.000e-12
   Tpresel                                  ... 1.000e-12 
Coulomb Range Separation                    ... NOT USED
Exchange Range Separation                   ... NOT USED
Multipole approximations                    ... NOT USED
Finite Nucleus Model                        ... NOT USED
CABS basis                                  ... NOT available
Auxiliary Coulomb fitting basis             ... AVAILABLE
   # of basis functions in Aux-J            ...    568
   # of shells in Aux-J                     ...    200
   Maximum angular momentum in Aux-J        ...      4
Auxiliary J/K fitting basis                 ... NOT available
Auxiliary Correlation fitting basis         ... NOT available
Auxiliary 'external' fitting basis          ... NOT available

Checking pre-screening integrals            ... done (  0.0 sec) Dimension = 120
Check shell pair data                       ... done (  0.0 sec)
Shell pair information
Shell pair cut-off parameter TPreSel        ...   1.0e-12
Total number of shell pairs                 ...      7260
Shell pairs after pre-screening             ...      6646
Total number of primitive shell pairs       ...     25424
Primitive shell pairs kept                  ...     16827
          la=0 lb=0:   2402 shell pairs
          la=1 lb=0:   2631 shell pairs
          la=1 lb=1:    752 shell pairs
          la=2 lb=0:    532 shell pairs
          la=2 lb=1:    295 shell pairs
          la=2 lb=2:     34 shell pairs

Calculating one electron integrals          ... done (  0.0 sec)
Calculating RI/J V-Matrix + Cholesky decomp.... done (  0.1 sec)
Calculating Nuclear repulsion               ... done (  0.0 sec) ENN=    403.619921268900 Eh

Diagonalization of the overlap matrix:
Smallest eigenvalue                        ... 5.376e-05
Time for diagonalization                   ...    0.005 sec
Threshold for overlap eigenvalues          ... 1.000e-07
Number of eigenvalues below threshold      ... 0
Time for construction of square roots      ...    0.017 sec
Total time needed                          ...    0.033 sec

-------------------
DFT GRID GENERATION
-------------------

General Integration Accuracy     IntAcc      ... 4.388
Radial Grid Type                 RadialGrid  ... OptM3 with GC (2021)
Angular Grid (max. ang.)         AngularGrid ... 4 (Lebedev-302)
Angular grid pruning method      GridPruning ... 4 (adaptive)
Weight generation scheme         WeightScheme... mBecke (2022)
Basis function cutoff            BFCut       ... 1.0000e-11
Integration weight cutoff        WCut        ... 1.0000e-14
Partially contracted basis set               ... off
Rotationally invariant grid construction     ... off
Angular grids for H and He will be reduced by one unit

Total number of grid points                  ...    98640
Total number of batches                      ...     1553
Average number of points per batch           ...       63
Average number of grid points per atom       ...     4110
Initializing property integral containers    ... done (  0.0 sec)

SHARK setup successfully completed in   1.4 seconds

Maximum memory used throughout the entire STARTUP-calculation: 42.4 MB
Occupation numbers will be reassigned to an Aufbau configuration
             **** ENERGY FILE WAS UPDATED (xtb_opt.en.tmp) ****
Finished Guess after   0.3 sec
Maximum memory used throughout the entire GUESS-calculation: 16.6 MB
--------------------
CPCM SOLVATION MODEL
--------------------
CPCM parameters:
  Epsilon                                         ...      78.3550
  Refrac                                          ...       1.3328
  Rsolv                                           ...       1.3000
  Surface type                                    ... GAUSSIAN VDW
  Discretization scheme                           ... Constant charge density
    Threshold for H atoms                         ...       5.0000 (charges/Ang^2)
    Threshold for non-H atoms                     ...       5.0000 (charges/Ang^2)
  Epsilon function type                           ...         CPCM
Solvent:                                          ... WATER
SMD-CDS solvent descriptors:
  Soln                                            ...       1.3328
  Soln25                                          ...       1.3323
  Sola                                            ...       0.0000
  Solb                                            ...       0.0000
  Solg                                            ...       0.0000
  Solc                                            ...       0.0000
  Solh                                            ...       0.0000
Radii:
  Scheme                                          ... Element-dependent radii
  Radius for C  used is    3.4960 Bohr (=   1.8500 Ang.)
  Radius for H  used is    2.2677 Bohr (=   1.2000 Ang.)
Calculating surface                               ...        done! (  0.0s)
Cavity surface points                             ...         1710
Cavity Volume                                     ...     966.3522
Cavity Surface-area                               ...     605.3336
Calculating surface distance matrix               ...        done! (  0.0s)
Performing Cholesky decomposition & store         ...        done! (  0.1s)
Overall time for CPCM initialization              ...                 0.1s

----------------------------------------D-I-I-S--------------------------------------------
Iteration    Energy (Eh)           Delta-E    RMSDP     MaxDP     DIISErr   Damp  Time(sec)
-------------------------------------------------------------------------------------------
               ***  Starting incremental Fock matrix formation  ***
                              *** Initializing SOSCF ***
---------------------------------------S-O-S-C-F--------------------------------------
Iteration    Energy (Eh)           Delta-E    RMSDP     MaxDP     MaxGrad    Time(sec)
--------------------------------------------------------------------------------------
    1    -314.3873077409029406     0.00e+00  9.42e-07  1.89e-05  1.69e-06     4.2
               *** Restarting incremental Fock matrix formation ***
    2    -314.3873077413923625    -4.89e-10  1.09e-06  2.38e-05  4.34e-06     4.1
                  *** Gradient check signals convergence ***

               *****************************************************
               *                     SUCCESS                       *
               *           SCF CONVERGED AFTER   2 CYCLES          *
               *****************************************************


SMD CDS free energy correction energy :                 3.09890     Kcal/mol
Total Energy after SMD CDS correction =              -314.382369326 Eh
             **** ENERGY FILE WAS UPDATED (xtb_opt.en.tmp) ****

----------------
TOTAL SCF ENERGY
----------------

Total Energy       :       -314.38236932552201 Eh           -8554.77919 eV

Components:
Nuclear Repulsion  :        403.61992126890010 Eh           10983.05643 eV
Electronic Energy  :       -718.00482231170713 Eh          -19537.90450 eV
One Electron Energy:      -1222.29491428594588 Eh          -33260.33554 eV
Two Electron Energy:        504.29009197423875 Eh           13722.43104 eV
CPCM Dielectric    :         -0.00240669858533 Eh              -0.06549 eV
SMD CDS (Gcds)     :          0.00493841587033 Eh               0.13438 eV

Virial components:
Potential Energy   :       -627.10085621683061 Eh          -17064.28183 eV
Kinetic Energy     :        312.71848689130866 Eh            8509.50264 eV
Virial Ratio       :          2.00532070377659

DFT components:
N(Alpha)           :       32.000115684390 electrons
N(Beta)            :       32.000115684390 electrons
N(Total)           :       64.000231368780 electrons
E(X)               :      -47.328198694593 Eh       
E(C)               :       -1.992125499059 Eh       
E(XC)              :      -49.320324193652 Eh       

CPCM Solvation Model Properties:
Surface-charge          :         -0.05309635054738
Corrected charge        :          0.00000000000000
Outlying charge corr.   :          0.00021200612705 Eh               0.00577 eV
Free-energy (cav+disp)  :          0.00493841587033 Eh               0.13438 eV

---------------
SCF CONVERGENCE
---------------

  Last Energy change         ...    4.8942e-10  Tolerance :   1.0000e-07
  Last MAX-Density change    ...    2.3830e-05  Tolerance :   1.0000e-07
  Last RMS-Density change    ...    1.0859e-06  Tolerance :   5.0000e-09
  Last DIIS Error            ...    1.5782e-05  Tolerance :   1.0000e-07
  Last Orbital Gradient      ...    4.3432e-06  Tolerance :   1.0000e-04
  Last Orbital Rotation      ...    7.8804e-06  Tolerance :   1.0000e-04


----------------
ORBITAL ENERGIES
----------------

  NO   OCC          E(Eh)            E(eV) 
   0   2.0000     -10.019341      -272.6401 
   1   2.0000     -10.016439      -272.5612 
   2   2.0000     -10.014471      -272.5076 
   3   2.0000     -10.014337      -272.5040 
   4   2.0000     -10.013081      -272.4698 
   5   2.0000     -10.012888      -272.4645 
   6   2.0000     -10.012279      -272.4480 
   7   2.0000     -10.009132      -272.3623 
   8   2.0000      -0.796977       -21.6868 
   9   2.0000      -0.737706       -20.0740 
  10   2.0000      -0.673821       -18.3356 
  11   2.0000      -0.661961       -18.0129 
  12   2.0000      -0.622743       -16.9457 
  13   2.0000      -0.551135       -14.9972 
  14   2.0000      -0.518450       -14.1077 
  15   2.0000      -0.491172       -13.3655 
  16   2.0000      -0.448589       -12.2067 
  17   2.0000      -0.434903       -11.8343 
  18   2.0000      -0.405888       -11.0448 
  19   2.0000      -0.390022       -10.6131 
  20   2.0000      -0.375451       -10.2165 
  21   2.0000      -0.362271        -9.8579 
  22   2.0000      -0.344876        -9.3846 
  23   2.0000      -0.317811        -8.6481 
  24   2.0000      -0.308744        -8.4014 
  25   2.0000      -0.302084        -8.2201 
  26   2.0000      -0.295624        -8.0443 
  27   2.0000      -0.293158        -7.9772 
  28   2.0000      -0.277057        -7.5391 
  29   2.0000      -0.274071        -7.4578 
  30   2.0000      -0.265915        -7.2359 
  31   2.0000      -0.262065        -7.1311 
  32   0.0000       0.083404         2.2695 
  33   0.0000       0.102541         2.7903 
  34   0.0000       0.111758         3.0411 
  35   0.0000       0.123044         3.3482 
  36   0.0000       0.127994         3.4829 
  37   0.0000       0.131488         3.5780 
  38   0.0000       0.134172         3.6510 
  39   0.0000       0.140355         3.8193 
  40   0.0000       0.151420         4.1203 
  41   0.0000       0.156734         4.2649 
  42   0.0000       0.169633         4.6159 
*Only the first 10 virtual orbitals were printed.
Total SCF time: 0 days 0 hours 0 min 8 sec 
Finished LeanSCF after   9.0 sec

Maximum memory used throughout the entire LEANSCF-calculation: 37.2 MB


-------------------------------------------------------------------------------
                          DFT DISPERSION CORRECTION                            
                                                                               
                                DFTD4 V3.4.0                                   
-------------------------------------------------------------------------------
-------------------------   ----------------
Dispersion correction           -0.007230228
-------------------------   ----------------

------------------   -----------------
gCP correction             0.010185464
------------------   -----------------

-------------------------   --------------------
FINAL SINGLE POINT ENERGY      -314.379414089968
-------------------------   --------------------

------------------------------------------------------------------------------
                         ORCA SCF GRADIENT CALCULATION
------------------------------------------------------------------------------

Nuc. rep. gradient        (SHARK) ... done (  0.0 sec)
HCore & Overlap gradient  (SHARK) ... done (  0.4 sec)
Split-RIJ-J gradient      (SHARK) ... done (  2.0 sec)
XC gradient                       ... done (  8.7 sec)
CPCM gradient                     ... done (  1.2 sec)
SMD gradient                      ... done (  0.0 sec)
Dispersion correction             ... done (  0.0 sec)

-------------------
DISPERSION GRADIENT
-------------------

   1   C   :   -0.000117571    0.000003327    0.000023880
   2   C   :   -0.000107387    0.000022145   -0.000043089
   3   C   :   -0.000047495   -0.000035295   -0.000046649
   4   C   :    0.000014782   -0.000023901    0.000030833
   5   C   :    0.000064624   -0.000070697    0.000024330
   6   C   :    0.000093045   -0.000020624   -0.000022762
   7   C   :    0.000086069    0.000057544   -0.000012949
   8   C   :    0.000047559    0.000058917    0.000047017
   9   H   :   -0.000039624    0.000007300    0.000005771
  10   H   :   -0.000046051   -0.000005651    0.000006934
  11   H   :   -0.000053048    0.000005797    0.000018751
  12   H   :   -0.000040561    0.000003100   -0.000026135
  13   H   :   -0.000046563    0.000020522   -0.000016974
  14   H   :   -0.000029882   -0.000032219   -0.000020061
  15   H   :   -0.000011449   -0.000009034   -0.000032640
  16   H   :   -0.000005028   -0.000017567    0.000030854
  17   H   :    0.000026886   -0.000030301    0.000023840
  18   H   :    0.000021978   -0.000046856    0.000002488
  19   H   :    0.000041377   -0.000009467   -0.000005921
  20   H   :    0.000040408   -0.000012688   -0.000023547
  21   H   :    0.000035059    0.000031355   -0.000000454
  22   H   :    0.000037148    0.000033130   -0.000018837
  23   H   :    0.000024316    0.000026719    0.000037441
  24   H   :    0.000011409    0.000044444    0.000017881

Difference to translation invariance:
           :   -0.0000000000   -0.0000000000    0.0000000000

Difference to rotation invariance:
           :   -0.0000000000    0.0000000000   -0.0000000000

Norm of the Dispersion gradient    ...    0.0003321507
RMS gradient                       ...    0.0000391443
MAX gradient                       ...    0.0001175709
gCP correction                   ... done

------------------
CARTESIAN GRADIENT
------------------

   1   C   :   -0.000131922   -0.000354829   -0.000205434
   2   C   :    0.000430631   -0.000138339    0.000188307
   3   C   :   -0.000385554    0.000086480   -0.000262030
   4   C   :    0.000161749   -0.000012313    0.000264608
   5   C   :   -0.000061814    0.000534983   -0.000033563
   6   C   :    0.000037690   -0.000149990    0.000164103
   7   C   :   -0.000157956    0.000133654   -0.000138593
   8   C   :    0.000253209   -0.000187097   -0.000059158
   9   H   :    0.000369513   -0.000227008   -0.000025105
  10   H   :    0.000146449    0.000518944   -0.000150187
  11   H   :   -0.000086222   -0.000126769   -0.000220729
  12   H   :   -0.000094120   -0.000115672    0.000040850
  13   H   :   -0.000127968   -0.000105177    0.000008359
  14   H   :    0.000101388    0.000256144    0.000096231
  15   H   :   -0.000190688    0.000022732    0.000379920
  16   H   :    0.000101217    0.000122100   -0.000040481
  17   H   :    0.000088495    0.000056867   -0.000082018
  18   H   :   -0.000150172    0.000054824   -0.000122054
  19   H   :   -0.000431763    0.000135647   -0.000162299
  20   H   :   -0.000145231    0.000109143    0.000316174
  21   H   :   -0.000029211   -0.000170139    0.000002498
  22   H   :    0.000087525   -0.000182371    0.000363850
  23   H   :   -0.000009664    0.000083691   -0.000284559
  24   H   :    0.000224420   -0.000345505   -0.000038689

Difference to translation invariance:
           :    0.0000000000   -0.0000000000   -0.0000000000

Difference to rotation invariance:
           :   -0.0002421106   -0.0002887459    0.0007761646

Norm of the Cartesian gradient     ...    0.0017484061
RMS gradient                       ...    0.0002060516
MAX gradient                       ...    0.0005349833

-------
TIMINGS
-------

Total SCF gradient time     ....       13.425 sec

Densities                   ....       0.001 sec  (  0.0%)
One electron gradient       ....       0.419 sec  (  3.1%)
RI-J Coulomb gradient       ....       2.045 sec  ( 15.2%)
XC gradient                 ....       8.689 sec  ( 64.7%)
CPCM gradient               ....       1.226 sec  (  9.1%)
   A-Matrix (El+Nuc)        ....       0.094 sec  (  0.7%)
   Potential                ....       1.132 sec  (  8.4%)
SMD gradient                ....       0.011 sec  (  0.1%)

Maximum memory used throughout the entire SCFGRAD-calculation: 36.9 MB

------------------------------------------------------------------------------
                              ORCA PROPERTY CALCULATIONS
------------------------------------------------------------------------------

GBWName                                 ... xtb_opt.gbw
Number of atoms                         ...     24
Number of basis functions               ...    232
Max core memory                         ...   1024 MB

Electric properties:
Dipole moment                           ... YES
Quadrupole moment                       ...  NO
Static polarizability (Dipole/Dipole)   ...  NO
Static polarizability (Dipole/Quad.)    ...  NO
Static polarizability (Quad./Quad.)     ...  NO
Static polarizability (Velocity)        ...  NO

Atomic electric properties:
Dipole moment                           ...  NO
Quadrupole moment                       ...  NO
Static polarizability                   ...  NO

Choice of electric origin               ... Center of mass
Position of electric origin             ...    -0.010202    -0.027012    -0.000268

General magnetic properties:
Magnetizability                         ...  NO

EPR properties:
g-Tensor (aka g-matrix)                 ...  NO
Zero-Field splitting spin-orbit         ...  NO
Zero-field splitting spin-spin          ...  NO
Hyperfine couplings                     ...  NO (   0 nuclei)
Quadrupole couplings                    ...  NO (   0 nuclei)
Contact density                         ...  NO (   0 nuclei)

NMR properties:
Chemical shifts                         ...  NO (   0 nuclei)
Spin-rotation constants                 ...  NO (   0 nuclei)
Spin-spin couplings                     ...  NO (   0 nuclei,    0 pairs)

Choice of magnetic origin               ... GIAO
Position of magnetic origin             ...     0.000000     0.000000     0.000000

Properties with geometric perturbations:
SCF Hessian                             ...  NO
IR spectrum                             ...  NO
VCD spectrum                            ...  NO
X-ray spectroscopy properties:
SCF XES/XAS/RIXS spectra                ...  NO


-------------
DIPOLE MOMENT
-------------

Method             : SCF
Type of density    : Electron Density
Multiplicity       :   1
Irrep              :   0
Energy             :  -314.3823693255220064 Eh
Relativity type    : 
Basis              : AO
                                X                 Y                 Z
Electronic contribution:      2.397638651      -0.373691621       0.113076161
Nuclear contribution   :     -2.420894812       0.376818141      -0.118860766
                        -----------------------------------------
Total Dipole Moment    :     -0.023256162       0.003126520      -0.005784605
                        -----------------------------------------
Magnitude (a.u.)       :      0.024167868
Magnitude (Debye)      :      0.061429839



--------------------
Rotational spectrum 
--------------------
 
Rotational constants in cm-1:             0.131905             0.039706             0.037325 
Rotational constants in MHz :          3954.412276          1190.355393          1118.980772 

Dipole components along the rotational axes: 
x,y,z [a.u.] :    -0.023365     0.001743    -0.005926 
x,y,z [Debye]:    -0.059390     0.004430    -0.015062 

 

Dipole moment calculation done in   0.0 sec 

Maximum memory used throughout the entire PROP-calculation: 15.5 MB

--------------------------------
SUGGESTED CITATIONS FOR THIS RUN
--------------------------------

Below you find a list of papers that are relevant to this ORCA run
We neither can nor want to force you to cite these papers, but we appreciate if you do
You receive ORCA, which is the product of decades of hard work by many enthusiastic individuals, for free
The only thing we kindly ask in return is that you cite our papers,
We deeply appreciate it, if you show your appreciation for ORCA by not just citing the generic ORCA reference.

Please note that relegating all ORCA citations to the supporting information does *not* help us.
SI sections are not indexed - citations you put there will not count into any citation statistics
But we need these citations in order to attract the funding resources that allow us to do what we are doing

Therefore, if you are a happy ORCA user, please consider citing a few of the papers listed below in the main body of your paper

In addition to the list printed below, the program has created the file xtb_opt.bibtex that contains the list in bibtex format
You can import this file easily into all common literature databanks and citation aid programs


List of essential papers. We consider these as the minimum necessary citations

  1. Neese,F.
     Software update: the ORCA program system, version 5.0
     WIRES Comput. Molec. Sci., 2022 12(1)e1606
     doi.org/10.1002/wcms.1606
  2. Grimme,S.; Hansen,A.; Ehlert,S.; Mewes,J.
     r2SCAN-3c: A 'Swiss army knife' composite electronic-structure method
     J. Chem. Phys., 2021 154 064103
     doi.org/10.1063/5.0040021

List of papers to cite with high priority. The work reported in these papers was absolutely
necessary for this run to complete.
Our perspective: the developers of density functionals and basis sets usually get cited in chemistry papers
Good! But without the algorithms to do something with them, the functionals or basis sets would not do anything.
Hence, in our opinion, the algorithm design and method developments papers are equally worthy of getting cited

  1. Neese,F.
     An improvement of the resolution of the identity approximation for the formation of the Coulomb matrix
     J. Comp. Chem., 2003 24(14)1740-1747
     doi.org/10.1002/jcc.10318
  2. Garcia-Rates,M.; Neese,F.
     Effect of the Solute Cavity on the Solvation Energy and its Derivatives within the Framework of the Gaussian Charge Scheme
     J. Comput. Chem., 2020 41 922-939
     doi.org/10.1002/jcc.26139
  3. Neese,F.
     The SHARK Integral Generation and Digestion System
     J. Comp. Chem., 2022  1-16
     doi.org/10.1002/jcc.26942
  4. Lehtola,S.; Steigemann,C.; Oliveira,M.; Marques,M.
     Recent developments in Libxc - A comprehensive library of functionals for density functional theory
     Software X, 2018 7 
     doi.org/10.1016/j.softx.2017.11.002
  5. Caldeweyher,E.; Bannwarth,C.; Grimme,S.
     Extension of the D3 dispersion coefficient model
     J. Chem. Phys., 2017 147 034112-XXXX
     doi.org/10.1063/1.4993215
  6. Caldeweyher,E.; Ehlert,S.; Hansen,A.; Neugebauer,H.; Spicher,S.; Bannwarth,C.; Grimme,S.
     A generally applicable atomic-charge dependent London dispersion correction
     J. Chem. Phys., 2019 150 154122-XXXX
     doi.org/10.1063/1.5090222
  7. Caldeweyher,E.; Mewes,J.; Ehlert,S.; Grimme,S.
     Extension and evaluation of the D4 London-dispersion model for periodic systems
     Phys. Chem. Chem. Phys., 2020 22(16)8499-8512
     doi.org/10.1039/D0CP00502A

List of suggested additional citations. These are papers that are important in the 'surrounding' of 
of this run, or papers that preceded the highly important papers. If you like your results we are grateful for a citation.

  1. Neese,F.
     The ORCA program system
     WIRES Comput. Molec. Sci., 2012 2(1)73-78
     doi.org/10.1002/wcms.81
  2. Neese,F.
     Software update: the ORCA program system, version 4.0
     WIRES Comput. Molec. Sci., 2018 8(1)1-6
     doi.org/10.1002/wcms.1327
  3. Neese,F.; Wennmohs,F.; Becker,U.; Riplinger,C.
     The ORCA quantum chemistry program package
     J. Chem. Phys., 2020 152 Art. No. L224108
     doi.org/10.1063/5.0004608

List of optional additional citations

  1. Neese,F.
     Approximate second-order SCF convergence for spin unrestricted wavefunctions
     Chem. Phys. Lett., 2000 325(1-3)93-98
     doi.org/10.1016/s0009-2614(00)00662-x

Timings for individual modules:

Sum of individual times          ...       24.488 sec (=   0.408 min)
Startup calculation              ...        1.454 sec (=   0.024 min)   5.9 %
SCF iterations                   ...        9.395 sec (=   0.157 min)  38.4 %
Property calculations            ...        0.116 sec (=   0.002 min)   0.5 %
SCF Gradient evaluation          ...       13.523 sec (=   0.225 min)  55.2 %
                             ****ORCA TERMINATED NORMALLY****
TOTAL RUN TIME: 0 days 0 hours 0 minutes 25 seconds 473 msec
  ------------------------------------------------------------------------
          * successful ORCA run, taking over control again...

         :::::::::::::::::::::::::::::::::::::::::::::::::::::
         ::                  ORCA SUMMARY                   ::
         :::::::::::::::::::::::::::::::::::::::::::::::::::::
         :: total energy            -314.379414089968 Eh    ::
         :: gradient norm              0.001748406137 Eh/a0 ::
         :: HOMO-LUMO gap              0.000000000000 eV    ::
         :::::::::::::::::::::::::::::::::::::::::::::::::::::

      ----------------------------------------------------------- 
     |                       L-ANC optimizer                     |
      ----------------------------------------------------------- 
          low memory version by Sebastian Ehlert

          ...................................................
          :                      SETUP                      :
          :.................................................:
          :   energy convergence        0.5000000E-05 Eh    :
          :   grad. convergence         0.1000000E-02 Eh/a0 :
          :   optimization log               true           :
          :   writing optlog all                1     steps :
          :   Hessian reset                     8     steps :
          :   maximium step len.        1.0000000     a0    :
          :   LBFGS images                      8           :
          ...................................................
 * calculating model hessian...
Using Lindh-Hessian (1995)
 Shifting diagonal of input Hessian by   1.000000000000000E-002
 Lowest  eigenvalues of input Hessian
    0.000000    0.000000    0.000000    0.000000    0.000000    0.000000
    0.011427    0.012949    0.014746    0.016037    0.018723    0.022793
    0.022802    0.026316    0.033368    0.047363    0.051104    0.051231
 Highest eigenvalues
    1.178192    1.193467    1.207482    1.224247    1.244235    1.290228
 

........................................................................
.............................. CYCLE    1 ..............................
........................................................................
                         * ORCA takes the control...
  ------------------------------------------------------------------------

                                 *****************
                                 * O   R   C   A *
                                 *****************

                                            #,                                       
                                            ###                                      
                                            ####                                     
                                            #####                                    
                                            ######                                   
                                           ########,                                 
                                     ,,################,,,,,                         
                               ,,#################################,,                 
                          ,,##########################################,,             
                       ,#########################################, ''#####,          
                    ,#############################################,,   '####,        
                  ,##################################################,,,,####,       
                ,###########''''           ''''###############################       
              ,#####''   ,,,,##########,,,,          '''####'''          '####       
            ,##' ,,,,###########################,,,                        '##       
           ' ,,###''''                  '''############,,,                           
         ,,##''                                '''############,,,,        ,,,,,,###''
      ,#''                                            '''#######################'''  
     '                                                          ''''####''''         
             ,#######,   #######,   ,#######,      ##                                
            ,#'     '#,  ##    ##  ,#'     '#,    #''#        ,####,   ,####,        
            ##       ##  ##   ,#'  ##            #'  '#       #'       #'  '#        
            ##       ##  #######   ##           ,######,      #####,   #    #        
            '#,     ,#'  ##    ##  '#,     ,#' ,#      #,     #,   #   #,  ,#        
             '#######'   ##     ##  '#######'  #'      '#     '####' # '####'        



                #########################################################
                #                        -***-                          #
                #          Department of theory and spectroscopy        #
                #                                                       #
                #                      Frank Neese                      #
                #                                                       #
                #     Directorship, Architecture, Infrastructure        #
                #                    SHARK, DRIVERS                     #
                #        Core code/Algorithms in most modules           #
                #                                                       #
                #        Max Planck Institute fuer Kohlenforschung      #
                #                Kaiser Wilhelm Platz 1                 #
                #                 D-45470 Muelheim/Ruhr                 #
                #                      Germany                          #
                #                                                       #
                #                  All rights reserved                  #
                #                        -***-                          #
                #########################################################


                         Program Version 6.0.0  -   RELEASE  -


 With contributions from (in alphabetic order):
   Daniel Aravena         : Magnetic Suceptibility
   Michael Atanasov       : Ab Initio Ligand Field Theory (pilot matlab implementation)
   Alexander A. Auer      : GIAO ZORA, VPT2 properties, NMR spectrum
   Ute Becker             : All parallelization in ORCA, NUMFREQ, NUMCALC
   Giovanni Bistoni       : ED, misc. LED, open-shell LED, HFLD
   Martin Brehm           : Molecular dynamics
   Dmytro Bykov           : pre 5.0 version of the SCF Hessian
   Marcos Casanova-Páez   : Triplet and SCS-CIS(D). UHF-(DLPNO)-IP/EA/STEOM-CCSD. UHF-CVS-IP/STEOM-CCSD
   Vijay G. Chilkuri      : MRCI spin determinant printing, contributions to CSF-ICE
   Pauline Colinet        : FMM embedding
   Dipayan Datta          : RHF DLPNO-CCSD density
   Achintya Kumar Dutta   : EOM-CC, STEOM-CC
   Nicolas Foglia         : Exact transition moments, OPA infrastructure, MCD improvements
   Dmitry Ganyushin       : Spin-Orbit,Spin-Spin,Magnetic field MRCI
   Miquel Garcia          : C-PCM and meta-GGA Hessian, CCSD/C-PCM, Gaussian charge scheme
   Tiago L. C. Gouveia    : GS-ROHF, GS-ROCIS
   Yang Guo               : DLPNO-NEVPT2, F12-NEVPT2, CIM, IAO-localization
   Andreas Hansen         : Spin unrestricted coupled pair/coupled cluster methods
   Ingolf Harden          : AUTO-CI MPn and infrastructure 
   Benjamin Helmich-Paris : MC-RPA, TRAH-(SCF,CASSCF), AVAS, COSX integrals, SCF dyn. polar.
   Lee Huntington         : MR-EOM, pCC
   Robert Izsak           : Overlap fitted RIJCOSX, COSX-SCS-MP3, EOM
   Riya Kayal             : Wick's Theorem for AUTO-CI, AUTO-CI UHF-CCSDT
   Emily Kempfer          : AUTO-CI, RHF CISDT and CCSDT
   Christian Kollmar      : KDIIS, OOCD, Brueckner-CCSD(T), CCSD density, CASPT2, CASPT2-K, improved NEVPT2
   Axel Koslowski         : Symmetry handling
   Simone Kossmann        : Meta GGA functionals, TD-DFT gradient, OOMP2, (MP2 Hessian; deprecated post 5.0)
   Lucas Lang             : DCDCAS
   Marvin Lechner         : AUTO-CI (C++ implementation), FIC-MRCC
   Spencer Leger          : CASSCF response
   Dagmar Lenk            : GEPOL surface, SMD, ORCA-2-JSON
   Dimitrios Liakos       : Extrapolation schemes; Compound Job, initial MDCI parallelization
   Dimitrios Manganas     : Further ROCIS development; embedding schemes. LFT, Crystal Embedding
   Dimitrios Pantazis     : SARC Basis sets
   Anastasios Papadopoulos: AUTO-CI, single reference methods and gradients
   Taras Petrenko         : pre 6.0 DFT Hessian and TD-DFT gradient, (ASA, deprecated), ECA, 1-Electron XAS/XES, NRVS
   Peter Pinski           : DLPNO-MP2, DLPNO-MP2 Gradient
   Christoph Reimann      : Effective Core Potentials
   Marius Retegan         : Local ZFS, SOC
   Christoph Riplinger    : Optimizer, TS searches, QM/MM, DLPNO-CCSD(T), (RO)-DLPNO pert. Triples
   Michael Roemelt        : Original ROCIS implementation
   Masaaki Saitow         : Open-shell DLPNO-CCSD energy and density
   Barbara Sandhoefer     : DKH picture change effects
   Kantharuban Sivalingam : CASSCF convergence/infrastructure, NEVPT2 and variants, FIC-MRCI
   Bernardo de Souza      : ESD, SOC TD-DFT
   Georgi Stoychev        : AutoAux, RI-MP2 NMR, DLPNO-MP2 response, X2C
   Van Anh Tran           : RI-MP2 g-tensors
   Willem Van den Heuvel  : Paramagnetic NMR
   Zikuan Wang            : NOTCH, Electric field optimization 
   Frank Wennmohs         : Technical directorship and infrastructure
   Hang Xu                : AUTO-CI-Response properties 


 We gratefully acknowledge several colleagues who have allowed us to
 interface, adapt or use parts of their codes:
   Stefan Grimme, W. Hujo, H. Kruse, P. Pracht,  : VdW corrections, initial TS optimization,
                  C. Bannwarth, S. Ehlert,         DFT functionals, gCP, sTDA/sTD-DF
                  L. Wittmann, M. Mueller
   Ed Valeev, F. Pavosevic, A. Kumar             : LibInt (2-el integral package), F12 methods
   Garnet Chan, S. Sharma, J. Yang, R. Olivares  : DMRG
   Ulf Ekstrom                                   : XCFun DFT Library
   Mihaly Kallay                                 : mrcc  (arbitrary order and MRCC methods)
   Frank Weinhold                                : gennbo (NPA and NBO analysis)
   Simon Mueller                                 : openCOSMO-RS
   Christopher J. Cramer and Donald G. Truhlar   : smd solvation model
   Lars Goerigk                                  : TD-DFT with DH, B97 family of functionals
   V. Asgeirsson, H. Jonsson                     : NEB implementation
   FAccTs GmbH                                   : IRC, NEB, NEB-TS, DLPNO-Multilevel, CI-OPT
                                                   MM, QMMM, 2- and 3-layer-ONIOM, Crystal-QMMM,
                                                   LR-CPCM, SF, NACMEs, symmetry and pop. for TD-DFT,
                                                   nearIR, NL-DFT gradient (VV10), updates on ESD,
                                                   ML-optimized integration grids, MBIS, APM,
                                                   GOAT, DOCKER, SOLVATOR, interface openCOSMO-RS
   S Lehtola, MJT Oliveira, MAL Marques          : LibXC Library
   Liviu Ungur et al                             : ANISO software


 Your calculation uses the libint2 library for the computation of 2-el integrals
 For citations please refer to: http://libint.valeyev.net

 Your ORCA version has been built with support for libXC version: 6.2.2
 For citations please refer to: https://libxc.gitlab.io

 This ORCA versions uses:
   CBLAS   interface :  Fast vector & matrix operations
   LAPACKE interface :  Fast linear algebra routines
   SCALAPACK package :  Parallel linear algebra routines
   Shared memory     :  Shared parallel matrices
   BLAS/LAPACK       :  OpenBLAS 0.3.27  USE64BITINT DYNAMIC_ARCH NO_AFFINITY SkylakeX SINGLE_THREADED
        Core in use  :  SkylakeX
   Copyright (c) 2011-2014, The OpenBLAS Project




***************************************
The coordinates will be read from file: xtb_opt.xyz
***************************************


Your calculation utilizes the geometrical counterpoise correction gCP
Please cite in your paper:
H.Kruse, S. Grimme J.Chem.Phys., 136, (2012), 154101 
   

Your calculation utilizes the atom-pairwise dispersion correction
based on EEQ partial charges (D4)


Your calculation utilizes the SMD solvation module
Please cite in your paper:
A.V. Marenich, C.J. Cramer, D.G. Truhlar J. Phys. Chem. B, 113, (2009), 6378 

================================================================================

----- Orbital basis set information -----
Your calculation utilizes the basis: def2-mTZVPP
   Stefan Grimme, Andreas Hansen, Sebastian Ehlert, and Jan-Michael Mewes 
   J. Chem. Phys. 154, 064103 (2021). DOI: 10.1063/5.0040021

----- AuxJ basis set information -----
Your calculation utilizes the auxiliary basis: def2/J
   F. Weigend, Phys. Chem. Chem. Phys. 8, 1057 (2006).

================================================================================
                                        WARNINGS
                       Please study these warnings very carefully!
================================================================================

WARNING: Old DensityContainer found on disk!
         Will remove this file - 
         If you want to keep old densities, please start your calculation with a different basename. 

Using LibXC functional ID 497 : Re-regularized SCAN exchange by Furness et al
[ 1]  J. W. Furness, A. D. Kaplan, J. Ning, J. P. Perdew, and J. Sun.,  J. Phys. Chem. Lett. 11, 8208-8215 (2020)
[ 2]  J. W. Furness, A. D. Kaplan, J. Ning, J. P. Perdew, and J. Sun.,  J. Phys. Chem. Lett. 11, 9248-9248 (2020)
Using LibXC functional ID 498 : Re-regularized SCAN correlation by Furness et al
[ 1]  J. W. Furness, A. D. Kaplan, J. Ning, J. P. Perdew, and J. Sun.,  J. Phys. Chem. Lett. 11, 8208-8215 (2020)
[ 2]  J. W. Furness, A. D. Kaplan, J. Ning, J. P. Perdew, and J. Sun.,  J. Phys. Chem. Lett. 11, 9248-9248 (2020)
Using LibXC functional ID 497 : Re-regularized SCAN exchange by Furness et al
[ 1]  J. W. Furness, A. D. Kaplan, J. Ning, J. P. Perdew, and J. Sun.,  J. Phys. Chem. Lett. 11, 8208-8215 (2020)
[ 2]  J. W. Furness, A. D. Kaplan, J. Ning, J. P. Perdew, and J. Sun.,  J. Phys. Chem. Lett. 11, 9248-9248 (2020)
Using LibXC functional ID 498 : Re-regularized SCAN correlation by Furness et al
[ 1]  J. W. Furness, A. D. Kaplan, J. Ning, J. P. Perdew, and J. Sun.,  J. Phys. Chem. Lett. 11, 8208-8215 (2020)
[ 2]  J. W. Furness, A. D. Kaplan, J. Ning, J. P. Perdew, and J. Sun.,  J. Phys. Chem. Lett. 11, 9248-9248 (2020)

================================================================================
                                       INPUT FILE
================================================================================
NAME = xtb_opt.inp
|  1> ! r2scan-3c def2/J RI DEFGRID2 scfconv7 ENGRAD tightSCF miniprint
|  2> %cpcm
|  3>     smd true
|  4>     smdsolvent "water"
|  5> end
|  6> * xyzfile 0 1 xtb_opt.xyz
|  7> 
|  8>                          ****END OF INPUT****
================================================================================

                     *******************************
                     * Energy+Gradient Calculation *
                     *******************************

---------------------------------
CARTESIAN COORDINATES (ANGSTROEM)
---------------------------------
  C     -3.023146    0.141460    0.471320
  C     -2.078297    0.384908   -0.703862
  C     -0.843087   -0.519841   -0.698664
  C      0.048838   -0.418174    0.547423
  C      1.306104   -1.291566    0.395041
  C      2.268844   -0.449589   -0.472855
  C      1.826120    1.026982   -0.274657
  C      0.667406    0.975816    0.741893
  H     -3.939666    0.732069    0.369198
  H     -3.310207   -0.915472    0.529075
  H     -2.560962    0.412863    1.426081
  H     -2.621770    0.218631   -1.642479
  H     -1.771379    1.438241   -0.715701
  H     -1.172204   -1.564234   -0.794184
  H     -0.241028   -0.305068   -1.591594
  H     -0.531021   -0.718327    1.428076
  H      1.748084   -1.464215    1.383364
  H      1.087295   -2.271025   -0.044201
  H      3.310648   -0.608362   -0.179015
  H      2.190337   -0.735350   -1.526429
  H      2.644903    1.660026    0.079888
  H      1.482995    1.454015   -1.222667
  H      1.064070    1.045436    1.762072
  H     -0.046310    1.795661    0.613418

----------------------------
CARTESIAN COORDINATES (A.U.)
----------------------------
  NO LB      ZA    FRAG     MASS         X           Y           Z
   0 C     6.0000    0    12.011   -5.712918    0.267320    0.890666
   1 C     6.0000    0    12.011   -3.927413    0.727371   -1.330106
   2 C     6.0000    0    12.011   -1.593204   -0.982358   -1.320284
   3 C     6.0000    0    12.011    0.092290   -0.790235    1.034480
   4 C     6.0000    0    12.011    2.468180   -2.440706    0.746520
   5 C     6.0000    0    12.011    4.287493   -0.849600   -0.893567
   6 C     6.0000    0    12.011    3.450866    1.940715   -0.519027
   7 C     6.0000    0    12.011    1.261215    1.844025    1.401974
   8 H     1.0000    0     1.008   -7.444889    1.383409    0.697683
   9 H     1.0000    0     1.008   -6.255385   -1.729992    0.999807
  10 H     1.0000    0     1.008   -4.839517    0.780198    2.694903
  11 H     1.0000    0     1.008   -4.954427    0.413153   -3.103836
  12 H     1.0000    0     1.008   -3.347421    2.717881   -1.352478
  13 H     1.0000    0     1.008   -2.215144   -2.955973   -1.500791
  14 H     1.0000    0     1.008   -0.455476   -0.576494   -3.007677
  15 H     1.0000    0     1.008   -1.003484   -1.357442    2.698672
  16 H     1.0000    0     1.008    3.303401   -2.766966    2.614178
  17 H     1.0000    0     1.008    2.054690   -4.291615   -0.083528
  18 H     1.0000    0     1.008    6.256218   -1.149638   -0.338289
  19 H     1.0000    0     1.008    4.139136   -1.389610   -2.884532
  20 H     1.0000    0     1.008    4.998143    3.136995    0.150967
  21 H     1.0000    0     1.008    2.802455    2.747691   -2.310506
  22 H     1.0000    0     1.008    2.010801    1.975587    3.329833
  23 H     1.0000    0     1.008   -0.087514    3.393307    1.159192

------------------------------------------------------------------------------
                   ___                                                        
                  /   \      - P O W E R E D   B Y -                         
                 /     \                                                     
                 |  |  |   _    _      __       _____    __    __             
                 |  |  |  | |  | |    /  \     |  _  \  |  |  /  |          
                  \  \/   | |  | |   /    \    | | | |  |  | /  /          
                 / \  \   | |__| |  /  /\  \   | |_| |  |  |/  /          
                |  |  |   |  __  | /  /__\  \  |    /   |      \           
                |  |  |   | |  | | |   __   |  |    \   |  |\   \          
                \     /   | |  | | |  |  |  |  | |\  \  |  | \   \       
                 \___/    |_|  |_| |__|  |__|  |_| \__\ |__|  \__/        
                                                                              
                      - O R C A' S   B I G   F R I E N D -                    
                                      &                                       
                       - I N T E G R A L  F E E D E R -                       
                                                                              
 v1 FN, 2020, v2 2021, v3 2022-2024                                           
------------------------------------------------------------------------------


----------------------
SHARK INTEGRAL PACKAGE
----------------------

Number of atoms                             ...     24
Number of basis functions                   ...    232
Number of shells                            ...    120
Maximum angular momentum                    ...      2
Integral batch strategy                     ... SHARK/LIBINT Hybrid
RI-J (if used) integral strategy            ... SPLIT-RIJ (Revised 2003 algorithm where possible)
Printlevel                                  ...      1
Contraction scheme used                     ... SEGMENTED contraction
Prescreening option                         ... SCHWARTZ
   Thresh                                   ... 3.000e-11
   Tcut                                     ... 1.000e-12
   Tpresel                                  ... 1.000e-12 
Coulomb Range Separation                    ... NOT USED
Exchange Range Separation                   ... NOT USED
Multipole approximations                    ... NOT USED
Finite Nucleus Model                        ... NOT USED
CABS basis                                  ... NOT available
Auxiliary Coulomb fitting basis             ... AVAILABLE
   # of basis functions in Aux-J            ...    568
   # of shells in Aux-J                     ...    200
   Maximum angular momentum in Aux-J        ...      4
Auxiliary J/K fitting basis                 ... NOT available
Auxiliary Correlation fitting basis         ... NOT available
Auxiliary 'external' fitting basis          ... NOT available

Checking pre-screening integrals            ... done (  0.0 sec) Dimension = 120
Check shell pair data                       ... done (  0.0 sec)
Shell pair information
Shell pair cut-off parameter TPreSel        ...   1.0e-12
Total number of shell pairs                 ...      7260
Shell pairs after pre-screening             ...      6647
Total number of primitive shell pairs       ...     25424
Primitive shell pairs kept                  ...     16824
          la=0 lb=0:   2402 shell pairs
          la=1 lb=0:   2632 shell pairs
          la=1 lb=1:    752 shell pairs
          la=2 lb=0:    532 shell pairs
          la=2 lb=1:    295 shell pairs
          la=2 lb=2:     34 shell pairs

Calculating one electron integrals          ... done (  0.0 sec)
Calculating RI/J V-Matrix + Cholesky decomp.... done (  0.1 sec)
Calculating Nuclear repulsion               ... done (  0.0 sec) ENN=    403.456555174948 Eh

Diagonalization of the overlap matrix:
Smallest eigenvalue                        ... 5.390e-05
Time for diagonalization                   ...    0.005 sec
Threshold for overlap eigenvalues          ... 1.000e-07
Number of eigenvalues below threshold      ... 0
Time for construction of square roots      ...    0.019 sec
Total time needed                          ...    0.033 sec

-------------------
DFT GRID GENERATION
-------------------

General Integration Accuracy     IntAcc      ... 4.388
Radial Grid Type                 RadialGrid  ... OptM3 with GC (2021)
Angular Grid (max. ang.)         AngularGrid ... 4 (Lebedev-302)
Angular grid pruning method      GridPruning ... 4 (adaptive)
Weight generation scheme         WeightScheme... mBecke (2022)
Basis function cutoff            BFCut       ... 1.0000e-11
Integration weight cutoff        WCut        ... 1.0000e-14
Partially contracted basis set               ... off
Rotationally invariant grid construction     ... off
Angular grids for H and He will be reduced by one unit

Total number of grid points                  ...    98646
Total number of batches                      ...     1553
Average number of points per batch           ...       63
Average number of grid points per atom       ...     4110
Initializing property integral containers    ... done (  0.0 sec)

SHARK setup successfully completed in   1.4 seconds

Maximum memory used throughout the entire STARTUP-calculation: 42.4 MB
Occupation numbers will be reassigned to an Aufbau configuration
             **** ENERGY FILE WAS UPDATED (xtb_opt.en.tmp) ****
Finished Guess after   0.3 sec
Maximum memory used throughout the entire GUESS-calculation: 16.6 MB
--------------------
CPCM SOLVATION MODEL
--------------------
CPCM parameters:
  Epsilon                                         ...      78.3550
  Refrac                                          ...       1.3328
  Rsolv                                           ...       1.3000
  Surface type                                    ... GAUSSIAN VDW
  Discretization scheme                           ... Constant charge density
    Threshold for H atoms                         ...       5.0000 (charges/Ang^2)
    Threshold for non-H atoms                     ...       5.0000 (charges/Ang^2)
  Epsilon function type                           ...         CPCM
Solvent:                                          ... WATER
SMD-CDS solvent descriptors:
  Soln                                            ...       1.3328
  Soln25                                          ...       1.3323
  Sola                                            ...       0.0000
  Solb                                            ...       0.0000
  Solg                                            ...       0.0000
  Solc                                            ...       0.0000
  Solh                                            ...       0.0000
Radii:
  Scheme                                          ... Element-dependent radii
  Radius for C  used is    3.4960 Bohr (=   1.8500 Ang.)
  Radius for H  used is    2.2677 Bohr (=   1.2000 Ang.)
Calculating surface                               ...        done! (  0.0s)
Cavity surface points                             ...         1711
Cavity Volume                                     ...     966.8823
Cavity Surface-area                               ...     605.6746
Calculating surface distance matrix               ...        done! (  0.0s)
Performing Cholesky decomposition & store         ...        done! (  0.1s)
Overall time for CPCM initialization              ...                 0.1s

----------------------------------------D-I-I-S--------------------------------------------
Iteration    Energy (Eh)           Delta-E    RMSDP     MaxDP     DIISErr   Damp  Time(sec)
-------------------------------------------------------------------------------------------
               ***  Starting incremental Fock matrix formation  ***
                              *** Initializing SOSCF ***
---------------------------------------S-O-S-C-F--------------------------------------
Iteration    Energy (Eh)           Delta-E    RMSDP     MaxDP     MaxGrad    Time(sec)
--------------------------------------------------------------------------------------
    1    -314.3872996269233795     0.00e+00  4.55e-05  8.86e-04  4.63e-05     4.1
               *** Restarting incremental Fock matrix formation ***
    2    -314.3873113860983608    -1.18e-05  1.97e-05  3.46e-04  5.16e-05     4.0
    3    -314.3873119637049172    -5.78e-07  8.11e-06  1.21e-04  5.46e-05     3.3
    4    -314.3873121515428579    -1.88e-07  4.34e-06  6.40e-05  2.30e-05     3.3
                  *** Gradient check signals convergence ***

               *****************************************************
               *                     SUCCESS                       *
               *           SCF CONVERGED AFTER   4 CYCLES          *
               *****************************************************


SMD CDS free energy correction energy :                 3.10251     Kcal/mol
Total Energy after SMD CDS correction =              -314.382367988 Eh
             **** ENERGY FILE WAS UPDATED (xtb_opt.en.tmp) ****

----------------
TOTAL SCF ENERGY
----------------

Total Energy       :       -314.38236798839614 Eh           -8554.77915 eV

Components:
Nuclear Repulsion  :        403.45655517494794 Eh           10978.61101 eV
Electronic Energy  :       -717.84146059365617 Eh          -19533.45920 eV
One Electron Energy:      -1221.97045366299517 Eh          -33251.50652 eV
Two Electron Energy:        504.12899306933895 Eh           13718.04731 eV
CPCM Dielectric    :         -0.00240673283466 Eh              -0.06549 eV
SMD CDS (Gcds)     :          0.00494416314670 Eh               0.13454 eV

Virial components:
Potential Energy   :       -627.08104070399577 Eh          -17063.74262 eV
Kinetic Energy     :        312.69867271559968 Eh            8508.96347 eV
Virial Ratio       :          2.00538440172507

DFT components:
N(Alpha)           :       32.000114989219 electrons
N(Beta)            :       32.000114989219 electrons
N(Total)           :       64.000229978438 electrons
E(X)               :      -47.322933010193 Eh       
E(C)               :       -1.991835410173 Eh       
E(XC)              :      -49.314768420366 Eh       

CPCM Solvation Model Properties:
Surface-charge          :         -0.05312481646991
Corrected charge        :          0.00000000000000
Outlying charge corr.   :          0.00021218424433 Eh               0.00577 eV
Free-energy (cav+disp)  :          0.00494416314670 Eh               0.13454 eV

---------------
SCF CONVERGENCE
---------------

  Last Energy change         ...    1.8784e-07  Tolerance :   1.0000e-07
  Last MAX-Density change    ...    6.3991e-05  Tolerance :   1.0000e-07
  Last RMS-Density change    ...    4.3422e-06  Tolerance :   5.0000e-09
  Last DIIS Error            ...    9.4096e-04  Tolerance :   1.0000e-07
  Last Orbital Gradient      ...    2.2951e-05  Tolerance :   1.0000e-04
  Last Orbital Rotation      ...    2.6312e-05  Tolerance :   1.0000e-04


----------------
ORBITAL ENERGIES
----------------

  NO   OCC          E(Eh)            E(eV) 
   0   2.0000     -10.019570      -272.6464 
   1   2.0000     -10.016719      -272.5688 
   2   2.0000     -10.014908      -272.5195 
   3   2.0000     -10.014806      -272.5167 
   4   2.0000     -10.013296      -272.4756 
   5   2.0000     -10.013187      -272.4727 
   6   2.0000     -10.012706      -272.4596 
   7   2.0000     -10.009619      -272.3756 
   8   2.0000      -0.796718       -21.6798 
   9   2.0000      -0.737418       -20.0662 
  10   2.0000      -0.673669       -18.3315 
  11   2.0000      -0.661879       -18.0107 
  12   2.0000      -0.622644       -16.9430 
  13   2.0000      -0.551182       -14.9984 
  14   2.0000      -0.518512       -14.1094 
  15   2.0000      -0.491116       -13.3639 
  16   2.0000      -0.448404       -12.2017 
  17   2.0000      -0.434799       -11.8315 
  18   2.0000      -0.405674       -11.0389 
  19   2.0000      -0.389836       -10.6080 
  20   2.0000      -0.375232       -10.2106 
  21   2.0000      -0.362192        -9.8558 
  22   2.0000      -0.344807        -9.3827 
  23   2.0000      -0.317884        -8.6501 
  24   2.0000      -0.308888        -8.4053 
  25   2.0000      -0.302170        -8.2225 
  26   2.0000      -0.295700        -8.0464 
  27   2.0000      -0.293201        -7.9784 
  28   2.0000      -0.277149        -7.5416 
  29   2.0000      -0.273983        -7.4555 
  30   2.0000      -0.265951        -7.2369 
  31   2.0000      -0.262083        -7.1316 
  32   0.0000       0.083353         2.2682 
  33   0.0000       0.102355         2.7852 
  34   0.0000       0.111672         3.0387 
  35   0.0000       0.122793         3.3414 
  36   0.0000       0.127795         3.4775 
  37   0.0000       0.131302         3.5729 
  38   0.0000       0.134043         3.6475 
  39   0.0000       0.140260         3.8167 
  40   0.0000       0.151282         4.1166 
  41   0.0000       0.156579         4.2607 
  42   0.0000       0.169520         4.6129 
*Only the first 10 virtual orbitals were printed.
[...]
   8   2.0000      -0.796644       -21.6778 
   9   2.0000      -0.737418       -20.0662 
  10   2.0000      -0.673730       -18.3331 
  11   2.0000      -0.661742       -18.0069 
  12   2.0000      -0.622745       -16.9457 
  13   2.0000      -0.551199       -14.9989 
  14   2.0000      -0.518533       -14.1100 
  15   2.0000      -0.490701       -13.3526 
  16   2.0000      -0.448493       -12.2041 
  17   2.0000      -0.435033       -11.8378 
  18   2.0000      -0.405570       -11.0361 
  19   2.0000      -0.390380       -10.6228 
  20   2.0000      -0.374418       -10.1884 
  21   2.0000      -0.362171        -9.8552 
  22   2.0000      -0.344851        -9.3839 
  23   2.0000      -0.318307        -8.6616 
  24   2.0000      -0.308845        -8.4041 
  25   2.0000      -0.301551        -8.2056 
  26   2.0000      -0.295603        -8.0438 
  27   2.0000      -0.293426        -7.9845 
  28   2.0000      -0.277788        -7.5590 
  29   2.0000      -0.273189        -7.4338 
  30   2.0000      -0.265846        -7.2340 
  31   2.0000      -0.262064        -7.1311 
  32   0.0000       0.083214         2.2644 
  33   0.0000       0.102370         2.7856 
  34   0.0000       0.112180         3.0526 
  35   0.0000       0.123008         3.3472 
  36   0.0000       0.127505         3.4696 
  37   0.0000       0.131692         3.5835 
  38   0.0000       0.134409         3.6574 
  39   0.0000       0.141368         3.8468 
  40   0.0000       0.151153         4.1131 
  41   0.0000       0.157561         4.2874 
  42   0.0000       0.168592         4.5876 
*Only the first 10 virtual orbitals were printed.
Total SCF time: 0 days 0 hours 0 min 9 sec 
Finished LeanSCF after   9.5 sec

Maximum memory used throughout the entire LEANSCF-calculation: 37.0 MB


-------------------------------------------------------------------------------
                          DFT DISPERSION CORRECTION                            
                                                                               
                                DFTD4 V3.4.0                                   
-------------------------------------------------------------------------------
-------------------------   ----------------
Dispersion correction           -0.007247592
-------------------------   ----------------

------------------   -----------------
gCP correction             0.010166791
------------------   -----------------

-------------------------   --------------------
FINAL SINGLE POINT ENERGY      -314.379478969696
-------------------------   --------------------

------------------------------------------------------------------------------
                         ORCA SCF GRADIENT CALCULATION
------------------------------------------------------------------------------

Nuc. rep. gradient        (SHARK) ... done (  0.0 sec)
HCore & Overlap gradient  (SHARK) ... done (  0.4 sec)
Split-RIJ-J gradient      (SHARK) ... done (  2.0 sec)
XC gradient                       ... done (  8.6 sec)
CPCM gradient                     ... done (  1.2 sec)
SMD gradient                      ... done (  0.0 sec)
Dispersion correction             ... done (  0.0 sec)

-------------------
DISPERSION GRADIENT
-------------------

   1   C   :   -0.000117533    0.000005859    0.000025353
   2   C   :   -0.000107019    0.000021668   -0.000043894
   3   C   :   -0.000047999   -0.000036674   -0.000047561
   4   C   :    0.000014033   -0.000025496    0.000030140
   5   C   :    0.000065238   -0.000071435    0.000023343
   6   C   :    0.000094545   -0.000019229   -0.000021566
   7   C   :    0.000086325    0.000058618   -0.000012800
   8   C   :    0.000046528    0.000057817    0.000047733
   9   H   :   -0.000040146    0.000008025    0.000006009
  10   H   :   -0.000046661   -0.000005110    0.000007889
  11   H   :   -0.000052643    0.000007487    0.000019029
  12   H   :   -0.000040449    0.000002699   -0.000026132
  13   H   :   -0.000046349    0.000020416   -0.000018017
  14   H   :   -0.000029952   -0.000032920   -0.000020599
  15   H   :   -0.000011751   -0.000010054   -0.000033273
  16   H   :   -0.000005376   -0.000018757    0.000030277
  17   H   :    0.000027186   -0.000030993    0.000023607
  18   H   :    0.000022184   -0.000046666    0.000001619
  19   H   :    0.000041447   -0.000008552   -0.000005124
  20   H   :    0.000041130   -0.000011884   -0.000023214
  21   H   :    0.000035123    0.000032295   -0.000000291
  22   H   :    0.000037099    0.000033297   -0.000018717
  23   H   :    0.000024600    0.000026079    0.000037805
  24   H   :    0.000010440    0.000043509    0.000018384

Difference to translation invariance:
           :   -0.0000000000    0.0000000000   -0.0000000000

Difference to rotation invariance:
           :    0.0000000000    0.0000000000   -0.0000000000

Norm of the Dispersion gradient    ...    0.0003335253
RMS gradient                       ...    0.0000393063
MAX gradient                       ...    0.0001175335
gCP correction                   ... done

------------------
CARTESIAN GRADIENT
------------------

   1   C   :    0.000094329   -0.000054323    0.000189912
   2   C   :   -0.000058587   -0.000086650    0.000006805
   3   C   :   -0.000000762    0.000138281   -0.000081864
   4   C   :   -0.000031009   -0.000040335    0.000156182
   5   C   :    0.000042344    0.000042398    0.000044766
   6   C   :    0.000106516   -0.000070797   -0.000102551
   7   C   :   -0.000005492    0.000047911   -0.000033835
   8   C   :    0.000002848   -0.000028465   -0.000067091
   9   H   :    0.000010318   -0.000084032    0.000024975
  10   H   :    0.000142497    0.000247677   -0.000031911
  11   H   :   -0.000118348   -0.000060227   -0.000278099
  12   H   :    0.000056818    0.000015949    0.000130075
  13   H   :   -0.000105240   -0.000147335   -0.000026379
  14   H   :    0.000013741    0.000000267   -0.000011542
  15   H   :    0.000017289    0.000003247   -0.000023540
  16   H   :   -0.000006653    0.000023042    0.000008663
  17   H   :   -0.000035712   -0.000050213   -0.000029912
  18   H   :    0.000001110    0.000054835    0.000018359
  19   H   :   -0.000166663   -0.000027380   -0.000037465
  20   H   :    0.000021039    0.000052553    0.000179059
  21   H   :    0.000026504   -0.000057459   -0.000020243
  22   H   :    0.000066230    0.000004987   -0.000012903
  23   H   :   -0.000045644    0.000034791    0.000030326
  24   H   :   -0.000027472    0.000041278   -0.000031787

Difference to translation invariance:
           :    0.0000000000   -0.0000000000    0.0000000000

Difference to rotation invariance:
           :   -0.0007046196   -0.0003376295    0.0003828097

Norm of the Cartesian gradient     ...    0.0006957179
RMS gradient                       ...    0.0000819911
MAX gradient                       ...    0.0002780993

-------
TIMINGS
-------

Total SCF gradient time     ....       13.381 sec

Densities                   ....       0.001 sec  (  0.0%)
One electron gradient       ....       0.430 sec  (  3.2%)
RI-J Coulomb gradient       ....       1.992 sec  ( 14.9%)
XC gradient                 ....       8.641 sec  ( 64.6%)
CPCM gradient               ....       1.236 sec  (  9.2%)
   A-Matrix (El+Nuc)        ....       0.093 sec  (  0.7%)
   Potential                ....       1.143 sec  (  8.5%)
SMD gradient                ....       0.018 sec  (  0.1%)

Maximum memory used throughout the entire SCFGRAD-calculation: 36.9 MB

------------------------------------------------------------------------------
                              ORCA PROPERTY CALCULATIONS
------------------------------------------------------------------------------

GBWName                                 ... xtb_opt.gbw
Number of atoms                         ...     24
Number of basis functions               ...    232
Max core memory                         ...   1024 MB

Electric properties:
Dipole moment                           ... YES
Quadrupole moment                       ...  NO
Static polarizability (Dipole/Dipole)   ...  NO
Static polarizability (Dipole/Quad.)    ...  NO
Static polarizability (Quad./Quad.)     ...  NO
Static polarizability (Velocity)        ...  NO

Atomic electric properties:
Dipole moment                           ...  NO
Quadrupole moment                       ...  NO
Static polarizability                   ...  NO

Choice of electric origin               ... Center of mass
Position of electric origin             ...    -0.012650    -0.031294    -0.003073

General magnetic properties:
Magnetizability                         ...  NO

EPR properties:
g-Tensor (aka g-matrix)                 ...  NO
Zero-Field splitting spin-orbit         ...  NO
Zero-field splitting spin-spin          ...  NO
Hyperfine couplings                     ...  NO (   0 nuclei)
Quadrupole couplings                    ...  NO (   0 nuclei)
Contact density                         ...  NO (   0 nuclei)

NMR properties:
Chemical shifts                         ...  NO (   0 nuclei)
Spin-rotation constants                 ...  NO (   0 nuclei)
Spin-spin couplings                     ...  NO (   0 nuclei,    0 pairs)

Choice of magnetic origin               ... GIAO
Position of magnetic origin             ...     0.000000     0.000000     0.000000

Properties with geometric perturbations:
SCF Hessian                             ...  NO
IR spectrum                             ...  NO
VCD spectrum                            ...  NO
X-ray spectroscopy properties:
SCF XES/XAS/RIXS spectra                ...  NO


-------------
DIPOLE MOMENT
-------------

Method             : SCF
Type of density    : Electron Density
Multiplicity       :   1
Irrep              :   0
Energy             :  -314.3823981686970228 Eh
Relativity type    : 
Basis              : AO
                                X                 Y                 Z
Electronic contribution:      2.364029565      -0.430645694       0.078948354
Nuclear contribution   :     -2.389050835       0.432505969      -0.082384184
                        -----------------------------------------
Total Dipole Moment    :     -0.025021269       0.001860275      -0.003435830
                        -----------------------------------------
Magnitude (a.u.)       :      0.025324484
Magnitude (Debye)      :      0.064369722



--------------------
Rotational spectrum 
--------------------
 
Rotational constants in cm-1:             0.131118             0.040051             0.037621 
Rotational constants in MHz :          3930.817075          1200.692174          1127.835896 

Dipole components along the rotational axes: 
x,y,z [a.u.] :    -0.025079     0.000195    -0.003513 
x,y,z [Debye]:    -0.063745     0.000496    -0.008930 

 

Dipole moment calculation done in   0.0 sec 

Maximum memory used throughout the entire PROP-calculation: 15.5 MB

--------------------------------
SUGGESTED CITATIONS FOR THIS RUN
--------------------------------

Below you find a list of papers that are relevant to this ORCA run
We neither can nor want to force you to cite these papers, but we appreciate if you do
You receive ORCA, which is the product of decades of hard work by many enthusiastic individuals, for free
The only thing we kindly ask in return is that you cite our papers,
We deeply appreciate it, if you show your appreciation for ORCA by not just citing the generic ORCA reference.

Please note that relegating all ORCA citations to the supporting information does *not* help us.
SI sections are not indexed - citations you put there will not count into any citation statistics
But we need these citations in order to attract the funding resources that allow us to do what we are doing

Therefore, if you are a happy ORCA user, please consider citing a few of the papers listed below in the main body of your paper

In addition to the list printed below, the program has created the file xtb_opt.bibtex that contains the list in bibtex format
You can import this file easily into all common literature databanks and citation aid programs


List of essential papers. We consider these as the minimum necessary citations

  1. Neese,F.
     Software update: the ORCA program system, version 5.0
     WIRES Comput. Molec. Sci., 2022 12(1)e1606
     doi.org/10.1002/wcms.1606
  2. Grimme,S.; Hansen,A.; Ehlert,S.; Mewes,J.
     r2SCAN-3c: A 'Swiss army knife' composite electronic-structure method
     J. Chem. Phys., 2021 154 064103
     doi.org/10.1063/5.0040021

List of papers to cite with high priority. The work reported in these papers was absolutely
necessary for this run to complete.
Our perspective: the developers of density functionals and basis sets usually get cited in chemistry papers
Good! But without the algorithms to do something with them, the functionals or basis sets would not do anything.
Hence, in our opinion, the algorithm design and method developments papers are equally worthy of getting cited

  1. Neese,F.
     An improvement of the resolution of the identity approximation for the formation of the Coulomb matrix
     J. Comp. Chem., 2003 24(14)1740-1747
     doi.org/10.1002/jcc.10318
  2. Garcia-Rates,M.; Neese,F.
     Effect of the Solute Cavity on the Solvation Energy and its Derivatives within the Framework of the Gaussian Charge Scheme
     J. Comput. Chem., 2020 41 922-939
     doi.org/10.1002/jcc.26139
  3. Neese,F.
     The SHARK Integral Generation and Digestion System
     J. Comp. Chem., 2022  1-16
     doi.org/10.1002/jcc.26942
  4. Lehtola,S.; Steigemann,C.; Oliveira,M.; Marques,M.
     Recent developments in Libxc - A comprehensive library of functionals for density functional theory
     Software X, 2018 7 
     doi.org/10.1016/j.softx.2017.11.002
  5. Caldeweyher,E.; Bannwarth,C.; Grimme,S.
     Extension of the D3 dispersion coefficient model
     J. Chem. Phys., 2017 147 034112-XXXX
     doi.org/10.1063/1.4993215
  6. Caldeweyher,E.; Ehlert,S.; Hansen,A.; Neugebauer,H.; Spicher,S.; Bannwarth,C.; Grimme,S.
     A generally applicable atomic-charge dependent London dispersion correction
     J. Chem. Phys., 2019 150 154122-XXXX
     doi.org/10.1063/1.5090222
  7. Caldeweyher,E.; Mewes,J.; Ehlert,S.; Grimme,S.
     Extension and evaluation of the D4 London-dispersion model for periodic systems
     Phys. Chem. Chem. Phys., 2020 22(16)8499-8512
     doi.org/10.1039/D0CP00502A

List of suggested additional citations. These are papers that are important in the 'surrounding' of 
of this run, or papers that preceded the highly important papers. If you like your results we are grateful for a citation.

  1. Neese,F.
     The ORCA program system
     WIRES Comput. Molec. Sci., 2012 2(1)73-78
     doi.org/10.1002/wcms.81
  2. Neese,F.
     Software update: the ORCA program system, version 4.0
     WIRES Comput. Molec. Sci., 2018 8(1)1-6
     doi.org/10.1002/wcms.1327
  3. Neese,F.; Wennmohs,F.; Becker,U.; Riplinger,C.
     The ORCA quantum chemistry program package
     J. Chem. Phys., 2020 152 Art. No. L224108
     doi.org/10.1063/5.0004608

List of optional additional citations

  1. Neese,F.
     Approximate second-order SCF convergence for spin unrestricted wavefunctions
     Chem. Phys. Lett., 2000 325(1-3)93-98
     doi.org/10.1016/s0009-2614(00)00662-x

Timings for individual modules:

Sum of individual times          ...       24.970 sec (=   0.416 min)
Startup calculation              ...        1.413 sec (=   0.024 min)   5.7 %
SCF iterations                   ...        9.956 sec (=   0.166 min)  39.9 %
Property calculations            ...        0.114 sec (=   0.002 min)   0.5 %
SCF Gradient evaluation          ...       13.487 sec (=   0.225 min)  54.0 %
                             ****ORCA TERMINATED NORMALLY****
TOTAL RUN TIME: 0 days 0 hours 0 minutes 25 seconds 939 msec
  ------------------------------------------------------------------------
          * successful ORCA run, taking over control again...

         :::::::::::::::::::::::::::::::::::::::::::::::::::::
         ::                  ORCA SUMMARY                   ::
         :::::::::::::::::::::::::::::::::::::::::::::::::::::
         :: total energy            -314.379478969696 Eh    ::
         :: gradient norm              0.000695717875 Eh/a0 ::
         :: HOMO-LUMO gap              0.000000000000 eV    ::
         :::::::::::::::::::::::::::::::::::::::::::::::::::::

           -------------------------------------------------
          |                Property Printout                |
           -------------------------------------------------
           -------------------------------------------------
          |                Geometry Summary                 |
           -------------------------------------------------

      molecular mass/u    :      112.2129392
   center of mass at/Å    :       -0.0066933      -0.0165601      -0.0016263
  moments of inertia/u·Å² :        0.1285641E+03   0.4208941E+03   0.4480832E+03
rotational constants/cm⁻¹ :        0.1311224E+00   0.4005196E-01   0.3762165E-01

 * 22 selected distances

     #   Z          #   Z                                           value/Å
     1   6 C        2   6 C                                       1.5271706
     2   6 C        3   6 C                                       1.5313670
     3   6 C        4   6 C                                       1.5356931
     4   6 C        5   6 C                                       1.5386847
     4   6 C        8   6 C                                       1.5369585
     7   6 C        8   6 C                                       1.5407146 (max)
     1   6 C        9   1 H                                       1.0949130
     1   6 C       10   1 H                                       1.0961318
     1   6 C       11   1 H                                       1.0944281
     2   6 C       12   1 H                                       1.0969842
     2   6 C       13   1 H                                       1.0969677
     3   6 C       14   1 H                                       1.0990602
     3   6 C       15   1 H                                       1.0982345
     4   6 C       16   1 H                                       1.0961933
     5   6 C       17   1 H                                       1.0960960
     5   6 C       18   1 H                                       1.0954382
     6   6 C       19   1 H                                       1.0937155 (min)
     6   6 C       20   1 H                                       1.0939372
     7   6 C       21   1 H                                       1.0939432
     7   6 C       22   1 H                                       1.0949379
     8   6 C       23   1 H                                       1.0968710
     8   6 C       24   1 H                                       1.0944958

 * 2 distinct bonds (by element types)

   Z      Z             #   av. dist./Å        max./Å        min./Å
   1 H    6 C          16     1.0957717     1.0990602     1.0937155
   6 C    6 C           6     1.5350981     1.5407146     1.5271706


optimized geometry written to: xtbopt.coord


           -------------------------------------------------
          | TOTAL ENERGY             -314.379478969696 Eh   |
          | GRADIENT NORM               0.000695717875 Eh/α |
           -------------------------------------------------

------------------------------------------------------------------------
 * finished run on 2025/04/11 at 12:29:14.685     
------------------------------------------------------------------------
 total:
 * wall-time:     0 d,  0 h,  4 min, 32.802 sec
 *  cpu-time:     0 d,  0 h,  0 min,  4.936 sec
 * ratio c/w:     0.018 speedup
 SCF:
 * wall-time:     0 d,  0 h,  0 min, 25.543 sec
 *  cpu-time:     0 d,  0 h,  0 min,  2.329 sec
 * ratio c/w:     0.091 speedup
 ANC optimizer:
 * wall-time:     0 d,  0 h,  4 min,  7.220 sec
 *  cpu-time:     0 d,  0 h,  0 min,  2.520 sec
 * ratio c/w:     0.010 speedup

