17
 energy: -23.956413237767 gnorm: 0.034068388225 xtb: 6.7.1 (edcfbbe)
C           -2.61259413338213        0.66107695478655       -0.50157638260174
C           -1.73866323071753        0.21398568766727        0.67890627575199
C           -0.41992845237738       -0.30880886926572        0.18580604372601
O           -0.15124129134408       -1.49057267825480        0.03580550971402
O            0.42716640588513        0.69197028377321       -0.12262481165117
C            1.73932798075168        0.31981254972073       -0.65368915136113
C            2.69995212152584       -0.00619584470867        0.46669156987396
H           -2.78193784992938       -0.16653006304504       -1.19687895060699
H           -3.58350343108560        1.00242561040374       -0.13312556930421
H           -2.14421409231234        1.48428799865655       -1.04783140026306
H           -2.22906931333014       -0.58968614015600        1.23251658115579
H           -1.56439468569721        1.05606982958443        1.35488258522955
H            1.61498568596948       -0.51496275310536       -1.34791199164344
H            2.05832738919268        1.20433019564196       -1.20830901794904
H            2.79871215138816        0.84115541803429        1.15128133023506
H            2.37284635860659       -0.88381896202953        1.03057269068735
H            3.68538956055840       -0.21945852166354        0.04045388649264
17
 energy: -23.957466225244 gnorm: 0.013939739182 xtb: 6.7.1 (edcfbbe)
C           -2.60761004278659        0.66004850716035       -0.49876021915432
C           -1.73620932136240        0.21401959698165        0.67797168040022
C           -0.41968984808081       -0.30801349330731        0.17287096337507
O           -0.15034864111074       -1.48241031382997        0.02870277273331
O            0.42484305782448        0.68184789337996       -0.12798813663952
C            1.73113379304777        0.32470763389567       -0.64897772366341
C            2.70163482185781       -0.00447169215372        0.46631830163156
H           -2.77242415306291       -0.16824088422906       -1.18620211517191
H           -3.57197688782005        1.00276974314819       -0.13007768409767
H           -2.12902349790675        1.47414757895118       -1.03969346910270
H           -2.23148055792791       -0.58739386090233        1.22792998096681
H           -1.55404170129066        1.06009367944377        1.34198224047908
H            1.60566815437924       -0.52193814936855       -1.32892762029025
H            2.04520916249492        1.21009663988453       -1.20389795831023
H            2.78957857114125        0.83667411809813        1.15150229687148
H            2.36498150945378       -0.87908904673361        1.02062994889819
H            3.68091675485174       -0.21776725437881        0.04158593855988
17
 energy: -23.957671410902 gnorm: 0.005060955564 xtb: 6.7.1 (edcfbbe)
C           -2.59985290895943        0.66097689829349       -0.49949935038510
C           -1.73331280674950        0.21380334877248        0.68041807915433
C           -0.41478471797650       -0.31109570840389        0.17709519682467
O           -0.15185170033951       -1.48392184278284        0.02062619233697
O            0.42417646187667        0.67305797982347       -0.12314653262737
C            1.72051826757285        0.32752064817912       -0.64846183730792
C            2.69852973140833       -0.00112423279647        0.46631020072517
H           -2.76395869007139       -0.16798254026748       -1.18292926470035
H           -3.56143415284019        1.00737369225059       -0.13468327175547
H           -2.11404059615278        1.46912416209229       -1.03862676081453
H           -2.23146380665064       -0.58640444719759        1.22709355956718
H           -1.54566375878453        1.06010608190995        1.33962968871174
H            1.60051087445540       -0.52692357920544       -1.32100849098813
H            2.03103046759891        1.21280079978490       -1.20400616521723
H            2.78050607988037        0.83586529208391        1.15371881396306
H            2.35910679636385       -0.87713320753037        1.01366477851218
H            3.67314563307025       -0.21096264896604        0.03877436148642
17
 energy: -23.957702896115 gnorm: 0.001633557796 xtb: 6.7.1 (edcfbbe)
C           -2.59642592877573        0.66114459470626       -0.49972727734617
C           -1.73291285493991        0.21352795699117        0.68302812676813
C           -0.41669740368231       -0.31374819265194        0.17332064208297
O           -0.15585316067484       -1.48831874049601        0.01667711377206
O            0.42293894528073        0.66958538219901       -0.12083793358185
C            1.71621106392843        0.32810125120310       -0.64790237853527
C            2.69755710267488        0.00055379672281        0.46672876232677
H           -2.76223196062348       -0.16919635109461       -1.18150747067730
H           -3.55714190702776        1.01223340538579       -0.13688630385144
H           -2.10637671477939        1.46627808323466       -1.04007594581385
H           -2.23171317039866       -0.58490045905911        1.23115405553421
H           -1.54142088492918        1.06038272795510        1.34029140450431
H            1.60132522297235       -0.52721636526939       -1.32064873146170
H            2.02616861504844        1.21299634223252       -1.20384840509931
H            2.77618831979830        0.83677785952360        1.15558025923251
H            2.35934002080512       -0.87767071098205        1.01172826034033
H            3.67220586902519       -0.20544988456086        0.03789501929120
17
 energy: -23.957713865629 gnorm: 0.002090237910 xtb: 6.7.1 (edcfbbe)
C           -2.59273352903291        0.66188147211134       -0.50012038123093
C           -1.73352126870886        0.21220888512113        0.68570824552319
C           -0.41821360857104       -0.31823441424316        0.17571369971162
O           -0.16381809779277       -1.49435688555171        0.01022715749449
O            0.42203208990835        0.66517746230430       -0.11533815563462
C            1.71245438646682        0.32767730781762       -0.64742251095407
C            2.69783162057835        0.00299257889995        0.46621410206978
H           -2.76166247688343       -0.16996631772172       -1.18029691865426
H           -3.55300036837608        1.02062606552174       -0.14148872164885
H           -2.09613382975565        1.46286673773030       -1.04198365273897
H           -2.23570946943769       -0.58343180011061        1.23450467210299
H           -1.53946962438349        1.05895264461922        1.34248004726717
H            1.60194436287128       -0.52762239309366       -1.32114039700369
H            2.02074658730342        1.21234293100020       -1.20492952218894
H            2.77206933102012        0.83885864730220        1.15672363137184
H            2.36447598724151       -0.87838905726090        1.01002474128623
H            3.67386908125424       -0.19650316840616        0.03609316071261
17
 energy: -23.957717919083 gnorm: 0.001266238596 xtb: 6.7.1 (edcfbbe)
C           -2.59260667077652        0.66206819795360       -0.50010717351555
C           -1.73397132539362        0.21191812093246        0.68574142381020
C           -0.41936109922691       -0.31910418000976        0.17507384459818
O           -0.16578456388938       -1.49488351479024        0.00855480353080
O            0.42202204791799        0.66429124759504       -0.11419415018276
C            1.71267039408521        0.32685319909280       -0.64677417692123
C            2.69876575340917        0.00353008300276        0.46613097254732
H           -2.76312019869247       -0.16978831489856       -1.17982282745611
H           -3.55220665220539        1.02266495189754       -0.14170362655319
H           -2.09492808951987        1.46191280676342       -1.04256688630356
H           -2.23687719901236       -0.58326103346917        1.23462896970142
H           -1.53964978573115        1.05861083525642        1.34263462329755
H            1.60141616759640       -0.52835003227864       -1.32043624722427
H            2.01990304035009        1.21172626822617       -1.20480444777822
H            2.77196832218373        0.83938363566896        1.15677562832745
H            2.36775665245611       -0.87858299059872        1.01010489232858
H            3.67516438015115       -0.19390858430401        0.03573357527899
17
 energy: -23.957725034835 gnorm: 0.001623040094 xtb: 6.7.1 (edcfbbe)
C           -2.59199174221533        0.66366883233401       -0.50032371015732
C           -1.73621460740492        0.21053470044145        0.68575957530370
C           -0.42418437779275       -0.32371171448486        0.17330041037280
O           -0.17542411958603       -1.49793394031772       -0.00234901753286
O            0.42224056806056        0.65922351077043       -0.10647478005142
C            1.71265834620918        0.32274544362672       -0.64302040143327
C            2.70387498450321        0.00685851598076        0.46568520260824
H           -2.77060454117350       -0.16877803539935       -1.17686637136919
H           -3.54777381850357        1.03424531944564       -0.14276550225502
H           -2.08776267190458        1.45683939610165       -1.04602999327962
H           -2.24266290728304       -0.58283796071340        1.23414409246493
H           -1.54002860382282        1.05658483464489        1.34311107709449
H            1.59823594175464       -0.53386768387171       -1.31430903737255
H            2.01405963364805        1.20780065125154       -1.20475524439079
H            2.77071341948773        0.84239198053769        1.15719816298863
H            2.38459652323119       -0.87926851461941        1.00982910468001
H            3.68142914649414       -0.17941463968825        0.03283562981482
17
 energy: -23.957727671576 gnorm: 0.000714700669 xtb: 6.7.1 (edcfbbe)
C           -2.59232375415054        0.66423510774185       -0.50046666371508
C           -1.73657232082743        0.21033457003941        0.68569087750873
C           -0.42448588538568       -0.32420580480327        0.17311672154769
O           -0.17664590544648       -1.49857382006125       -0.00546051645298
O            0.42263747461260        0.65833637526516       -0.10441636798958
C            1.71220140228000        0.32208102050577       -0.64237826610867
C            2.70491650567631        0.00778762633487        0.46589692132934
H           -2.77242463779826       -0.16844066801164       -1.17636101663809
H           -3.54727640869747        1.03652112322596       -0.14247986032836
H           -2.08700454060501        1.45625951435942       -1.04686577480107
H           -2.24316677337207       -0.58315628729676        1.23367345783258
H           -1.53954491415618        1.05600267575469        1.34309008230739
H            1.59799509868274       -0.53585872704212       -1.31203902679918
H            2.01285711296235        1.20621225520752       -1.20560061615862
H            2.77058672286037        0.84324094133114        1.15759075390379
H            2.38718196005401       -0.87895801046044        1.00990572313551
H            3.68223003701289       -0.17673719605025        0.03207276891222
17
 energy: -23.957729637788 gnorm: 0.000268886284 xtb: 6.7.1 (edcfbbe)
C           -2.59380256228761        0.66539605466159       -0.50039769350306
C           -1.73737170376638        0.20985396274234        0.68498508537234
C           -0.42558505113121       -0.32507076746768        0.17166184405396
O           -0.17979392237306       -1.49948657612340       -0.01216818433415
O            0.42378413389733        0.65664415087175       -0.10077051885557
C            1.71224615666260        0.32013555278185       -0.64090948220666
C            2.70766224590380        0.00965531236996        0.46651817216015
H           -2.77726076277497       -0.16745279766858       -1.17524786205180
H           -3.54705874982530        1.04077766202141       -0.14094809044723
H           -2.08701120034505        1.45555581459311       -1.04824148537247
H           -2.24415302199286       -0.58386829829827        1.23236388970200
H           -1.53907338808718        1.05479085907943        1.34277164799767
H            1.59773895540753       -0.54029716274106       -1.30726237148787
H            2.01135981751194        1.20239370655621       -1.20754706747336
H            2.77118096267117        0.84558598517190        1.15786437637106
H            2.39340573040592       -0.87801530669926        1.01113867325635
H            3.68489353382549       -0.17151745581122        0.03115826430426
17
 energy: -23.957730243371 gnorm: 0.000303281262 xtb: 6.7.1 (edcfbbe)
C           -2.59484628755614        0.66596998511443       -0.50011203289436
C           -1.73757284458985        0.20969469084450        0.68440578634834
C           -0.42619497077477       -0.32546685566915        0.17028378220091
O           -0.18175738070457       -1.49981121552708       -0.01591716850149
O            0.42449673641645        0.65566816374199       -0.09970737159731
C            1.71265920999361        0.31884725115096       -0.64025465185401
C            2.70904198560587        0.01068221246514        0.46703150582239
H           -2.77986163202443       -0.16663502328058       -1.17479045880594
H           -3.54733187241121        1.04213460320555       -0.13949989031425
H           -2.08813368538430        1.45575754314250       -1.04853072763770
H           -2.24419875648076       -0.58421420108187        1.23165597897729
H           -1.53867455120133        1.05426954159306        1.34248854181780
H            1.59803267767304       -0.54282632554762       -1.30495635212307
H            2.01115015939003        1.20019579550091       -1.20861713039306
H            2.77183786761972        0.84728034155957        1.15760373740333
H            2.39627240864284       -0.87689552157897        1.01257399410665
H            3.68624210948795       -0.16957028959325        0.03131165493008
17
 energy: -23.957730829109 gnorm: 0.000164198821 xtb: 6.7.1 (edcfbbe)
C           -2.59596314653829        0.66642391037256       -0.49965618034398
C           -1.73762765075941        0.20965501936622        0.68381277970797
C           -0.42680005652401       -0.32580466584082        0.16864563021763
O           -0.18388846615828       -1.50007244875018       -0.01968884563101
O            0.42522927465762        0.65477846616685       -0.09912857286603
C            1.71330738893684        0.31761284117364       -0.63973556063012
C            2.71021917610979        0.01154420396033        0.46759741085246
H           -2.78174843073333       -0.16589333419638       -1.17445482371551
H           -3.54807118880713        1.04251603031103       -0.13791957013288
H           -2.08982604327386        1.45641600201718       -1.04834951900627
H           -2.24399591942833       -0.58437209442519        1.23118246401165
H           -1.53822540951741        1.05398878893838        1.34210574862717
H            1.59864329554540       -0.54501364471988       -1.30314768443837
H            2.01136314607501        1.19822780159098       -1.20955210355980
H            2.77283652175703        0.84921238262555        1.15688307575365
H            2.39831328865309       -0.87542150319562        1.01462196609247
H            3.68739539370744       -0.16871705935456        0.03175298254659
17
 energy: -23.957731372043 gnorm: 0.000085139957 xtb: 6.7.1 (edcfbbe)
C           -2.59698769122853        0.66674961711043       -0.49908757957090
C           -1.73747091384539        0.20970238174616        0.68335284542614
C           -0.42734707085196       -0.32614946020600        0.16680101895595
O           -0.18610186487258       -1.50031473692226       -0.02393787863302
O            0.42590787472022        0.65390654970526       -0.09890375139204
C            1.71397826729422        0.31642059526823       -0.63938946813838
C            2.71111459882471        0.01242697067536        0.46824980498915
H           -2.78295194234310       -0.16515636722984       -1.17433225544864
H           -3.54900128645491        1.04205075921637       -0.13629589683785
H           -2.09187552123904        1.45744846852853       -1.04770204503440
H           -2.24347518969025       -0.58434613918444        1.23107114148801
H           -1.53729909146537        1.05385835936063        1.34167855527278
H            1.59937760782402       -0.54710279957363       -1.30164733037005
H            2.01171365894697        1.19636760035156       -1.21049499466390
H            2.77408243410835        0.85146751918214        1.15583196387584
H            2.39931081645603       -0.87337285590564        1.01719805916738
H            3.68818648751878       -0.16887576608279        0.03257700839955
17
 energy: -23.957731825231 gnorm: 0.000091699113 xtb: 6.7.1 (edcfbbe)
C           -2.59805057661705        0.66709105943593       -0.49837572577224
C           -1.73719092106178        0.20973481815941        0.68292328860764
C           -0.42791045926628       -0.32659619755263        0.16467155065313
O           -0.18843718041563       -1.50061975563905       -0.02907802820008
O            0.42662591343905        0.65297775507073       -0.09864168088124
C            1.71468379840955        0.31523328610844       -0.63909714347085
C            2.71188448877915        0.01338719811527        0.46901634299543
H           -2.78376955664939       -0.16445685247391       -1.17414041884838
H           -3.55013403855241        1.04124861271432       -0.13451327213903
H           -2.09402889429850        1.45868742112885       -1.04674342428345
H           -2.24282540033058       -0.58419633304329        1.23116821534502
H           -1.53596684621687        1.05377690982645        1.34105816092411
H            1.60023597624623       -0.54932166478301       -1.30003290740333
H            2.01207477357424        1.19440363272157       -1.21162070665100
H            2.77549247137669        0.85416462060517        1.15442505909930
H            2.39970023560628       -0.87082724118214        1.02034944211625
H            3.68877738967945       -0.16960657317204        0.03360044539432
17
 energy: -23.957732024640 gnorm: 0.000057111351 xtb: 6.7.1 (edcfbbe)
C           -2.59878942099316        0.66730344563291       -0.49783702481106
C           -1.73690172420076        0.20974067918654        0.68267841456573
C           -0.42835616242442       -0.32699229587245        0.16298711877396
O           -0.19023777383924       -1.50085352755508       -0.03344369404763
O            0.42714140557523        0.65223864585397       -0.09840252545733
C            1.71514448514045        0.31429794402556       -0.63889787555703
C            2.71242191930309        0.01424074123878        0.46964492532486
H           -2.78440196181538       -0.16388362420648       -1.17409421173404
H           -3.55088060325563        1.04058434905524       -0.13312579687615
H           -2.09565561095466        1.45962750125849       -1.04594467028808
H           -2.24225032019758       -0.58404570075077        1.23138215188060
H           -1.53460354157248        1.05366819003905        1.34060478134636
H            1.60083261938270       -0.55111289619576       -1.29874160658091
H            2.01224075987290        1.19281387735352       -1.21255228998203
H            2.77664949565134        0.85641215326039        1.15328693986031
H            2.39967021598878       -0.86857755370228        1.02289800707255
H            3.68913739204097       -0.17038123258156        0.03452655399548
17
 energy: -23.957732054077 gnorm: 0.000025995718 xtb: 6.7.1 (edcfbbe)
C           -2.59905463703111        0.66743218833282       -0.49760069253862
C           -1.73678840402573        0.20967784094931        0.68256929312333
C           -0.42853358636491       -0.32720942078642        0.16231532653977
O           -0.19087276797072       -1.50098584716752       -0.03521906578075
O            0.42734058028473        0.65192142434557       -0.09824872625714
C            1.71529923758082        0.31397903063917       -0.63882385525963
C            2.71259010244648        0.01458014762667        0.46989610349879
H           -2.78469153294076       -0.16370620528173       -1.17390904583432
H           -3.55109935712573        1.04055197384788       -0.13258020405758
H           -2.09607646830415        1.45987348048356       -1.04569929208097
H           -2.24208634719183       -0.58400954501015        1.23144973422740
H           -1.53407257316721        1.05358285879876        1.34036481906607
H            1.60106557276403       -0.55180976473810       -1.29818348630261
H            2.01224043423013        1.19222742957926       -1.21295549540229
H            2.77702446247523        0.85730613074221        1.15282414886437
H            2.39965004113775       -0.86770962546918        1.02390077688082
H            3.68922641690513       -0.17062140085205        0.03486885879897
