      -----------------------------------------------------------      
     |                   =====================                   |     
     |                           x T B                           |     
     |                   =====================                   |     
     |                         S. Grimme                         |     
     |          Mulliken Center for Theoretical Chemistry        |     
     |                    University of Bonn                     |     
      -----------------------------------------------------------      

   * xtb version 6.7.1 (edcfbbe) compiled by 'albert@albert-system' on 2024-07-22

   xtb is free software: you can redistribute it and/or modify it under
   the terms of the GNU Lesser General Public License as published by
   the Free Software Foundation, either version 3 of the License, or
   (at your option) any later version.
   
   xtb is distributed in the hope that it will be useful,
   but WITHOUT ANY WARRANTY; without even the implied warranty of
   MERCHANTABILITY or FITNESS FOR A PARTICULAR PURPOSE.  See the
   GNU Lesser General Public License for more details.
   
   Cite this work as:
   * C. Bannwarth, E. Caldeweyher, S. Ehlert, A. Hansen, P. Pracht,
     J. Seibert, S. Spicher, S. Grimme, WIREs Comput. Mol. Sci., 2020, 11,
     e01493. DOI: 10.1002/wcms.1493
   
   for GFN2-xTB:
   * C. Bannwarth, S. Ehlert and S. Grimme., J. Chem. Theory Comput., 2019,
     15, 1652-1671. DOI: 10.1021/acs.jctc.8b01176
   for GFN1-xTB:
   * S. Grimme, C. Bannwarth, P. Shushkov, J. Chem. Theory Comput., 2017,
     13, 1989-2009. DOI: 10.1021/acs.jctc.7b00118
   for GFN0-xTB:
   * P. Pracht, E. Caldeweyher, S. Ehlert, S. Grimme, ChemRxiv, 2019, preprint.
     DOI: 10.26434/chemrxiv.8326202.v1
   for GFN-FF:
   * S. Spicher and S. Grimme, Angew. Chem. Int. Ed., 2020, 59, 15665-15673.
     DOI: 10.1002/anie.202004239
   
   for ALPB and GBSA implicit solvation:
   * S. Ehlert, M. Stahn, S. Spicher, S. Grimme, J. Chem. Theory Comput.,
     2021, 17, 4250-4261. DOI: 10.1021/acs.jctc.1c00471
   
   for ddCOSMO and CPCM-X implicit solvation:
   * M. Stahn, S. Ehlert, S. Grimme, J. Phys. Chem. A,
     2023, XX, XXXX-XXXX. DOI: 10.1021/acs.jpca.3c04382
   
   for DFT-D4:
   * E. Caldeweyher, C. Bannwarth and S. Grimme, J. Chem. Phys., 2017,
     147, 034112. DOI: 10.1063/1.4993215
   * E. Caldeweyher, S. Ehlert, A. Hansen, H. Neugebauer, S. Spicher,
     C. Bannwarth and S. Grimme, J. Chem. Phys., 2019, 150, 154122.
     DOI: 10.1063/1.5090222
   * E. Caldeweyher, J.-M. Mewes, S. Ehlert and S. Grimme, Phys. Chem. Chem. Phys.
     2020, 22, 8499-8512. DOI: 10.1039/D0CP00502A
   
   for sTDA-xTB:
   * S. Grimme and C. Bannwarth, J. Chem. Phys., 2016, 145, 054103.
     DOI: 10.1063/1.4959605
   
   in the mass-spec context:
   * V. Asgeirsson, C. Bauer and S. Grimme, Chem. Sci., 2017, 8, 4879.
     DOI: 10.1039/c7sc00601b
   * J. Koopman and S. Grimme, ACS Omega 2019, 4, 12, 15120-15133.
     DOI: 10.1021/acsomega.9b02011
   
   for metadynamics refer to:
   * S. Grimme, J. Chem. Theory Comput., 2019, 155, 2847-2862
     DOI: 10.1021/acs.jctc.9b00143
   
   for SPH calculations refer to:
   * S. Spicher and S. Grimme, J. Chem. Theory Comput., 2021, 17, 1701-1714
     DOI: 10.1021/acs.jctc.0c01306
   
   for ONIOM refer to:
   * C. Plett, A. Katbashev, S. Ehlert, S. Grimme, M. Bursch,
     Phys. Chem. Chem. Phys., 2023, 25, 17860-17868. DOI: 10.1039/D3CP02178E
   
   for DIPRO refer to:
   * J. Kohn, N. Gildemeister, S. Grimme, D. Fazzi, A. Hansen,
     J. Chem. Phys., 2023, just accepted.
   
   for PTB refer to:
   * S. Grimme, M. Mueller, A. Hansen, J. Chem. Phys., 2023, 158, 124111.
     DOI: 10.1063/5.0137838
   
   with help from (in alphabetical order)
   P. Atkinson, C. Bannwarth, F. Bohle, G. Brandenburg, E. Caldeweyher
   M. Checinski, S. Dohm, S. Ehlert, S. Ehrlich, I. Gerasimov, C. Hölzer
   A. Katbashev, J. Kohn, J. Koopman, C. Lavigne, S. Lehtola, F. März, M. Müller,
   F. Musil, H. Neugebauer, J. Pisarek, C. Plett, P. Pracht, F. Pultar,
   J. Seibert, P. Shushkov, S. Spicher, M. Stahn, M. Steiner, T. Strunk,
   J. Stückrath, T. Rose, and J. Unsleber
   
 * started run on 2025/04/11 at 11:19:22.097     
   ID    Z sym.   atoms
    1    6 C      1-3
    2    8 O      4-6
    3    1 H      7-14

           -------------------------------------------------
          |                Calculation Setup                |
           -------------------------------------------------

          program call               : /srv/scratch/z5358697/.xtb/bin/xtb solv.coord --gfn2 --sp --chrg 0 --norestart --parallel 1 --alpb water reference -I xtb_sp-xcontrol-inp
          hostname                   : k022
          coordinate file            : solv.coord
          omp threads                :                     1


           -------------------------------------------------
          |                 G F N 2 - x T B                 |
           -------------------------------------------------

        Reference                      10.1021/acs.jctc.8b01176
      * Hamiltonian:
        H0-scaling (s, p, d)           1.850000    2.230000    2.230000
        zeta-weighting                 0.500000
      * Dispersion:
        s8                             2.700000
        a1                             0.520000
        a2                             5.000000
        s9                             5.000000
      * Repulsion:
        kExp                           1.500000    1.000000
        rExp                           1.000000
      * Coulomb:
        alpha                          2.000000
        third order                    shell-resolved
        anisotropic                    true
        a3                             3.000000
        a5                             4.000000
        cn-shift                       1.200000
        cn-exp                         4.000000
        max-rad                        5.000000

      * Solvation model:               ALPB
        Solvent                        water
        Parameter file                 internal GFN2-xTB/ALPB
        Dielectric constant                8.0200E+01
        Reference state                gsolv=reference [X=1]
        Free energy shift                  2.8945E-03 Eh       1.8164E+00 kcal/mol
        Temperature                        2.9815E+02 K
        Density                            1.0000E+00 kg/L
        Solvent mass                       1.8000E+01 g/mol
        Interaction kernel             P16
        Born radius scaling (c1)           1.4744E+00
        Born radii integrator          GBOBC
        Born offset                        0.0000E+00 a0       0.0000E+00 AA
        H-bond correction              true
        Ion screening                  false
        Surface tension                    1.0000E-05 Eh       1.5569E+01 dyn/cm
        Grid points                               974 per atom

          ...................................................
          :                      SETUP                      :
          :.................................................:
          :  # basis functions                  32          :
          :  # atomic orbitals                  32          :
          :  # shells                           20          :
          :  # electrons                        38          :
          :  max. iterations                   250          :
          :  Hamiltonian                  GFN2-xTB          :
          :  restarted?                      false          :
          :  GBSA solvation                   true          :
          :  PC potential                    false          :
          :  electronic temp.          300.0000000     K    :
          :  accuracy                    1.0000000          :
          :  -> integral cutoff          0.2500000E+02      :
          :  -> integral neglect         0.1000000E-07      :
          :  -> SCF convergence          0.1000000E-05 Eh   :
          :  -> wf. convergence          0.1000000E-03 e    :
          :  Broyden damping             0.4000000          :
          :  net charge                          0          :
          :  unpaired electrons                  0          :
          ...................................................

 iter      E             dE          RMSdq      gap      omega  full diag
   1    -22.8392272 -0.228392E+02  0.478E+00   11.77       0.0  T
   2    -22.8631344 -0.239072E-01  0.250E+00   11.55       1.0  T
   3    -22.8646587 -0.152431E-02  0.608E-01   11.48       1.0  T
   4    -22.8647741 -0.115409E-03  0.187E-01   11.48       1.0  T
   5    -22.8648070 -0.328976E-04  0.615E-02   11.50       1.0  T
   6    -22.8648162 -0.919921E-05  0.269E-02   11.50       1.0  T
   7    -22.8648172 -0.997918E-06  0.554E-03   11.50       4.8  T
   8    -22.8648172 -0.688121E-07  0.269E-03   11.50       9.9  T
   9    -22.8648173 -0.100148E-07  0.473E-04   11.50      56.5  T
  10    -22.8648173 -0.309228E-09  0.224E-04   11.50     119.2  T

   *** convergence criteria satisfied after 10 iterations ***

         #    Occupation            Energy/Eh            Energy/eV
      -------------------------------------------------------------
         1        2.0000           -0.6999092             -19.0455
       ...           ...                  ...                  ...
        13        2.0000           -0.5052720             -13.7492
        14        2.0000           -0.4865821             -13.2406
        15        2.0000           -0.4721473             -12.8478
        16        2.0000           -0.4500773             -12.2472
        17        2.0000           -0.4309549             -11.7269
        18        2.0000           -0.4202261             -11.4349
        19        2.0000           -0.4045127             -11.0074 (HOMO)
        20                          0.0182527               0.4967 (LUMO)
        21                          0.0336786               0.9164
        22                          0.0719915               1.9590
        23                          0.0947773               2.5790
        24                          0.1165084               3.1704
       ...                                ...                  ...
        32                          0.2754292               7.4948
      -------------------------------------------------------------
                  HL-Gap            0.4227655 Eh           11.5040 eV
             Fermi-level           -0.1931300 Eh           -5.2553 eV

 SCC (total)                   0 d,  0 h,  0 min,  0.012 sec
 SCC setup                      ...        0 min,  0.001 sec (  8.252%)
 Dispersion                     ...        0 min,  0.000 sec (  0.569%)
 classical contributions        ...        0 min,  0.000 sec (  0.138%)
 integral evaluation            ...        0 min,  0.001 sec (  9.363%)
 iterations                     ...        0 min,  0.006 sec ( 54.914%)
 molecular gradient             ...        0 min,  0.003 sec ( 25.309%)
 printout                       ...        0 min,  0.000 sec (  1.310%)

         :::::::::::::::::::::::::::::::::::::::::::::::::::::
         ::                     SUMMARY                     ::
         :::::::::::::::::::::::::::::::::::::::::::::::::::::
         :: total energy             -22.690450637071 Eh    ::
         :: total w/o Gsasa/hb       -22.680926905422 Eh    ::
         :: gradient norm              0.000185626890 Eh/a0 ::
         :: HOMO-LUMO gap             11.504034039884 eV    ::
         ::.................................................::
         :: SCC energy               -22.864805704023 Eh    ::
         :: -> isotropic ES            0.095679673746 Eh    ::
         :: -> anisotropic ES          0.001698593653 Eh    ::
         :: -> anisotropic XC         -0.002422751867 Eh    ::
         :: -> dispersion             -0.007073691923 Eh    ::
         :: -> Gsolv                  -0.022746962627 Eh    ::
         ::    -> Gelec               -0.013223230977 Eh    ::
         ::    -> Gsasa                0.003160269310 Eh    ::
         ::    -> Ghb                 -0.015578550120 Eh    ::
         ::    -> Gshift               0.002894549160 Eh    ::
         :: repulsion energy           0.174355066952 Eh    ::
         :: add. restraining           0.000000000000 Eh    ::
         :: total charge               0.000000000000 e     ::
         :::::::::::::::::::::::::::::::::::::::::::::::::::::

           -------------------------------------------------
          |                Property Printout                |
           -------------------------------------------------

    * Orbital Energies and Occupations

         #    Occupation            Energy/Eh            Energy/eV
      -------------------------------------------------------------
         1        2.0000           -0.6999092             -19.0455
       ...           ...                  ...                  ...
         7        2.0000           -0.5807172             -15.8021
         8        2.0000           -0.5739593             -15.6182
         9        2.0000           -0.5612539             -15.2725
        10        2.0000           -0.5377877             -14.6339
        11        2.0000           -0.5275278             -14.3548
        12        2.0000           -0.5187993             -14.1172
        13        2.0000           -0.5052720             -13.7492
        14        2.0000           -0.4865821             -13.2406
        15        2.0000           -0.4721473             -12.8478
        16        2.0000           -0.4500773             -12.2472
        17        2.0000           -0.4309549             -11.7269
        18        2.0000           -0.4202261             -11.4349
        19        2.0000           -0.4045127             -11.0074 (HOMO)
        20                          0.0182527               0.4967 (LUMO)
        21                          0.0336786               0.9164
        22                          0.0719915               1.9590
        23                          0.0947773               2.5790
        24                          0.1165084               3.1704
        25                          0.1338079               3.6411
        26                          0.1601036               4.3566
        27                          0.1663552               4.5268
        28                          0.1775900               4.8325
        29                          0.2039987               5.5511
        30                          0.2480370               6.7494
       ...                                ...                  ...
        32                          0.2754292               7.4948
      -------------------------------------------------------------
                  HL-Gap            0.4227655 Eh           11.5040 eV
             Fermi-level           -0.1931300 Eh           -5.2553 eV

     #   Z          covCN         q      C6AA      α(0)
     1   6 C        3.675     0.060    19.790     6.375
     2   6 C        3.721     0.093    19.146     6.249
     3   6 C        3.676     0.074    19.560     6.337
     4   8 O        1.655    -0.507    23.053     6.482
     5   8 O        1.655    -0.509    23.083     6.486
     6   8 O        1.655    -0.505    23.003     6.474
     7   1 H        0.923     0.038     2.476     2.461
     8   1 H        0.924     0.052     2.293     2.368
     9   1 H        0.923     0.030     2.589     2.516
    10   1 H        0.924     0.065     2.139     2.287
    11   1 H        0.924     0.031     2.566     2.505
    12   1 H        0.805     0.359     0.567     1.183
    13   1 H        0.805     0.363     0.559     1.174
    14   1 H        0.804     0.355     0.576     1.193

 Mol. C6AA /au·bohr⁶  :       1410.896702
 Mol. C8AA /au·bohr⁸  :      29022.807598
 Mol. α(0) /au        :         54.089206


Wiberg/Mayer (AO) data.
largest (>0.10) Wiberg bond orders for each atom

 ---------------------------------------------------------------------------
     #   Z sym  total        # sym  WBO       # sym  WBO       # sym  WBO
 ---------------------------------------------------------------------------
     1   6 C    3.957 --     6 O    1.005     2 C    0.973     8 H    0.972
                             7 H    0.967
     2   6 C    3.957 --     5 O    0.991     3 C    0.980     1 C    0.973
                             9 H    0.961
     3   6 C    3.955 --     4 O    1.004     2 C    0.980    10 H    0.969
                            11 H    0.968
     4   8 O    1.920 --     3 C    1.004    12 H    0.857
     5   8 O    1.922 --     2 C    0.991    13 H    0.854
     6   8 O    1.919 --     1 C    1.005    14 H    0.856
     7   1 H    0.999 --     1 C    0.967
     8   1 H    0.997 --     1 C    0.972
     9   1 H    0.999 --     2 C    0.961
    10   1 H    0.996 --     3 C    0.969
    11   1 H    0.999 --     3 C    0.968
    12   1 H    0.871 --     4 O    0.857
    13   1 H    0.868 --     5 O    0.854
    14   1 H    0.874 --     6 O    0.856
 ---------------------------------------------------------------------------

Topologies differ in total number of bonds
Writing topology from bond orders to xtbtopo.mol

molecular dipole:
                 x           y           z       tot (Debye)
 q only:       -0.108       0.712       1.107
   full:       -0.163       0.911       1.444       4.359
molecular quadrupole (traceless):
                xx          xy          yy          xz          yz          zz
 q only:       -6.264      -2.844       3.311       4.100      -0.423       2.952
  q+dip:       -9.019      -3.983       4.960       4.835      -0.284       4.059
   full:       -8.785      -3.764       4.628       5.006      -0.386       4.157


           -------------------------------------------------
          | TOTAL ENERGY              -22.690450637071 Eh   |
          | GRADIENT NORM               0.000185626890 Eh/α |
          | HOMO-LUMO GAP              11.504034039884 eV   |
           -------------------------------------------------

------------------------------------------------------------------------
 * finished run on 2025/04/11 at 11:19:22.146     
------------------------------------------------------------------------
 total:
 * wall-time:     0 d,  0 h,  0 min,  0.049 sec
 *  cpu-time:     0 d,  0 h,  0 min,  0.017 sec
 * ratio c/w:     0.357 speedup
 SCF:
 * wall-time:     0 d,  0 h,  0 min,  0.012 sec
 *  cpu-time:     0 d,  0 h,  0 min,  0.010 sec
 * ratio c/w:     0.843 speedup

