      -----------------------------------------------------------      
     |                   =====================                   |     
     |                           x T B                           |     
     |                   =====================                   |     
     |                         S. Grimme                         |     
     |          Mulliken Center for Theoretical Chemistry        |     
     |                    University of Bonn                     |     
      -----------------------------------------------------------      

   * xtb version 6.7.1 (edcfbbe) compiled by 'albert@albert-system' on 2024-07-22

   xtb is free software: you can redistribute it and/or modify it under
   the terms of the GNU Lesser General Public License as published by
   the Free Software Foundation, either version 3 of the License, or
   (at your option) any later version.
   
   xtb is distributed in the hope that it will be useful,
   but WITHOUT ANY WARRANTY; without even the implied warranty of
   MERCHANTABILITY or FITNESS FOR A PARTICULAR PURPOSE.  See the
   GNU Lesser General Public License for more details.
   
   Cite this work as:
   * C. Bannwarth, E. Caldeweyher, S. Ehlert, A. Hansen, P. Pracht,
     J. Seibert, S. Spicher, S. Grimme, WIREs Comput. Mol. Sci., 2020, 11,
     e01493. DOI: 10.1002/wcms.1493
   
   for GFN2-xTB:
   * C. Bannwarth, S. Ehlert and S. Grimme., J. Chem. Theory Comput., 2019,
     15, 1652-1671. DOI: 10.1021/acs.jctc.8b01176
   for GFN1-xTB:
   * S. Grimme, C. Bannwarth, P. Shushkov, J. Chem. Theory Comput., 2017,
     13, 1989-2009. DOI: 10.1021/acs.jctc.7b00118
   for GFN0-xTB:
   * P. Pracht, E. Caldeweyher, S. Ehlert, S. Grimme, ChemRxiv, 2019, preprint.
     DOI: 10.26434/chemrxiv.8326202.v1
   for GFN-FF:
   * S. Spicher and S. Grimme, Angew. Chem. Int. Ed., 2020, 59, 15665-15673.
     DOI: 10.1002/anie.202004239
   
   for ALPB and GBSA implicit solvation:
   * S. Ehlert, M. Stahn, S. Spicher, S. Grimme, J. Chem. Theory Comput.,
     2021, 17, 4250-4261. DOI: 10.1021/acs.jctc.1c00471
   
   for ddCOSMO and CPCM-X implicit solvation:
   * M. Stahn, S. Ehlert, S. Grimme, J. Phys. Chem. A,
     2023, XX, XXXX-XXXX. DOI: 10.1021/acs.jpca.3c04382
   
   for DFT-D4:
   * E. Caldeweyher, C. Bannwarth and S. Grimme, J. Chem. Phys., 2017,
     147, 034112. DOI: 10.1063/1.4993215
   * E. Caldeweyher, S. Ehlert, A. Hansen, H. Neugebauer, S. Spicher,
     C. Bannwarth and S. Grimme, J. Chem. Phys., 2019, 150, 154122.
     DOI: 10.1063/1.5090222
   * E. Caldeweyher, J.-M. Mewes, S. Ehlert and S. Grimme, Phys. Chem. Chem. Phys.
     2020, 22, 8499-8512. DOI: 10.1039/D0CP00502A
   
   for sTDA-xTB:
   * S. Grimme and C. Bannwarth, J. Chem. Phys., 2016, 145, 054103.
     DOI: 10.1063/1.4959605
   
   in the mass-spec context:
   * V. Asgeirsson, C. Bauer and S. Grimme, Chem. Sci., 2017, 8, 4879.
     DOI: 10.1039/c7sc00601b
   * J. Koopman and S. Grimme, ACS Omega 2019, 4, 12, 15120-15133.
     DOI: 10.1021/acsomega.9b02011
   
   for metadynamics refer to:
   * S. Grimme, J. Chem. Theory Comput., 2019, 155, 2847-2862
     DOI: 10.1021/acs.jctc.9b00143
   
   for SPH calculations refer to:
   * S. Spicher and S. Grimme, J. Chem. Theory Comput., 2021, 17, 1701-1714
     DOI: 10.1021/acs.jctc.0c01306
   
   for ONIOM refer to:
   * C. Plett, A. Katbashev, S. Ehlert, S. Grimme, M. Bursch,
     Phys. Chem. Chem. Phys., 2023, 25, 17860-17868. DOI: 10.1039/D3CP02178E
   
   for DIPRO refer to:
   * J. Kohn, N. Gildemeister, S. Grimme, D. Fazzi, A. Hansen,
     J. Chem. Phys., 2023, just accepted.
   
   for PTB refer to:
   * S. Grimme, M. Mueller, A. Hansen, J. Chem. Phys., 2023, 158, 124111.
     DOI: 10.1063/5.0137838
   
   with help from (in alphabetical order)
   P. Atkinson, C. Bannwarth, F. Bohle, G. Brandenburg, E. Caldeweyher
   M. Checinski, S. Dohm, S. Ehlert, S. Ehrlich, I. Gerasimov, C. Hölzer
   A. Katbashev, J. Kohn, J. Koopman, C. Lavigne, S. Lehtola, F. März, M. Müller,
   F. Musil, H. Neugebauer, J. Pisarek, C. Plett, P. Pracht, F. Pultar,
   J. Seibert, P. Shushkov, S. Spicher, M. Stahn, M. Steiner, T. Strunk,
   J. Stückrath, T. Rose, and J. Unsleber
   
 * started run on 2025/04/11 at 12:03:41.977     
   ID    Z sym.   atoms
    1    6 C      1, 3-9
    2    8 O      2, 10, 11
    3   17 Cl     12, 13
    4    1 H      14-19

           -------------------------------------------------
          |                Calculation Setup                |
           -------------------------------------------------

          program call               : /srv/scratch/z5358697/.xtb/bin/xtb xtb_opt.coord --opt normal --orca -I xtb_opt-xcontrol-inp
          hostname                   : k061
          coordinate file            : xtb_opt.coord
          omp threads                :                    10

           -------------------------------------------------
          |                   Orca driver                   |
           -------------------------------------------------
orca executable           : /apps/z_install_tree/linux-rocky8-ivybridge/gcc-12.2.0/orca-6.0.0-srtngmq3qlimg2qxbl6avaaiffipurdx/bin/orca
orca input file           : xtb_opt.inp
orca input line           : 
orca parallel             : true
orca number of threads    : 10
                         * ORCA takes the control...
  ------------------------------------------------------------------------

                                 *****************
                                 * O   R   C   A *
                                 *****************

                                            #,                                       
                                            ###                                      
                                            ####                                     
                                            #####                                    
                                            ######                                   
                                           ########,                                 
                                     ,,################,,,,,                         
                               ,,#################################,,                 
                          ,,##########################################,,             
                       ,#########################################, ''#####,          
                    ,#############################################,,   '####,        
                  ,##################################################,,,,####,       
                ,###########''''           ''''###############################       
              ,#####''   ,,,,##########,,,,          '''####'''          '####       
            ,##' ,,,,###########################,,,                        '##       
           ' ,,###''''                  '''############,,,                           
         ,,##''                                '''############,,,,        ,,,,,,###''
      ,#''                                            '''#######################'''  
     '                                                          ''''####''''         
             ,#######,   #######,   ,#######,      ##                                
            ,#'     '#,  ##    ##  ,#'     '#,    #''#        ,####,   ,####,        
            ##       ##  ##   ,#'  ##            #'  '#       #'       #'  '#        
            ##       ##  #######   ##           ,######,      #####,   #    #        
            '#,     ,#'  ##    ##  '#,     ,#' ,#      #,     #,   #   #,  ,#        
             '#######'   ##     ##  '#######'  #'      '#     '####' # '####'        



                #########################################################
                #                        -***-                          #
                #          Department of theory and spectroscopy        #
                #                                                       #
                #                      Frank Neese                      #
                #                                                       #
                #     Directorship, Architecture, Infrastructure        #
                #                    SHARK, DRIVERS                     #
                #        Core code/Algorithms in most modules           #
                #                                                       #
                #        Max Planck Institute fuer Kohlenforschung      #
                #                Kaiser Wilhelm Platz 1                 #
                #                 D-45470 Muelheim/Ruhr                 #
                #                      Germany                          #
                #                                                       #
                #                  All rights reserved                  #
                #                        -***-                          #
                #########################################################


                         Program Version 6.0.0  -   RELEASE  -


 With contributions from (in alphabetic order):
   Daniel Aravena         : Magnetic Suceptibility
   Michael Atanasov       : Ab Initio Ligand Field Theory (pilot matlab implementation)
   Alexander A. Auer      : GIAO ZORA, VPT2 properties, NMR spectrum
   Ute Becker             : All parallelization in ORCA, NUMFREQ, NUMCALC
   Giovanni Bistoni       : ED, misc. LED, open-shell LED, HFLD
   Martin Brehm           : Molecular dynamics
   Dmytro Bykov           : pre 5.0 version of the SCF Hessian
   Marcos Casanova-Páez   : Triplet and SCS-CIS(D). UHF-(DLPNO)-IP/EA/STEOM-CCSD. UHF-CVS-IP/STEOM-CCSD
   Vijay G. Chilkuri      : MRCI spin determinant printing, contributions to CSF-ICE
   Pauline Colinet        : FMM embedding
   Dipayan Datta          : RHF DLPNO-CCSD density
   Achintya Kumar Dutta   : EOM-CC, STEOM-CC
   Nicolas Foglia         : Exact transition moments, OPA infrastructure, MCD improvements
   Dmitry Ganyushin       : Spin-Orbit,Spin-Spin,Magnetic field MRCI
   Miquel Garcia          : C-PCM and meta-GGA Hessian, CCSD/C-PCM, Gaussian charge scheme
   Tiago L. C. Gouveia    : GS-ROHF, GS-ROCIS
   Yang Guo               : DLPNO-NEVPT2, F12-NEVPT2, CIM, IAO-localization
   Andreas Hansen         : Spin unrestricted coupled pair/coupled cluster methods
   Ingolf Harden          : AUTO-CI MPn and infrastructure 
   Benjamin Helmich-Paris : MC-RPA, TRAH-(SCF,CASSCF), AVAS, COSX integrals, SCF dyn. polar.
   Lee Huntington         : MR-EOM, pCC
   Robert Izsak           : Overlap fitted RIJCOSX, COSX-SCS-MP3, EOM
   Riya Kayal             : Wick's Theorem for AUTO-CI, AUTO-CI UHF-CCSDT
   Emily Kempfer          : AUTO-CI, RHF CISDT and CCSDT
   Christian Kollmar      : KDIIS, OOCD, Brueckner-CCSD(T), CCSD density, CASPT2, CASPT2-K, improved NEVPT2
   Axel Koslowski         : Symmetry handling
   Simone Kossmann        : Meta GGA functionals, TD-DFT gradient, OOMP2, (MP2 Hessian; deprecated post 5.0)
   Lucas Lang             : DCDCAS
   Marvin Lechner         : AUTO-CI (C++ implementation), FIC-MRCC
   Spencer Leger          : CASSCF response
   Dagmar Lenk            : GEPOL surface, SMD, ORCA-2-JSON
   Dimitrios Liakos       : Extrapolation schemes; Compound Job, initial MDCI parallelization
   Dimitrios Manganas     : Further ROCIS development; embedding schemes. LFT, Crystal Embedding
   Dimitrios Pantazis     : SARC Basis sets
   Anastasios Papadopoulos: AUTO-CI, single reference methods and gradients
   Taras Petrenko         : pre 6.0 DFT Hessian and TD-DFT gradient, (ASA, deprecated), ECA, 1-Electron XAS/XES, NRVS
   Peter Pinski           : DLPNO-MP2, DLPNO-MP2 Gradient
   Christoph Reimann      : Effective Core Potentials
   Marius Retegan         : Local ZFS, SOC
   Christoph Riplinger    : Optimizer, TS searches, QM/MM, DLPNO-CCSD(T), (RO)-DLPNO pert. Triples
   Michael Roemelt        : Original ROCIS implementation
   Masaaki Saitow         : Open-shell DLPNO-CCSD energy and density
   Barbara Sandhoefer     : DKH picture change effects
   Kantharuban Sivalingam : CASSCF convergence/infrastructure, NEVPT2 and variants, FIC-MRCI
   Bernardo de Souza      : ESD, SOC TD-DFT
   Georgi Stoychev        : AutoAux, RI-MP2 NMR, DLPNO-MP2 response, X2C
   Van Anh Tran           : RI-MP2 g-tensors
   Willem Van den Heuvel  : Paramagnetic NMR
   Zikuan Wang            : NOTCH, Electric field optimization 
   Frank Wennmohs         : Technical directorship and infrastructure
   Hang Xu                : AUTO-CI-Response properties 


 We gratefully acknowledge several colleagues who have allowed us to
 interface, adapt or use parts of their codes:
   Stefan Grimme, W. Hujo, H. Kruse, P. Pracht,  : VdW corrections, initial TS optimization,
                  C. Bannwarth, S. Ehlert,         DFT functionals, gCP, sTDA/sTD-DF
                  L. Wittmann, M. Mueller
   Ed Valeev, F. Pavosevic, A. Kumar             : LibInt (2-el integral package), F12 methods
   Garnet Chan, S. Sharma, J. Yang, R. Olivares  : DMRG
   Ulf Ekstrom                                   : XCFun DFT Library
   Mihaly Kallay                                 : mrcc  (arbitrary order and MRCC methods)
   Frank Weinhold                                : gennbo (NPA and NBO analysis)
   Simon Mueller                                 : openCOSMO-RS
   Christopher J. Cramer and Donald G. Truhlar   : smd solvation model
   Lars Goerigk                                  : TD-DFT with DH, B97 family of functionals
   V. Asgeirsson, H. Jonsson                     : NEB implementation
   FAccTs GmbH                                   : IRC, NEB, NEB-TS, DLPNO-Multilevel, CI-OPT
                                                   MM, QMMM, 2- and 3-layer-ONIOM, Crystal-QMMM,
                                                   LR-CPCM, SF, NACMEs, symmetry and pop. for TD-DFT,
                                                   nearIR, NL-DFT gradient (VV10), updates on ESD,
                                                   ML-optimized integration grids, MBIS, APM,
                                                   GOAT, DOCKER, SOLVATOR, interface openCOSMO-RS
   S Lehtola, MJT Oliveira, MAL Marques          : LibXC Library
   Liviu Ungur et al                             : ANISO software


 Your calculation uses the libint2 library for the computation of 2-el integrals
 For citations please refer to: http://libint.valeyev.net

 Your ORCA version has been built with support for libXC version: 6.2.2
 For citations please refer to: https://libxc.gitlab.io

 This ORCA versions uses:
   CBLAS   interface :  Fast vector & matrix operations
   LAPACKE interface :  Fast linear algebra routines
   SCALAPACK package :  Parallel linear algebra routines
   Shared memory     :  Shared parallel matrices
   BLAS/LAPACK       :  OpenBLAS 0.3.27  USE64BITINT DYNAMIC_ARCH NO_AFFINITY SkylakeX SINGLE_THREADED
        Core in use  :  SkylakeX
   Copyright (c) 2011-2014, The OpenBLAS Project




***************************************
The coordinates will be read from file: xtb_opt.xyz
***************************************


Your calculation utilizes the geometrical counterpoise correction gCP
Please cite in your paper:
H.Kruse, S. Grimme J.Chem.Phys., 136, (2012), 154101 
   

Your calculation utilizes the atom-pairwise dispersion correction
based on EEQ partial charges (D4)


Your calculation utilizes the SMD solvation module
Please cite in your paper:
A.V. Marenich, C.J. Cramer, D.G. Truhlar J. Phys. Chem. B, 113, (2009), 6378 

================================================================================

----- Orbital basis set information -----
Your calculation utilizes the basis: def2-mTZVPP
   Stefan Grimme, Andreas Hansen, Sebastian Ehlert, and Jan-Michael Mewes 
   J. Chem. Phys. 154, 064103 (2021). DOI: 10.1063/5.0040021

----- AuxJ basis set information -----
Your calculation utilizes the auxiliary basis: def2/J
   F. Weigend, Phys. Chem. Chem. Phys. 8, 1057 (2006).

================================================================================
                                        WARNINGS
                       Please study these warnings very carefully!
================================================================================

WARNING: Old DensityContainer found on disk!
         Will remove this file - 
         If you want to keep old densities, please start your calculation with a different basename. 

Using LibXC functional ID 497 : Re-regularized SCAN exchange by Furness et al
[ 1]  J. W. Furness, A. D. Kaplan, J. Ning, J. P. Perdew, and J. Sun.,  J. Phys. Chem. Lett. 11, 8208-8215 (2020)
[ 2]  J. W. Furness, A. D. Kaplan, J. Ning, J. P. Perdew, and J. Sun.,  J. Phys. Chem. Lett. 11, 9248-9248 (2020)
Using LibXC functional ID 498 : Re-regularized SCAN correlation by Furness et al
[ 1]  J. W. Furness, A. D. Kaplan, J. Ning, J. P. Perdew, and J. Sun.,  J. Phys. Chem. Lett. 11, 8208-8215 (2020)
[ 2]  J. W. Furness, A. D. Kaplan, J. Ning, J. P. Perdew, and J. Sun.,  J. Phys. Chem. Lett. 11, 9248-9248 (2020)
Using LibXC functional ID 497 : Re-regularized SCAN exchange by Furness et al
[ 1]  J. W. Furness, A. D. Kaplan, J. Ning, J. P. Perdew, and J. Sun.,  J. Phys. Chem. Lett. 11, 8208-8215 (2020)
[ 2]  J. W. Furness, A. D. Kaplan, J. Ning, J. P. Perdew, and J. Sun.,  J. Phys. Chem. Lett. 11, 9248-9248 (2020)
Using LibXC functional ID 498 : Re-regularized SCAN correlation by Furness et al
[ 1]  J. W. Furness, A. D. Kaplan, J. Ning, J. P. Perdew, and J. Sun.,  J. Phys. Chem. Lett. 11, 8208-8215 (2020)
[ 2]  J. W. Furness, A. D. Kaplan, J. Ning, J. P. Perdew, and J. Sun.,  J. Phys. Chem. Lett. 11, 9248-9248 (2020)

================================================================================
                                       INPUT FILE
================================================================================
NAME = xtb_opt.inp
|  1> ! r2scan-3c def2/J RI DEFGRID2 scfconv7 ENGRAD tightSCF miniprint
|  2> %cpcm
|  3>     smd true
|  4>     smdsolvent "water"
|  5> end
|  6> * xyzfile 0 1 xtb_opt.xyz
|  7> 
|  8>                          ****END OF INPUT****
================================================================================

                     *******************************
                     * Energy+Gradient Calculation *
                     *******************************

---------------------------------
CARTESIAN COORDINATES (ANGSTROEM)
---------------------------------
  C      1.441127   -2.423374   -0.955792
  O      1.011563   -1.779484    0.273498
  C      0.695956   -0.457633    0.115331
  C      1.664245    0.550291    0.084086
  C      1.299066    1.883778   -0.047973
  C     -0.041960    2.236900   -0.132499
  C     -1.006526    1.241290   -0.066327
  C     -0.652888   -0.099648    0.051323
  C     -1.671106   -1.196869    0.083667
  O     -1.940139   -1.894673   -0.877606
  O     -2.241708   -1.311488    1.297604
  Cl    -2.701843    1.671246   -0.167777
  Cl     3.349839    0.128719    0.256453
  H      2.291033   -1.893962   -1.396736
  H      0.609949   -2.455334   -1.668126
  H      1.739028   -3.435346   -0.677451
  H      2.062860    2.652571   -0.078108
  H     -0.326441    3.276719   -0.239314
  H     -2.890958   -2.040016    1.276318

----------------------------
CARTESIAN COORDINATES (A.U.)
----------------------------
  NO LB      ZA    FRAG     MASS         X           Y           Z
   0 C     6.0000    0    12.011    2.723335   -4.579513   -1.806185
   1 O     8.0000    0    15.999    1.911577   -3.362737    0.516837
   2 C     6.0000    0    12.011    1.315166   -0.864801    0.217944
   3 C     6.0000    0    12.011    3.144967    1.039899    0.158899
   4 C     6.0000    0    12.011    2.454879    3.559824   -0.090656
   5 C     6.0000    0    12.011   -0.079293    4.227128   -0.250387
   6 C     6.0000    0    12.011   -1.902059    2.345699   -0.125341
   7 C     6.0000    0    12.011   -1.233779   -0.188307    0.096987
   8 C     6.0000    0    12.011   -3.157933   -2.261754    0.158108
   9 O     8.0000    0    15.999   -3.666331   -3.580412   -1.658434
  10 O     8.0000    0    15.999   -4.236215   -2.478353    2.452116
  11 Cl   17.0000    0    35.453   -5.105744    3.158198   -0.317052
  12 Cl   17.0000    0    35.453    6.330277    0.243243    0.484626
  13 H     1.0000    0     1.008    4.329426   -3.579070   -2.639449
  14 H     1.0000    0     1.008    1.152637   -4.639910   -3.152301
  15 H     1.0000    0     1.008    3.286287   -6.491864   -1.280196
  16 H     1.0000    0     1.008    3.898240    5.012633   -0.147604
  17 H     1.0000    0     1.008   -0.616885    6.192102   -0.452238
  18 H     1.0000    0     1.008   -5.463120   -3.855072    2.411891

------------------------------------------------------------------------------
                   ___                                                        
                  /   \      - P O W E R E D   B Y -                         
                 /     \                                                     
                 |  |  |   _    _      __       _____    __    __             
                 |  |  |  | |  | |    /  \     |  _  \  |  |  /  |          
                  \  \/   | |  | |   /    \    | | | |  |  | /  /          
                 / \  \   | |__| |  /  /\  \   | |_| |  |  |/  /          
                |  |  |   |  __  | /  /__\  \  |    /   |      \           
                |  |  |   | |  | | |   __   |  |    \   |  |\   \          
                \     /   | |  | | |  |  |  |  | |\  \  |  | \   \       
                 \___/    |_|  |_| |__|  |__|  |_| \__\ |__|  \__/        
                                                                              
                      - O R C A' S   B I G   F R I E N D -                    
                                      &                                       
                       - I N T E G R A L  F E E D E R -                       
                                                                              
 v1 FN, 2020, v2 2021, v3 2022-2024                                           
------------------------------------------------------------------------------


----------------------
SHARK INTEGRAL PACKAGE
----------------------

Number of atoms                             ...     19
Number of basis functions                   ...    308
Number of shells                            ...    142
Maximum angular momentum                    ...      2
Integral batch strategy                     ... SHARK/LIBINT Hybrid
RI-J (if used) integral strategy            ... SPLIT-RIJ (Revised 2003 algorithm where possible)
Printlevel                                  ...      1
Contraction scheme used                     ... SEGMENTED contraction
Prescreening option                         ... SCHWARTZ
   Thresh                                   ... 3.000e-11
   Tcut                                     ... 1.000e-12
   Tpresel                                  ... 1.000e-12 
Coulomb Range Separation                    ... NOT USED
Exchange Range Separation                   ... NOT USED
Multipole approximations                    ... NOT USED
Finite Nucleus Model                        ... NOT USED
CABS basis                                  ... NOT available
Auxiliary Coulomb fitting basis             ... AVAILABLE
   # of basis functions in Aux-J            ...    707
   # of shells in Aux-J                     ...    229
   Maximum angular momentum in Aux-J        ...      4
Auxiliary J/K fitting basis                 ... NOT available
Auxiliary Correlation fitting basis         ... NOT available
Auxiliary 'external' fitting basis          ... NOT available

Checking pre-screening integrals            ... done (  0.0 sec) Dimension = 142
Check shell pair data                       ... done (  0.0 sec)
Shell pair information
Shell pair cut-off parameter TPreSel        ...   1.0e-12
Total number of shell pairs                 ...     10153
Shell pairs after pre-screening             ...      8557
Total number of primitive shell pairs       ...     39961
Primitive shell pairs kept                  ...     22067
          la=0 lb=0:   2365 shell pairs
          la=1 lb=0:   3084 shell pairs
          la=1 lb=1:   1016 shell pairs
          la=2 lb=0:   1170 shell pairs
          la=2 lb=1:    762 shell pairs
          la=2 lb=2:    160 shell pairs

Calculating one electron integrals          ... done (  0.1 sec)
Calculating RI/J V-Matrix + Cholesky decomp.... done (  0.1 sec)
Calculating Nuclear repulsion               ... done (  0.0 sec) ENN=    994.168841196316 Eh

Diagonalization of the overlap matrix:
Smallest eigenvalue                        ... 1.313e-05
Time for diagonalization                   ...    0.015 sec
Threshold for overlap eigenvalues          ... 1.000e-07
Number of eigenvalues below threshold      ... 0
Time for construction of square roots      ...    0.023 sec
Total time needed                          ...    0.050 sec

-------------------
DFT GRID GENERATION
-------------------

General Integration Accuracy     IntAcc      ... 4.388
Radial Grid Type                 RadialGrid  ... OptM3 with GC (2021)
Angular Grid (max. ang.)         AngularGrid ... 4 (Lebedev-302)
Angular grid pruning method      GridPruning ... 4 (adaptive)
Weight generation scheme         WeightScheme... mBecke (2022)
Basis function cutoff            BFCut       ... 1.0000e-11
Integration weight cutoff        WCut        ... 1.0000e-14
Partially contracted basis set               ... off
Rotationally invariant grid construction     ... off
Angular grids for H and He will be reduced by one unit
Diffuse basis detected: some atoms will have their outermost
                        angular grid increased by 1.

Total number of grid points                  ...   100967
Total number of batches                      ...     1586
Average number of points per batch           ...       63
Average number of grid points per atom       ...     5314
Initializing property integral containers    ... done (  0.0 sec)

SHARK setup successfully completed in   1.7 seconds

Maximum memory used throughout the entire STARTUP-calculation: 50.9 MB
Occupation numbers will be reassigned to an Aufbau configuration
             **** ENERGY FILE WAS UPDATED (xtb_opt.en.tmp) ****
Finished Guess after   0.8 sec
Maximum memory used throughout the entire GUESS-calculation: 24.5 MB
--------------------
CPCM SOLVATION MODEL
--------------------
CPCM parameters:
  Epsilon                                         ...      78.3550
  Refrac                                          ...       1.3328
  Rsolv                                           ...       1.3000
  Surface type                                    ... GAUSSIAN VDW
  Discretization scheme                           ... Constant charge density
    Threshold for H atoms                         ...       5.0000 (charges/Ang^2)
    Threshold for non-H atoms                     ...       5.0000 (charges/Ang^2)
  Epsilon function type                           ...         CPCM
Solvent:                                          ... WATER
SMD-CDS solvent descriptors:
  Soln                                            ...       1.3328
  Soln25                                          ...       1.3323
  Sola                                            ...       0.0000
  Solb                                            ...       0.0000
  Solg                                            ...       0.0000
  Solc                                            ...       0.0000
  Solh                                            ...       0.0000
Radii:
  Scheme                                          ... Element-dependent radii
  Radius for C  used is    3.4960 Bohr (=   1.8500 Ang.)
  Radius for O  used is    2.8724 Bohr (=   1.5200 Ang.)
  Radius for Cl used is    4.4975 Bohr (=   2.3800 Ang.)
  Radius for H  used is    2.2677 Bohr (=   1.2000 Ang.)
Calculating surface                               ...        done! (  0.0s)
Cavity surface points                             ...         1637
Cavity Volume                                     ...    1489.6567
Cavity Surface-area                               ...     826.4171
Calculating surface distance matrix               ...        done! (  0.0s)
Performing Cholesky decomposition & store         ...        done! (  0.1s)
Overall time for CPCM initialization              ...                 0.1s

----------------------------------------D-I-I-S--------------------------------------------
Iteration    Energy (Eh)           Delta-E    RMSDP     MaxDP     DIISErr   Damp  Time(sec)
-------------------------------------------------------------------------------------------
               ***  Starting incremental Fock matrix formation  ***
                              *** Initializing SOSCF ***
---------------------------------------S-O-S-C-F--------------------------------------
Iteration    Energy (Eh)           Delta-E    RMSDP     MaxDP     MaxGrad    Time(sec)
--------------------------------------------------------------------------------------
    1    -1454.4150259508533054     0.00e+00  1.77e-06  4.75e-05  1.01e-05     6.5
               *** Restarting incremental Fock matrix formation ***
    2    -1454.4150259498142077     1.04e-09  2.92e-06  8.81e-05  1.76e-05     6.0
                  *** Gradient check signals convergence ***

               *****************************************************
               *                     SUCCESS                       *
               *           SCF CONVERGED AFTER   2 CYCLES          *
               *****************************************************


SMD CDS free energy correction energy :                 5.95269     Kcal/mol
Total Energy after SMD CDS correction =             -1454.405539731 Eh
             **** ENERGY FILE WAS UPDATED (xtb_opt.en.tmp) ****

----------------
TOTAL SCF ENERGY
----------------

Total Energy       :      -1454.40553973069314 Eh          -39576.38676 eV

Components:
Nuclear Repulsion  :        994.16884119631584 Eh           27052.70950 eV
Electronic Energy  :      -2448.55995997389664 Eh          -66628.70385 eV
One Electron Energy:      -3975.20874209205022 Eh         -108170.92918 eV
Two Electron Energy:       1526.64878211815358 Eh           41542.22533 eV
CPCM Dielectric    :         -0.02390717223329 Eh              -0.65055 eV
SMD CDS (Gcds)     :          0.00948621912096 Eh               0.25813 eV

Virial components:
Potential Energy   :      -2904.39050553975085 Eh          -79032.48359 eV
Kinetic Energy     :       1449.98496580905771 Eh           39456.09683 eV
Virial Ratio       :          2.00304870328029

DFT components:
N(Alpha)           :       55.999996113421 electrons
N(Beta)            :       55.999996113421 electrons
N(Total)           :      111.999992226842 electrons
E(X)               :     -123.721877965539 Eh       
E(C)               :       -3.918120903851 Eh       
E(XC)              :     -127.639998869390 Eh       

CPCM Solvation Model Properties:
Surface-charge          :         -0.02810040024861
Corrected charge        :         -0.00000000000000
Outlying charge corr.   :          0.00005046026788 Eh               0.00137 eV
Free-energy (cav+disp)  :          0.00948621912096 Eh               0.25813 eV

---------------
SCF CONVERGENCE
---------------

  Last Energy change         ...   -1.0391e-09  Tolerance :   1.0000e-07
  Last MAX-Density change    ...    8.8139e-05  Tolerance :   1.0000e-07
  Last RMS-Density change    ...    2.9183e-06  Tolerance :   5.0000e-09
  Last DIIS Error            ...    4.4770e-05  Tolerance :   1.0000e-07
  Last Orbital Gradient      ...    1.7565e-05  Tolerance :   1.0000e-04
  Last Orbital Rotation      ...    7.3691e-05  Tolerance :   1.0000e-04


----------------
ORBITAL ENERGIES
----------------

  NO   OCC          E(Eh)            E(eV) 
   0   2.0000    -101.235897     -2754.7688 
   1   2.0000    -101.234005     -2754.7173 
   2   2.0000     -19.015762      -517.4452 
   3   2.0000     -18.993806      -516.8477 
   4   2.0000     -18.966731      -516.1110 
   5   2.0000     -10.195300      -277.4282 
   6   2.0000     -10.127474      -275.5826 
   7   2.0000     -10.123821      -275.4832 
   8   2.0000     -10.116211      -275.2761 
   9   2.0000     -10.081838      -274.3408 
  10   2.0000     -10.079752      -274.2840 
  11   2.0000     -10.065857      -273.9059 
  12   2.0000     -10.062736      -273.8210 
  13   2.0000      -9.391357      -255.5518 
  14   2.0000      -9.389420      -255.4991 
  15   2.0000      -7.137689      -194.2264 
  16   2.0000      -7.135813      -194.1754 
  17   2.0000      -7.127600      -193.9519 
  18   2.0000      -7.127166      -193.9401 
  19   2.0000      -7.125724      -193.9008 
  20   2.0000      -7.125106      -193.8840 
  21   2.0000      -1.086658       -29.5695 
  22   2.0000      -1.038416       -28.2567 
  23   2.0000      -1.002191       -27.2710 
  24   2.0000      -0.884149       -24.0589 
  25   2.0000      -0.853062       -23.2130 
  26   2.0000      -0.802392       -21.8342 
  27   2.0000      -0.759473       -20.6663 
  28   2.0000      -0.710567       -19.3355 
  29   2.0000      -0.668423       -18.1887 
  30   2.0000      -0.648145       -17.6369 
  31   2.0000      -0.583934       -15.8896 
  32   2.0000      -0.579445       -15.7675 
  33   2.0000      -0.511741       -13.9252 
  34   2.0000      -0.495708       -13.4889 
  35   2.0000      -0.489147       -13.3104 
  36   2.0000      -0.472561       -12.8590 
  37   2.0000      -0.450576       -12.2608 
  38   2.0000      -0.442882       -12.0514 
  39   2.0000      -0.433922       -11.8076 
  40   2.0000      -0.420418       -11.4402 
  41   2.0000      -0.410208       -11.1623 
  42   2.0000      -0.390268       -10.6197 
  43   2.0000      -0.387040       -10.5319 
  44   2.0000      -0.374152       -10.1812 
  45   2.0000      -0.367207        -9.9922 
  46   2.0000      -0.352488        -9.5917 
  47   2.0000      -0.335799        -9.1376 
  48   2.0000      -0.314306        -8.5527 
  49   2.0000      -0.303381        -8.2554 
  50   2.0000      -0.300424        -8.1750 
  51   2.0000      -0.298340        -8.1183 
  52   2.0000      -0.280607        -7.6357 
  53   2.0000      -0.264947        -7.2096 
  54   2.0000      -0.249729        -6.7955 
  55   2.0000      -0.233125        -6.3437 
  56   0.0000      -0.068722        -1.8700 
  57   0.0000      -0.056388        -1.5344 
  58   0.0000      -0.048414        -1.3174 
  59   0.0000      -0.014864        -0.4045 
  60   0.0000       0.002046         0.0557 
  61   0.0000       0.055046         1.4979 
  62   0.0000       0.075040         2.0419 
  63   0.0000       0.093454         2.5430 
  64   0.0000       0.102066         2.7773 
  65   0.0000       0.116108         3.1594 
  66   0.0000       0.129420         3.5217 
*Only the first 10 virtual orbitals were printed.
Total SCF time: 0 days 0 hours 0 min 13 sec 
Finished LeanSCF after  13.4 sec

Maximum memory used throughout the entire LEANSCF-calculation: 42.4 MB


-------------------------------------------------------------------------------
                          DFT DISPERSION CORRECTION                            
                                                                               
                                DFTD4 V3.4.0                                   
-------------------------------------------------------------------------------
-------------------------   ----------------
Dispersion correction           -0.008700108
-------------------------   ----------------

------------------   -----------------
gCP correction             0.011991615
------------------   -----------------

-------------------------   --------------------
FINAL SINGLE POINT ENERGY     -1454.402248224222
-------------------------   --------------------

------------------------------------------------------------------------------
                         ORCA SCF GRADIENT CALCULATION
------------------------------------------------------------------------------

Nuc. rep. gradient        (SHARK) ... done (  0.0 sec)
HCore & Overlap gradient  (SHARK) ... done (  0.6 sec)
Split-RIJ-J gradient      (SHARK) ... done (  4.0 sec)
XC gradient                       ... done ( 10.1 sec)
CPCM gradient                     ... done (  1.8 sec)
SMD gradient                      ... done (  0.0 sec)
Dispersion correction             ... done (  0.1 sec)

-------------------
DISPERSION GRADIENT
-------------------

   1   C   :    0.000060214   -0.000099748   -0.000048092
   2   O   :    0.000055729   -0.000092030    0.000001964
   3   C   :    0.000057975   -0.000042438    0.000005555
   4   C   :    0.000105474    0.000045171    0.000017188
   5   C   :    0.000071443    0.000113924    0.000003850
   6   C   :   -0.000008872    0.000133224   -0.000007378
   7   C   :   -0.000070420    0.000090785   -0.000001314
   8   C   :   -0.000065080    0.000001753    0.000012944
   9   C   :   -0.000113076   -0.000067985    0.000017813
  10   O   :   -0.000093099   -0.000087608   -0.000037700
  11   O   :   -0.000100506   -0.000070677    0.000061711
  12   Cl  :   -0.000181499    0.000127572   -0.000018107
  13   Cl  :    0.000219472    0.000019051    0.000036553
  14   H   :    0.000030054   -0.000041967   -0.000020374
  15   H   :    0.000015210   -0.000053055   -0.000030535
  16   H   :    0.000019494   -0.000046344   -0.000011880
  17   H   :    0.000030661    0.000040536   -0.000000508
  18   H   :   -0.000007461    0.000050183   -0.000005026
  19   H   :   -0.000025713   -0.000020348    0.000023338

Difference to translation invariance:
           :    0.0000000000   -0.0000000000    0.0000000000

Difference to rotation invariance:
           :   -0.0000000000   -0.0000000000    0.0000000000

Norm of the Dispersion gradient    ...    0.0005196572
RMS gradient                       ...    0.0000688303
MAX gradient                       ...    0.0002194718
gCP correction                   ... done

------------------
CARTESIAN GRADIENT
------------------

   1   C   :   -0.000145619    0.001070445    0.001415602
   2   O   :   -0.000268172   -0.000037143   -0.001047975
   3   C   :    0.000042228   -0.001097513    0.000016200
   4   C   :    0.000643540    0.000202020    0.000061236
   5   C   :   -0.000346281   -0.000096150   -0.000083757
   6   C   :    0.000068724    0.000051235   -0.000020992
   7   C   :   -0.000674053    0.000255272   -0.000032401
   8   C   :    0.000773039    0.000573262    0.000340551
   9   C   :    0.003245449    0.003209297    0.001695813
  10   O   :   -0.001260706   -0.003828246   -0.006563085
  11   O   :   -0.002202984    0.001083412    0.004258517
  12   Cl  :    0.000439370   -0.000307089    0.000042700
  13   Cl  :   -0.000443975    0.000109095    0.000114911
  14   H   :    0.000151271    0.000239342   -0.000133640
  15   H   :   -0.000304274   -0.000009258   -0.000418304
  16   H   :    0.000227322   -0.000428373   -0.000087557
  17   H   :    0.000248028   -0.000191315   -0.000062948
  18   H   :    0.000002173   -0.000021257   -0.000127696
  19   H   :   -0.000195078   -0.000777035    0.000632827

Difference to translation invariance:
           :    0.0000000000    0.0000000000   -0.0000000000

Difference to rotation invariance:
           :   -0.0003551069   -0.0006897809    0.0004544375

Norm of the Cartesian gradient     ...    0.0108251898
RMS gradient                       ...    0.0014338314
MAX gradient                       ...    0.0065630854

-------
TIMINGS
-------

Total SCF gradient time     ....       17.985 sec

Densities                   ....       0.002 sec  (  0.0%)
One electron gradient       ....       0.568 sec  (  3.2%)
RI-J Coulomb gradient       ....       3.997 sec  ( 22.2%)
XC gradient                 ....      10.129 sec  ( 56.3%)
CPCM gradient               ....       1.760 sec  (  9.8%)
   A-Matrix (El+Nuc)        ....       0.086 sec  (  0.5%)
   Potential                ....       1.675 sec  (  9.3%)
SMD gradient                ....       0.016 sec  (  0.1%)

Maximum memory used throughout the entire SCFGRAD-calculation: 44.2 MB

------------------------------------------------------------------------------
                              ORCA PROPERTY CALCULATIONS
------------------------------------------------------------------------------

GBWName                                 ... xtb_opt.gbw
Number of atoms                         ...     19
Number of basis functions               ...    308
Max core memory                         ...   1024 MB

Electric properties:
Dipole moment                           ... YES
Quadrupole moment                       ...  NO
Static polarizability (Dipole/Dipole)   ...  NO
Static polarizability (Dipole/Quad.)    ...  NO
Static polarizability (Quad./Quad.)     ...  NO
Static polarizability (Velocity)        ...  NO

Atomic electric properties:
Dipole moment                           ...  NO
Quadrupole moment                       ...  NO
Static polarizability                   ...  NO

Choice of electric origin               ... Center of mass
Position of electric origin             ...    -0.029757     0.008192     0.008597

General magnetic properties:
Magnetizability                         ...  NO

EPR properties:
g-Tensor (aka g-matrix)                 ...  NO
Zero-Field splitting spin-orbit         ...  NO
Zero-field splitting spin-spin          ...  NO
Hyperfine couplings                     ...  NO (   0 nuclei)
Quadrupole couplings                    ...  NO (   0 nuclei)
Contact density                         ...  NO (   0 nuclei)

NMR properties:
Chemical shifts                         ...  NO (   0 nuclei)
Spin-rotation constants                 ...  NO (   0 nuclei)
Spin-spin couplings                     ...  NO (   0 nuclei,    0 pairs)

Choice of magnetic origin               ... GIAO
Position of magnetic origin             ...     0.000000     0.000000     0.000000

Properties with geometric perturbations:
SCF Hessian                             ...  NO
IR spectrum                             ...  NO
VCD spectrum                            ...  NO
X-ray spectroscopy properties:
SCF XES/XAS/RIXS spectra                ...  NO


-------------
DIPOLE MOMENT
-------------

Method             : SCF
Type of density    : Electron Density
Multiplicity       :   1
Irrep              :   0
Energy             : -1454.4055397306931354 Eh
Relativity type    : 
Basis              : AO
                                X                 Y                 Z
Electronic contribution:     -2.066718622       6.593768334       2.781250009
Nuclear contribution   :      2.400423862      -6.157162408      -2.733701017
                        -----------------------------------------
Total Dipole Moment    :      0.333705240       0.436605926       0.047548992
                        -----------------------------------------
Magnitude (a.u.)       :      0.551583927
Magnitude (Debye)      :      1.402014922



--------------------
Rotational spectrum 
--------------------
 
Rotational constants in cm-1:             0.030790             0.016188             0.011509 
Rotational constants in MHz :           923.056099           485.314179           345.042183 

Dipole components along the rotational axes: 
x,y,z [a.u.] :     0.272151     0.478512     0.034714 
x,y,z [Debye]:     0.691753     1.216281     0.088236 

 

Dipole moment calculation done in   0.0 sec 

Maximum memory used throughout the entire PROP-calculation: 23.2 MB

--------------------------------
SUGGESTED CITATIONS FOR THIS RUN
--------------------------------

Below you find a list of papers that are relevant to this ORCA run
We neither can nor want to force you to cite these papers, but we appreciate if you do
You receive ORCA, which is the product of decades of hard work by many enthusiastic individuals, for free
The only thing we kindly ask in return is that you cite our papers,
We deeply appreciate it, if you show your appreciation for ORCA by not just citing the generic ORCA reference.

Please note that relegating all ORCA citations to the supporting information does *not* help us.
SI sections are not indexed - citations you put there will not count into any citation statistics
But we need these citations in order to attract the funding resources that allow us to do what we are doing

Therefore, if you are a happy ORCA user, please consider citing a few of the papers listed below in the main body of your paper

In addition to the list printed below, the program has created the file xtb_opt.bibtex that contains the list in bibtex format
You can import this file easily into all common literature databanks and citation aid programs


List of essential papers. We consider these as the minimum necessary citations

  1. Neese,F.
     Software update: the ORCA program system, version 5.0
     WIRES Comput. Molec. Sci., 2022 12(1)e1606
     doi.org/10.1002/wcms.1606
  2. Grimme,S.; Hansen,A.; Ehlert,S.; Mewes,J.
     r2SCAN-3c: A 'Swiss army knife' composite electronic-structure method
     J. Chem. Phys., 2021 154 064103
     doi.org/10.1063/5.0040021

List of papers to cite with high priority. The work reported in these papers was absolutely
necessary for this run to complete.
Our perspective: the developers of density functionals and basis sets usually get cited in chemistry papers
Good! But without the algorithms to do something with them, the functionals or basis sets would not do anything.
Hence, in our opinion, the algorithm design and method developments papers are equally worthy of getting cited

  1. Neese,F.
     An improvement of the resolution of the identity approximation for the formation of the Coulomb matrix
     J. Comp. Chem., 2003 24(14)1740-1747
     doi.org/10.1002/jcc.10318
  2. Garcia-Rates,M.; Neese,F.
     Effect of the Solute Cavity on the Solvation Energy and its Derivatives within the Framework of the Gaussian Charge Scheme
     J. Comput. Chem., 2020 41 922-939
     doi.org/10.1002/jcc.26139
  3. Neese,F.
     The SHARK Integral Generation and Digestion System
     J. Comp. Chem., 2022  1-16
     doi.org/10.1002/jcc.26942
  4. Lehtola,S.; Steigemann,C.; Oliveira,M.; Marques,M.
     Recent developments in Libxc - A comprehensive library of functionals for density functional theory
     Software X, 2018 7 
     doi.org/10.1016/j.softx.2017.11.002
  5. Caldeweyher,E.; Bannwarth,C.; Grimme,S.
     Extension of the D3 dispersion coefficient model
     J. Chem. Phys., 2017 147 034112-XXXX
     doi.org/10.1063/1.4993215
  6. Caldeweyher,E.; Ehlert,S.; Hansen,A.; Neugebauer,H.; Spicher,S.; Bannwarth,C.; Grimme,S.
     A generally applicable atomic-charge dependent London dispersion correction
     J. Chem. Phys., 2019 150 154122-XXXX
     doi.org/10.1063/1.5090222
  7. Caldeweyher,E.; Mewes,J.; Ehlert,S.; Grimme,S.
     Extension and evaluation of the D4 London-dispersion model for periodic systems
     Phys. Chem. Chem. Phys., 2020 22(16)8499-8512
     doi.org/10.1039/D0CP00502A

List of suggested additional citations. These are papers that are important in the 'surrounding' of 
of this run, or papers that preceded the highly important papers. If you like your results we are grateful for a citation.

  1. Neese,F.
     The ORCA program system
     WIRES Comput. Molec. Sci., 2012 2(1)73-78
     doi.org/10.1002/wcms.81
  2. Neese,F.
     Software update: the ORCA program system, version 4.0
     WIRES Comput. Molec. Sci., 2018 8(1)1-6
     doi.org/10.1002/wcms.1327
  3. Neese,F.; Wennmohs,F.; Becker,U.; Riplinger,C.
     The ORCA quantum chemistry program package
     J. Chem. Phys., 2020 152 Art. No. L224108
     doi.org/10.1063/5.0004608

List of optional additional citations

  1. Neese,F.
     Approximate second-order SCF convergence for spin unrestricted wavefunctions
     Chem. Phys. Lett., 2000 325(1-3)93-98
     doi.org/10.1016/s0009-2614(00)00662-x

Timings for individual modules:

Sum of individual times          ...       34.393 sec (=   0.573 min)
Startup calculation              ...        1.806 sec (=   0.030 min)   5.3 %
SCF iterations                   ...       14.317 sec (=   0.239 min)  41.6 %
Property calculations            ...        0.141 sec (=   0.002 min)   0.4 %
SCF Gradient evaluation          ...       18.129 sec (=   0.302 min)  52.7 %
                             ****ORCA TERMINATED NORMALLY****
TOTAL RUN TIME: 0 days 0 hours 0 minutes 36 seconds 468 msec
  ------------------------------------------------------------------------
          * successful ORCA run, taking over control again...

         :::::::::::::::::::::::::::::::::::::::::::::::::::::
         ::                  ORCA SUMMARY                   ::
         :::::::::::::::::::::::::::::::::::::::::::::::::::::
         :: total energy           -1454.402248224222 Eh    ::
         :: gradient norm              0.010825189800 Eh/a0 ::
         :: HOMO-LUMO gap              0.000000000000 eV    ::
         :::::::::::::::::::::::::::::::::::::::::::::::::::::

      ----------------------------------------------------------- 
     |                       L-ANC optimizer                     |
      ----------------------------------------------------------- 
          low memory version by Sebastian Ehlert

          ...................................................
          :                      SETUP                      :
          :.................................................:
          :   energy convergence        0.5000000E-05 Eh    :
          :   grad. convergence         0.1000000E-02 Eh/a0 :
          :   optimization log               true           :
          :   writing optlog all                1     steps :
          :   Hessian reset                     8     steps :
          :   maximium step len.        1.0000000     a0    :
          :   LBFGS images                      8           :
          ...................................................
 * calculating model hessian...
Using Lindh-Hessian (1995)
 Shifting diagonal of input Hessian by   1.000000000000000E-002
 Lowest  eigenvalues of input Hessian
    0.000000    0.000000    0.000000    0.000000    0.000000    0.000000
    0.012263    0.013388    0.014755    0.015614    0.017161    0.018570
    0.024916    0.027482    0.033228    0.047501    0.054161    0.057051
 Highest eigenvalues
    1.691734    1.763350    1.844074    1.993112    2.034012    2.305513
 

........................................................................
.............................. CYCLE    1 ..............................
........................................................................
                         * ORCA takes the control...
  ------------------------------------------------------------------------

                                 *****************
                                 * O   R   C   A *
                                 *****************

                                            #,                                       
                                            ###                                      
                                            ####                                     
                                            #####                                    
                                            ######                                   
                                           ########,                                 
                                     ,,################,,,,,                         
                               ,,#################################,,                 
                          ,,##########################################,,             
                       ,#########################################, ''#####,          
                    ,#############################################,,   '####,        
                  ,##################################################,,,,####,       
                ,###########''''           ''''###############################       
              ,#####''   ,,,,##########,,,,          '''####'''          '####       
            ,##' ,,,,###########################,,,                        '##       
           ' ,,###''''                  '''############,,,                           
         ,,##''                                '''############,,,,        ,,,,,,###''
      ,#''                                            '''#######################'''  
     '                                                          ''''####''''         
             ,#######,   #######,   ,#######,      ##                                
            ,#'     '#,  ##    ##  ,#'     '#,    #''#        ,####,   ,####,        
            ##       ##  ##   ,#'  ##            #'  '#       #'       #'  '#        
            ##       ##  #######   ##           ,######,      #####,   #    #        
            '#,     ,#'  ##    ##  '#,     ,#' ,#      #,     #,   #   #,  ,#        
             '#######'   ##     ##  '#######'  #'      '#     '####' # '####'        



                #########################################################
                #                        -***-                          #
                #          Department of theory and spectroscopy        #
                #                                                       #
                #                      Frank Neese                      #
                #                                                       #
                #     Directorship, Architecture, Infrastructure        #
                #                    SHARK, DRIVERS                     #
                #        Core code/Algorithms in most modules           #
                #                                                       #
                #        Max Planck Institute fuer Kohlenforschung      #
                #                Kaiser Wilhelm Platz 1                 #
                #                 D-45470 Muelheim/Ruhr                 #
                #                      Germany                          #
                #                                                       #
                #                  All rights reserved                  #
                #                        -***-                          #
                #########################################################


                         Program Version 6.0.0  -   RELEASE  -


 With contributions from (in alphabetic order):
   Daniel Aravena         : Magnetic Suceptibility
   Michael Atanasov       : Ab Initio Ligand Field Theory (pilot matlab implementation)
   Alexander A. Auer      : GIAO ZORA, VPT2 properties, NMR spectrum
   Ute Becker             : All parallelization in ORCA, NUMFREQ, NUMCALC
   Giovanni Bistoni       : ED, misc. LED, open-shell LED, HFLD
   Martin Brehm           : Molecular dynamics
   Dmytro Bykov           : pre 5.0 version of the SCF Hessian
   Marcos Casanova-Páez   : Triplet and SCS-CIS(D). UHF-(DLPNO)-IP/EA/STEOM-CCSD. UHF-CVS-IP/STEOM-CCSD
   Vijay G. Chilkuri      : MRCI spin determinant printing, contributions to CSF-ICE
   Pauline Colinet        : FMM embedding
   Dipayan Datta          : RHF DLPNO-CCSD density
   Achintya Kumar Dutta   : EOM-CC, STEOM-CC
   Nicolas Foglia         : Exact transition moments, OPA infrastructure, MCD improvements
   Dmitry Ganyushin       : Spin-Orbit,Spin-Spin,Magnetic field MRCI
   Miquel Garcia          : C-PCM and meta-GGA Hessian, CCSD/C-PCM, Gaussian charge scheme
   Tiago L. C. Gouveia    : GS-ROHF, GS-ROCIS
   Yang Guo               : DLPNO-NEVPT2, F12-NEVPT2, CIM, IAO-localization
   Andreas Hansen         : Spin unrestricted coupled pair/coupled cluster methods
   Ingolf Harden          : AUTO-CI MPn and infrastructure 
   Benjamin Helmich-Paris : MC-RPA, TRAH-(SCF,CASSCF), AVAS, COSX integrals, SCF dyn. polar.
   Lee Huntington         : MR-EOM, pCC
   Robert Izsak           : Overlap fitted RIJCOSX, COSX-SCS-MP3, EOM
   Riya Kayal             : Wick's Theorem for AUTO-CI, AUTO-CI UHF-CCSDT
   Emily Kempfer          : AUTO-CI, RHF CISDT and CCSDT
   Christian Kollmar      : KDIIS, OOCD, Brueckner-CCSD(T), CCSD density, CASPT2, CASPT2-K, improved NEVPT2
   Axel Koslowski         : Symmetry handling
   Simone Kossmann        : Meta GGA functionals, TD-DFT gradient, OOMP2, (MP2 Hessian; deprecated post 5.0)
   Lucas Lang             : DCDCAS
   Marvin Lechner         : AUTO-CI (C++ implementation), FIC-MRCC
   Spencer Leger          : CASSCF response
   Dagmar Lenk            : GEPOL surface, SMD, ORCA-2-JSON
   Dimitrios Liakos       : Extrapolation schemes; Compound Job, initial MDCI parallelization
   Dimitrios Manganas     : Further ROCIS development; embedding schemes. LFT, Crystal Embedding
   Dimitrios Pantazis     : SARC Basis sets
   Anastasios Papadopoulos: AUTO-CI, single reference methods and gradients
   Taras Petrenko         : pre 6.0 DFT Hessian and TD-DFT gradient, (ASA, deprecated), ECA, 1-Electron XAS/XES, NRVS
   Peter Pinski           : DLPNO-MP2, DLPNO-MP2 Gradient
   Christoph Reimann      : Effective Core Potentials
   Marius Retegan         : Local ZFS, SOC
   Christoph Riplinger    : Optimizer, TS searches, QM/MM, DLPNO-CCSD(T), (RO)-DLPNO pert. Triples
   Michael Roemelt        : Original ROCIS implementation
   Masaaki Saitow         : Open-shell DLPNO-CCSD energy and density
   Barbara Sandhoefer     : DKH picture change effects
   Kantharuban Sivalingam : CASSCF convergence/infrastructure, NEVPT2 and variants, FIC-MRCI
   Bernardo de Souza      : ESD, SOC TD-DFT
   Georgi Stoychev        : AutoAux, RI-MP2 NMR, DLPNO-MP2 response, X2C
   Van Anh Tran           : RI-MP2 g-tensors
   Willem Van den Heuvel  : Paramagnetic NMR
   Zikuan Wang            : NOTCH, Electric field optimization 
   Frank Wennmohs         : Technical directorship and infrastructure
   Hang Xu                : AUTO-CI-Response properties 


 We gratefully acknowledge several colleagues who have allowed us to
 interface, adapt or use parts of their codes:
   Stefan Grimme, W. Hujo, H. Kruse, P. Pracht,  : VdW corrections, initial TS optimization,
                  C. Bannwarth, S. Ehlert,         DFT functionals, gCP, sTDA/sTD-DF
                  L. Wittmann, M. Mueller
   Ed Valeev, F. Pavosevic, A. Kumar             : LibInt (2-el integral package), F12 methods
   Garnet Chan, S. Sharma, J. Yang, R. Olivares  : DMRG
   Ulf Ekstrom                                   : XCFun DFT Library
   Mihaly Kallay                                 : mrcc  (arbitrary order and MRCC methods)
   Frank Weinhold                                : gennbo (NPA and NBO analysis)
   Simon Mueller                                 : openCOSMO-RS
   Christopher J. Cramer and Donald G. Truhlar   : smd solvation model
   Lars Goerigk                                  : TD-DFT with DH, B97 family of functionals
   V. Asgeirsson, H. Jonsson                     : NEB implementation
   FAccTs GmbH                                   : IRC, NEB, NEB-TS, DLPNO-Multilevel, CI-OPT
                                                   MM, QMMM, 2- and 3-layer-ONIOM, Crystal-QMMM,
                                                   LR-CPCM, SF, NACMEs, symmetry and pop. for TD-DFT,
                                                   nearIR, NL-DFT gradient (VV10), updates on ESD,
                                                   ML-optimized integration grids, MBIS, APM,
                                                   GOAT, DOCKER, SOLVATOR, interface openCOSMO-RS
   S Lehtola, MJT Oliveira, MAL Marques          : LibXC Library
   Liviu Ungur et al                             : ANISO software


 Your calculation uses the libint2 library for the computation of 2-el integrals
 For citations please refer to: http://libint.valeyev.net

 Your ORCA version has been built with support for libXC version: 6.2.2
 For citations please refer to: https://libxc.gitlab.io

 This ORCA versions uses:
   CBLAS   interface :  Fast vector & matrix operations
   LAPACKE interface :  Fast linear algebra routines
   SCALAPACK package :  Parallel linear algebra routines
   Shared memory     :  Shared parallel matrices
   BLAS/LAPACK       :  OpenBLAS 0.3.27  USE64BITINT DYNAMIC_ARCH NO_AFFINITY SkylakeX SINGLE_THREADED
        Core in use  :  SkylakeX
   Copyright (c) 2011-2014, The OpenBLAS Project




***************************************
The coordinates will be read from file: xtb_opt.xyz
***************************************


Your calculation utilizes the geometrical counterpoise correction gCP
Please cite in your paper:
H.Kruse, S. Grimme J.Chem.Phys., 136, (2012), 154101 
   

Your calculation utilizes the atom-pairwise dispersion correction
based on EEQ partial charges (D4)


Your calculation utilizes the SMD solvation module
Please cite in your paper:
A.V. Marenich, C.J. Cramer, D.G. Truhlar J. Phys. Chem. B, 113, (2009), 6378 

================================================================================

----- Orbital basis set information -----
Your calculation utilizes the basis: def2-mTZVPP
   Stefan Grimme, Andreas Hansen, Sebastian Ehlert, and Jan-Michael Mewes 
   J. Chem. Phys. 154, 064103 (2021). DOI: 10.1063/5.0040021

----- AuxJ basis set information -----
Your calculation utilizes the auxiliary basis: def2/J
   F. Weigend, Phys. Chem. Chem. Phys. 8, 1057 (2006).

================================================================================
                                        WARNINGS
                       Please study these warnings very carefully!
================================================================================

WARNING: Old DensityContainer found on disk!
         Will remove this file - 
         If you want to keep old densities, please start your calculation with a different basename. 

Using LibXC functional ID 497 : Re-regularized SCAN exchange by Furness et al
[ 1]  J. W. Furness, A. D. Kaplan, J. Ning, J. P. Perdew, and J. Sun.,  J. Phys. Chem. Lett. 11, 8208-8215 (2020)
[ 2]  J. W. Furness, A. D. Kaplan, J. Ning, J. P. Perdew, and J. Sun.,  J. Phys. Chem. Lett. 11, 9248-9248 (2020)
Using LibXC functional ID 498 : Re-regularized SCAN correlation by Furness et al
[ 1]  J. W. Furness, A. D. Kaplan, J. Ning, J. P. Perdew, and J. Sun.,  J. Phys. Chem. Lett. 11, 8208-8215 (2020)
[ 2]  J. W. Furness, A. D. Kaplan, J. Ning, J. P. Perdew, and J. Sun.,  J. Phys. Chem. Lett. 11, 9248-9248 (2020)
Using LibXC functional ID 497 : Re-regularized SCAN exchange by Furness et al
[ 1]  J. W. Furness, A. D. Kaplan, J. Ning, J. P. Perdew, and J. Sun.,  J. Phys. Chem. Lett. 11, 8208-8215 (2020)
[ 2]  J. W. Furness, A. D. Kaplan, J. Ning, J. P. Perdew, and J. Sun.,  J. Phys. Chem. Lett. 11, 9248-9248 (2020)
Using LibXC functional ID 498 : Re-regularized SCAN correlation by Furness et al
[ 1]  J. W. Furness, A. D. Kaplan, J. Ning, J. P. Perdew, and J. Sun.,  J. Phys. Chem. Lett. 11, 8208-8215 (2020)
[ 2]  J. W. Furness, A. D. Kaplan, J. Ning, J. P. Perdew, and J. Sun.,  J. Phys. Chem. Lett. 11, 9248-9248 (2020)

================================================================================
                                       INPUT FILE
================================================================================
NAME = xtb_opt.inp
|  1> ! r2scan-3c def2/J RI DEFGRID2 scfconv7 ENGRAD tightSCF miniprint
|  2> %cpcm
|  3>     smd true
|  4>     smdsolvent "water"
|  5> end
|  6> * xyzfile 0 1 xtb_opt.xyz
|  7> 
|  8>                          ****END OF INPUT****
================================================================================

                     *******************************
                     * Energy+Gradient Calculation *
                     *******************************

---------------------------------
CARTESIAN COORDINATES (ANGSTROEM)
---------------------------------
  C      1.440366   -2.426473   -0.954349
  O      1.013670   -1.777668    0.274655
  C      0.696353   -0.456059    0.113425
  C      1.664228    0.551953    0.082079
  C      1.298741    1.885650   -0.047315
  C     -0.042535    2.237788   -0.130941
  C     -1.006646    1.241673   -0.066722
  C     -0.653094   -0.099453    0.049096
  C     -1.671124   -1.196291    0.082654
  O     -1.942454   -1.891030   -0.874923
  O     -2.234117   -1.317462    1.295381
  Cl    -2.702145    1.673225   -0.167790
  Cl     3.350538    0.130126    0.251622
  H      2.290767   -1.900158   -1.397305
  H      0.608416   -2.458694   -1.664788
  H      1.736300   -3.437430   -0.672585
  H      2.061170    2.655761   -0.075674
  H     -0.327613    3.277719   -0.235025
  H     -2.889724   -2.039493    1.269072

----------------------------
CARTESIAN COORDINATES (A.U.)
----------------------------
  NO LB      ZA    FRAG     MASS         X           Y           Z
   0 C     6.0000    0    12.011    2.721897   -4.585369   -1.803459
   1 O     8.0000    0    15.999    1.915558   -3.359305    0.519023
   2 C     6.0000    0    12.011    1.315916   -0.861826    0.214343
   3 C     6.0000    0    12.011    3.144936    1.043040    0.155107
   4 C     6.0000    0    12.011    2.454265    3.563363   -0.089412
   5 C     6.0000    0    12.011   -0.080379    4.228807   -0.247442
   6 C     6.0000    0    12.011   -1.902285    2.346422   -0.126087
   7 C     6.0000    0    12.011   -1.234170   -0.187939    0.092778
   8 C     6.0000    0    12.011   -3.157966   -2.260663    0.156193
   9 O     8.0000    0    15.999   -3.670707   -3.573528   -1.653364
  10 O     8.0000    0    15.999   -4.221870   -2.489642    2.447916
  11 Cl   17.0000    0    35.453   -5.106314    3.161937   -0.317076
  12 Cl   17.0000    0    35.453    6.331599    0.245902    0.475497
  13 H     1.0000    0     1.008    4.328922   -3.590778   -2.640523
  14 H     1.0000    0     1.008    1.149741   -4.646258   -3.145993
  15 H     1.0000    0     1.008    3.281131   -6.495800   -1.271001
  16 H     1.0000    0     1.008    3.895047    5.018662   -0.143003
  17 H     1.0000    0     1.008   -0.619099    6.193992   -0.444132
  18 H     1.0000    0     1.008   -5.460788   -3.854084    2.398199

------------------------------------------------------------------------------
                   ___                                                        
                  /   \      - P O W E R E D   B Y -                         
                 /     \                                                     
                 |  |  |   _    _      __       _____    __    __             
                 |  |  |  | |  | |    /  \     |  _  \  |  |  /  |          
                  \  \/   | |  | |   /    \    | | | |  |  | /  /          
                 / \  \   | |__| |  /  /\  \   | |_| |  |  |/  /          
                |  |  |   |  __  | /  /__\  \  |    /   |      \           
                |  |  |   | |  | | |   __   |  |    \   |  |\   \          
                \     /   | |  | | |  |  |  |  | |\  \  |  | \   \       
                 \___/    |_|  |_| |__|  |__|  |_| \__\ |__|  \__/        
                                                                              
                      - O R C A' S   B I G   F R I E N D -                    
                                      &                                       
                       - I N T E G R A L  F E E D E R -                       
                                                                              
 v1 FN, 2020, v2 2021, v3 2022-2024                                           
------------------------------------------------------------------------------


----------------------
SHARK INTEGRAL PACKAGE
----------------------

Number of atoms                             ...     19
Number of basis functions                   ...    308
Number of shells                            ...    142
Maximum angular momentum                    ...      2
Integral batch strategy                     ... SHARK/LIBINT Hybrid
RI-J (if used) integral strategy            ... SPLIT-RIJ (Revised 2003 algorithm where possible)
Printlevel                                  ...      1
Contraction scheme used                     ... SEGMENTED contraction
Prescreening option                         ... SCHWARTZ
   Thresh                                   ... 3.000e-11
   Tcut                                     ... 1.000e-12
   Tpresel                                  ... 1.000e-12 
Coulomb Range Separation                    ... NOT USED
Exchange Range Separation                   ... NOT USED
Multipole approximations                    ... NOT USED
Finite Nucleus Model                        ... NOT USED
CABS basis                                  ... NOT available
Auxiliary Coulomb fitting basis             ... AVAILABLE
   # of basis functions in Aux-J            ...    707
   # of shells in Aux-J                     ...    229
   Maximum angular momentum in Aux-J        ...      4
Auxiliary J/K fitting basis                 ... NOT available
Auxiliary Correlation fitting basis         ... NOT available
Auxiliary 'external' fitting basis          ... NOT available

Checking pre-screening integrals            ... done (  0.0 sec) Dimension = 142
Check shell pair data                       ... done (  0.0 sec)
Shell pair information
Shell pair cut-off parameter TPreSel        ...   1.0e-12
Total number of shell pairs                 ...     10153
Shell pairs after pre-screening             ...      8557
Total number of primitive shell pairs       ...     39961
Primitive shell pairs kept                  ...     22069
          la=0 lb=0:   2365 shell pairs
          la=1 lb=0:   3084 shell pairs
          la=1 lb=1:   1016 shell pairs
          la=2 lb=0:   1170 shell pairs
          la=2 lb=1:    762 shell pairs
          la=2 lb=2:    160 shell pairs

Calculating one electron integrals          ... done (  0.1 sec)
Calculating RI/J V-Matrix + Cholesky decomp.... done (  0.1 sec)
Calculating Nuclear repulsion               ... done (  0.0 sec) ENN=    994.289580081029 Eh

Diagonalization of the overlap matrix:
Smallest eigenvalue                        ... 1.309e-05
Time for diagonalization                   ...    0.016 sec
Threshold for overlap eigenvalues          ... 1.000e-07
Number of eigenvalues below threshold      ... 0
Time for construction of square roots      ...    0.021 sec
Total time needed                          ...    0.059 sec

-------------------
DFT GRID GENERATION
-------------------

General Integration Accuracy     IntAcc      ... 4.388
Radial Grid Type                 RadialGrid  ... OptM3 with GC (2021)
Angular Grid (max. ang.)         AngularGrid ... 4 (Lebedev-302)
Angular grid pruning method      GridPruning ... 4 (adaptive)
Weight generation scheme         WeightScheme... mBecke (2022)
Basis function cutoff            BFCut       ... 1.0000e-11
Integration weight cutoff        WCut        ... 1.0000e-14
Partially contracted basis set               ... off
Rotationally invariant grid construction     ... off
Angular grids for H and He will be reduced by one unit
Diffuse basis detected: some atoms will have their outermost
                        angular grid increased by 1.

Total number of grid points                  ...   100963
Total number of batches                      ...     1587
Average number of points per batch           ...       63
Average number of grid points per atom       ...     5314
Initializing property integral containers    ... done (  0.0 sec)

SHARK setup successfully completed in   1.7 seconds

Maximum memory used throughout the entire STARTUP-calculation: 50.9 MB
Occupation numbers will be reassigned to an Aufbau configuration
             **** ENERGY FILE WAS UPDATED (xtb_opt.en.tmp) ****
Finished Guess after   0.7 sec
Maximum memory used throughout the entire GUESS-calculation: 24.5 MB
--------------------
CPCM SOLVATION MODEL
--------------------
CPCM parameters:
  Epsilon                                         ...      78.3550
  Refrac                                          ...       1.3328
  Rsolv                                           ...       1.3000
  Surface type                                    ... GAUSSIAN VDW
  Discretization scheme                           ... Constant charge density
    Threshold for H atoms                         ...       5.0000 (charges/Ang^2)
    Threshold for non-H atoms                     ...       5.0000 (charges/Ang^2)
  Epsilon function type                           ...         CPCM
Solvent:                                          ... WATER
SMD-CDS solvent descriptors:
  Soln                                            ...       1.3328
  Soln25                                          ...       1.3323
  Sola                                            ...       0.0000
  Solb                                            ...       0.0000
  Solg                                            ...       0.0000
  Solc                                            ...       0.0000
  Solh                                            ...       0.0000
Radii:
  Scheme                                          ... Element-dependent radii
  Radius for C  used is    3.4960 Bohr (=   1.8500 Ang.)
  Radius for O  used is    2.8724 Bohr (=   1.5200 Ang.)
  Radius for Cl used is    4.4975 Bohr (=   2.3800 Ang.)
  Radius for H  used is    2.2677 Bohr (=   1.2000 Ang.)
Calculating surface                               ...        done! (  0.0s)
Cavity surface points                             ...         1639
Cavity Volume                                     ...    1489.6362
Cavity Surface-area                               ...     826.5936
Calculating surface distance matrix               ...        done! (  0.0s)
Performing Cholesky decomposition & store         ...        done! (  0.1s)
Overall time for CPCM initialization              ...                 0.1s

----------------------------------------D-I-I-S--------------------------------------------
Iteration    Energy (Eh)           Delta-E    RMSDP     MaxDP     DIISErr   Damp  Time(sec)
-------------------------------------------------------------------------------------------
               ***  Starting incremental Fock matrix formation  ***
                              *** Initializing SOSCF ***
---------------------------------------S-O-S-C-F--------------------------------------
Iteration    Energy (Eh)           Delta-E    RMSDP     MaxDP     MaxGrad    Time(sec)
--------------------------------------------------------------------------------------
    1    -1454.4150989433881023     0.00e+00  1.56e-04  5.17e-03  2.25e-04     6.3
               *** Restarting incremental Fock matrix formation ***
    2    -1454.4151710246253515    -7.21e-05  4.98e-05  1.67e-03  2.12e-04     6.0
    3    -1454.4151748186066015    -3.79e-06  3.37e-05  1.42e-03  1.63e-04     4.6
    4    -1454.4151760571874092    -1.24e-06  1.96e-05  8.84e-04  1.27e-04     4.5
    5    -1454.4151764789905883    -4.22e-07  1.13e-05  4.48e-04  7.61e-05     4.7
    6    -1454.4151767315258894    -2.53e-07  8.77e-06  3.66e-04  3.84e-05     4.6
    7    -1454.4151767880791795    -5.66e-08  5.69e-06  2.74e-04  3.42e-05     4.4
                 **** Energy Check signals convergence ****

               *****************************************************
               *                     SUCCESS                       *
               *           SCF CONVERGED AFTER   7 CYCLES          *
               *****************************************************


SMD CDS free energy correction energy :                 5.97478     Kcal/mol
Total Energy after SMD CDS correction =             -1454.405655374 Eh
             **** ENERGY FILE WAS UPDATED (xtb_opt.en.tmp) ****

----------------
TOTAL SCF ENERGY
----------------

Total Energy       :      -1454.40565537433440 Eh          -39576.38991 eV

Components:
Nuclear Repulsion  :        994.28958008102950 Eh           27055.99497 eV
Electronic Energy  :      -2448.68088524253972 Eh          -66631.99439 eV
One Electron Energy:      -3975.44249954776296 Eh         -108177.29004 eV
Two Electron Energy:       1526.76161430522325 Eh           41545.29565 eV
CPCM Dielectric    :         -0.02387162656891 Eh              -0.64958 eV
SMD CDS (Gcds)     :          0.00952141374483 Eh               0.25909 eV

Virial components:
Potential Energy   :      -2904.41619214638013 Eh          -79033.18256 eV
Kinetic Energy     :       1450.01053677204573 Eh           39456.79265 eV
Virial Ratio       :          2.00303109425127

DFT components:
N(Alpha)           :       55.999994751944 electrons
N(Beta)            :       55.999994751944 electrons
N(Total)           :      111.999989503889 electrons
E(X)               :     -123.727332159450 Eh       
E(C)               :       -3.918306016878 Eh       
E(XC)              :     -127.645638176328 Eh       

CPCM Solvation Model Properties:
Surface-charge          :         -0.02808616191801
Corrected charge        :         -0.00000000000000
Outlying charge corr.   :          0.00005041005840 Eh               0.00137 eV
Free-energy (cav+disp)  :          0.00952141374483 Eh               0.25909 eV

---------------
SCF CONVERGENCE
---------------

  Last Energy change         ...    5.6553e-08  Tolerance :   1.0000e-07
  Last MAX-Density change    ...    2.7393e-04  Tolerance :   1.0000e-07
  Last RMS-Density change    ...    5.6895e-06  Tolerance :   5.0000e-09
  Last DIIS Error            ...    2.7412e-03  Tolerance :   1.0000e-07
  Last Orbital Gradient      ...    3.4189e-05  Tolerance :   1.0000e-04
  Last Orbital Rotation      ...    5.9700e-05  Tolerance :   1.0000e-04


----------------
ORBITAL ENERGIES
----------------

  NO   OCC          E(Eh)            E(eV) 
   0   2.0000    -101.235837     -2754.7672 
   1   2.0000    -101.233891     -2754.7142 
   2   2.0000     -19.015435      -517.4363 
   3   2.0000     -18.993912      -516.8506 
   4   2.0000     -18.966312      -516.0996 
   5   2.0000     -10.194360      -277.4026 
   6   2.0000     -10.127473      -275.5825 
   7   2.0000     -10.123737      -275.4809 
   8   2.0000     -10.116261      -275.2774 
   9   2.0000     -10.081539      -274.3326 
  10   2.0000     -10.079637      -274.2809 
  11   2.0000     -10.065849      -273.9057 
  12   2.0000     -10.062645      -273.8185 
  13   2.0000      -9.391290      -255.5500 
  14   2.0000      -9.389309      -255.4961 
  15   2.0000      -7.137621      -194.2246 
  16   2.0000      -7.135703      -194.1723 
  17   2.0000      -7.127534      -193.9501 
  18   2.0000      -7.127103      -193.9383 
  19   2.0000      -7.125612      -193.8978 
  20   2.0000      -7.124994      -193.8810 
  21   2.0000      -1.088668       -29.6242 
  22   2.0000      -1.037997       -28.2453 
  23   2.0000      -1.003459       -27.3055 
  24   2.0000      -0.884020       -24.0554 
  25   2.0000      -0.852888       -23.2083 
  26   2.0000      -0.802276       -21.8311 
  27   2.0000      -0.759419       -20.6649 
  28   2.0000      -0.710550       -19.3351 
  29   2.0000      -0.668415       -18.1885 
  30   2.0000      -0.648208       -17.6386 
  31   2.0000      -0.584068       -15.8933 
  32   2.0000      -0.579439       -15.7673 
  33   2.0000      -0.511926       -13.9302 
  34   2.0000      -0.495709       -13.4889 
  35   2.0000      -0.489165       -13.3109 
  36   2.0000      -0.472844       -12.8667 
  37   2.0000      -0.450728       -12.2649 
  38   2.0000      -0.442709       -12.0467 
  39   2.0000      -0.433850       -11.8056 
[...]
  15   2.0000      -7.137688      -194.2264 
  16   2.0000      -7.135573      -194.1688 
  17   2.0000      -7.127601      -193.9519 
  18   2.0000      -7.127182      -193.9405 
  19   2.0000      -7.125481      -193.8942 
  20   2.0000      -7.124867      -193.8775 
  21   2.0000      -1.089563       -29.6485 
  22   2.0000      -1.037308       -28.2266 
  23   2.0000      -1.004001       -27.3203 
  24   2.0000      -0.883942       -24.0533 
  25   2.0000      -0.852688       -23.2028 
  26   2.0000      -0.802146       -21.8275 
  27   2.0000      -0.759365       -20.6634 
  28   2.0000      -0.710701       -19.3392 
  29   2.0000      -0.668525       -18.1915 
  30   2.0000      -0.648185       -17.6380 
  31   2.0000      -0.584411       -15.9026 
  32   2.0000      -0.579143       -15.7593 
  33   2.0000      -0.512239       -13.9387 
  34   2.0000      -0.495630       -13.4868 
  35   2.0000      -0.489273       -13.3138 
  36   2.0000      -0.473159       -12.8753 
  37   2.0000      -0.450834       -12.2678 
  38   2.0000      -0.442271       -12.0348 
  39   2.0000      -0.433699       -11.8016 
  40   2.0000      -0.421811       -11.4781 
  41   2.0000      -0.410182       -11.1616 
  42   2.0000      -0.390166       -10.6169 
  43   2.0000      -0.387404       -10.5418 
  44   2.0000      -0.374197       -10.1824 
  45   2.0000      -0.367007        -9.9868 
  46   2.0000      -0.352508        -9.5922 
  47   2.0000      -0.335194        -9.1211 
  48   2.0000      -0.314572        -8.5599 
  49   2.0000      -0.303460        -8.2576 
  50   2.0000      -0.300725        -8.1831 
  51   2.0000      -0.298376        -8.1192 
  52   2.0000      -0.280560        -7.6344 
  53   2.0000      -0.264139        -7.1876 
  54   2.0000      -0.250092        -6.8054 
  55   2.0000      -0.233308        -6.3486 
  56   0.0000      -0.066166        -1.8005 
  57   0.0000      -0.056189        -1.5290 
  58   0.0000      -0.049490        -1.3467 
  59   0.0000      -0.015262        -0.4153 
  60   0.0000       0.001802         0.0490 
  61   0.0000       0.054640         1.4868 
  62   0.0000       0.075156         2.0451 
  63   0.0000       0.092979         2.5301 
  64   0.0000       0.102423         2.7871 
  65   0.0000       0.115846         3.1523 
  66   0.0000       0.129397         3.5211 
*Only the first 10 virtual orbitals were printed.
Total SCF time: 0 days 0 hours 0 min 17 sec 
Finished LeanSCF after  18.0 sec

Maximum memory used throughout the entire LEANSCF-calculation: 42.5 MB


-------------------------------------------------------------------------------
                          DFT DISPERSION CORRECTION                            
                                                                               
                                DFTD4 V3.4.0                                   
-------------------------------------------------------------------------------
-------------------------   ----------------
Dispersion correction           -0.008699541
-------------------------   ----------------

------------------   -----------------
gCP correction             0.011973431
------------------   -----------------

-------------------------   --------------------
FINAL SINGLE POINT ENERGY     -1454.402421703821
-------------------------   --------------------

------------------------------------------------------------------------------
                         ORCA SCF GRADIENT CALCULATION
------------------------------------------------------------------------------

Nuc. rep. gradient        (SHARK) ... done (  0.0 sec)
HCore & Overlap gradient  (SHARK) ... done (  0.6 sec)
Split-RIJ-J gradient      (SHARK) ... done (  4.1 sec)
XC gradient                       ... done ( 10.3 sec)
CPCM gradient                     ... done (  1.8 sec)
SMD gradient                      ... done (  0.0 sec)
Dispersion correction             ... done (  0.0 sec)

-------------------
DISPERSION GRADIENT
-------------------

   1   C   :    0.000060003   -0.000101784   -0.000047294
   2   O   :    0.000056473   -0.000091967    0.000002954
   3   C   :    0.000057961   -0.000040937    0.000006469
   4   C   :    0.000105821    0.000046401    0.000016776
   5   C   :    0.000071359    0.000113686    0.000003944
   6   C   :   -0.000009065    0.000132906   -0.000006417
   7   C   :   -0.000070367    0.000090692   -0.000001292
   8   C   :   -0.000064621    0.000001975    0.000012462
   9   C   :   -0.000112497   -0.000067738    0.000016403
  10   O   :   -0.000094479   -0.000085113   -0.000039883
  11   O   :   -0.000100278   -0.000072685    0.000062135
  12   Cl  :   -0.000182086    0.000127064   -0.000017476
  13   Cl  :    0.000220299    0.000020475    0.000033844
  14   H   :    0.000029440   -0.000042525   -0.000020218
  15   H   :    0.000015189   -0.000053228   -0.000029806
  16   H   :    0.000019795   -0.000046660   -0.000011220
  17   H   :    0.000030437    0.000040384   -0.000000423
  18   H   :   -0.000007636    0.000050093   -0.000004457
  19   H   :   -0.000025750   -0.000021039    0.000023501

Difference to translation invariance:
           :    0.0000000000   -0.0000000000    0.0000000000

Difference to rotation invariance:
           :   -0.0000000000    0.0000000000   -0.0000000000

Norm of the Dispersion gradient    ...    0.0005201973
RMS gradient                       ...    0.0000689018
MAX gradient                       ...    0.0002202991
gCP correction                   ... done

------------------
CARTESIAN GRADIENT
------------------

   1   C   :   -0.000015466    0.000063234    0.000198701
   2   O   :    0.000006695    0.000095617   -0.000233868
   3   C   :    0.000110088   -0.000176890    0.000017483
   4   C   :    0.000059082    0.000089446   -0.000015627
   5   C   :   -0.000060247   -0.000039987    0.000024908
   6   C   :    0.000005914    0.000032825    0.000011511
   7   C   :   -0.000090492    0.000078191    0.000022361
   8   C   :    0.000082133   -0.000067393    0.000060258
   9   C   :    0.000130154   -0.000020009   -0.000651099
  10   O   :    0.000151629    0.000037452   -0.000042793
  11   O   :   -0.000266833    0.000104947    0.000468355
  12   Cl  :    0.000006972   -0.000026170    0.000005050
  13   Cl  :   -0.000057500    0.000038423   -0.000018537
  14   H   :   -0.000008123   -0.000019097    0.000004531
  15   H   :   -0.000004532   -0.000021755    0.000011291
  16   H   :    0.000030325   -0.000005836    0.000027972
  17   H   :    0.000006668   -0.000024101    0.000015603
  18   H   :   -0.000021206   -0.000014754    0.000032392
  19   H   :   -0.000065261   -0.000124141    0.000061507

Difference to translation invariance:
           :    0.0000000001   -0.0000000000   -0.0000000000

Difference to rotation invariance:
           :    0.0002639977   -0.0009367424    0.0010754631

Norm of the Cartesian gradient     ...    0.0010018319
RMS gradient                       ...    0.0001326959
MAX gradient                       ...    0.0006510995

-------
TIMINGS
-------

Total SCF gradient time     ....       18.350 sec

Densities                   ....       0.002 sec  (  0.0%)
One electron gradient       ....       0.574 sec  (  3.1%)
RI-J Coulomb gradient       ....       4.117 sec  ( 22.4%)
XC gradient                 ....      10.314 sec  ( 56.2%)
CPCM gradient               ....       1.789 sec  (  9.7%)
   A-Matrix (El+Nuc)        ....       0.086 sec  (  0.5%)
   Potential                ....       1.703 sec  (  9.3%)
SMD gradient                ....       0.013 sec  (  0.1%)

Maximum memory used throughout the entire SCFGRAD-calculation: 44.2 MB

------------------------------------------------------------------------------
                              ORCA PROPERTY CALCULATIONS
------------------------------------------------------------------------------

GBWName                                 ... xtb_opt.gbw
Number of atoms                         ...     19
Number of basis functions               ...    308
Max core memory                         ...   1024 MB

Electric properties:
Dipole moment                           ... YES
Quadrupole moment                       ...  NO
Static polarizability (Dipole/Dipole)   ...  NO
Static polarizability (Dipole/Quad.)    ...  NO
Static polarizability (Quad./Quad.)     ...  NO
Static polarizability (Velocity)        ...  NO

Atomic electric properties:
Dipole moment                           ...  NO
Quadrupole moment                       ...  NO
Static polarizability                   ...  NO

Choice of electric origin               ... Center of mass
Position of electric origin             ...    -0.020578     0.021536    -0.006624

General magnetic properties:
Magnetizability                         ...  NO

EPR properties:
g-Tensor (aka g-matrix)                 ...  NO
Zero-Field splitting spin-orbit         ...  NO
Zero-field splitting spin-spin          ...  NO
Hyperfine couplings                     ...  NO (   0 nuclei)
Quadrupole couplings                    ...  NO (   0 nuclei)
Contact density                         ...  NO (   0 nuclei)

NMR properties:
Chemical shifts                         ...  NO (   0 nuclei)
Spin-rotation constants                 ...  NO (   0 nuclei)
Spin-spin couplings                     ...  NO (   0 nuclei,    0 pairs)

Choice of magnetic origin               ... GIAO
Position of magnetic origin             ...     0.000000     0.000000     0.000000

Properties with geometric perturbations:
SCF Hessian                             ...  NO
IR spectrum                             ...  NO
VCD spectrum                            ...  NO
X-ray spectroscopy properties:
SCF XES/XAS/RIXS spectra                ...  NO


-------------
DIPOLE MOMENT
-------------

Method             : SCF
Type of density    : Electron Density
Multiplicity       :   1
Irrep              :   0
Energy             : -1454.4056955939347517 Eh
Relativity type    : 
Basis              : AO
                                X                 Y                 Z
Electronic contribution:     -2.001723252       6.666002112       2.655294578
Nuclear contribution   :      2.315878352      -6.292637898      -2.591759522
                        -----------------------------------------
Total Dipole Moment    :      0.314155100       0.373364214       0.063535056
                        -----------------------------------------
Magnitude (a.u.)       :      0.492068050
Magnitude (Debye)      :      1.250737586



--------------------
Rotational spectrum 
--------------------
 
Rotational constants in cm-1:             0.030707             0.016226             0.011504 
Rotational constants in MHz :           920.567110           486.433053           344.894012 

Dipole components along the rotational axes: 
x,y,z [a.u.] :     0.263693     0.412126     0.052427 
x,y,z [Debye]:     0.670255     1.047542     0.133259 

 

Dipole moment calculation done in   0.0 sec 

Maximum memory used throughout the entire PROP-calculation: 23.2 MB

--------------------------------
SUGGESTED CITATIONS FOR THIS RUN
--------------------------------

Below you find a list of papers that are relevant to this ORCA run
We neither can nor want to force you to cite these papers, but we appreciate if you do
You receive ORCA, which is the product of decades of hard work by many enthusiastic individuals, for free
The only thing we kindly ask in return is that you cite our papers,
We deeply appreciate it, if you show your appreciation for ORCA by not just citing the generic ORCA reference.

Please note that relegating all ORCA citations to the supporting information does *not* help us.
SI sections are not indexed - citations you put there will not count into any citation statistics
But we need these citations in order to attract the funding resources that allow us to do what we are doing

Therefore, if you are a happy ORCA user, please consider citing a few of the papers listed below in the main body of your paper

In addition to the list printed below, the program has created the file xtb_opt.bibtex that contains the list in bibtex format
You can import this file easily into all common literature databanks and citation aid programs


List of essential papers. We consider these as the minimum necessary citations

  1. Neese,F.
     Software update: the ORCA program system, version 5.0
     WIRES Comput. Molec. Sci., 2022 12(1)e1606
     doi.org/10.1002/wcms.1606
  2. Grimme,S.; Hansen,A.; Ehlert,S.; Mewes,J.
     r2SCAN-3c: A 'Swiss army knife' composite electronic-structure method
     J. Chem. Phys., 2021 154 064103
     doi.org/10.1063/5.0040021

List of papers to cite with high priority. The work reported in these papers was absolutely
necessary for this run to complete.
Our perspective: the developers of density functionals and basis sets usually get cited in chemistry papers
Good! But without the algorithms to do something with them, the functionals or basis sets would not do anything.
Hence, in our opinion, the algorithm design and method developments papers are equally worthy of getting cited

  1. Neese,F.
     An improvement of the resolution of the identity approximation for the formation of the Coulomb matrix
     J. Comp. Chem., 2003 24(14)1740-1747
     doi.org/10.1002/jcc.10318
  2. Garcia-Rates,M.; Neese,F.
     Effect of the Solute Cavity on the Solvation Energy and its Derivatives within the Framework of the Gaussian Charge Scheme
     J. Comput. Chem., 2020 41 922-939
     doi.org/10.1002/jcc.26139
  3. Neese,F.
     The SHARK Integral Generation and Digestion System
     J. Comp. Chem., 2022  1-16
     doi.org/10.1002/jcc.26942
  4. Lehtola,S.; Steigemann,C.; Oliveira,M.; Marques,M.
     Recent developments in Libxc - A comprehensive library of functionals for density functional theory
     Software X, 2018 7 
     doi.org/10.1016/j.softx.2017.11.002
  5. Caldeweyher,E.; Bannwarth,C.; Grimme,S.
     Extension of the D3 dispersion coefficient model
     J. Chem. Phys., 2017 147 034112-XXXX
     doi.org/10.1063/1.4993215
  6. Caldeweyher,E.; Ehlert,S.; Hansen,A.; Neugebauer,H.; Spicher,S.; Bannwarth,C.; Grimme,S.
     A generally applicable atomic-charge dependent London dispersion correction
     J. Chem. Phys., 2019 150 154122-XXXX
     doi.org/10.1063/1.5090222
  7. Caldeweyher,E.; Mewes,J.; Ehlert,S.; Grimme,S.
     Extension and evaluation of the D4 London-dispersion model for periodic systems
     Phys. Chem. Chem. Phys., 2020 22(16)8499-8512
     doi.org/10.1039/D0CP00502A

List of suggested additional citations. These are papers that are important in the 'surrounding' of 
of this run, or papers that preceded the highly important papers. If you like your results we are grateful for a citation.

  1. Neese,F.
     The ORCA program system
     WIRES Comput. Molec. Sci., 2012 2(1)73-78
     doi.org/10.1002/wcms.81
  2. Neese,F.
     Software update: the ORCA program system, version 4.0
     WIRES Comput. Molec. Sci., 2018 8(1)1-6
     doi.org/10.1002/wcms.1327
  3. Neese,F.; Wennmohs,F.; Becker,U.; Riplinger,C.
     The ORCA quantum chemistry program package
     J. Chem. Phys., 2020 152 Art. No. L224108
     doi.org/10.1063/5.0004608

List of optional additional citations

  1. Neese,F.
     Approximate second-order SCF convergence for spin unrestricted wavefunctions
     Chem. Phys. Lett., 2000 325(1-3)93-98
     doi.org/10.1016/s0009-2614(00)00662-x

Timings for individual modules:

Sum of individual times          ...       39.095 sec (=   0.652 min)
Startup calculation              ...        1.945 sec (=   0.032 min)   5.0 %
SCF iterations                   ...       18.535 sec (=   0.309 min)  47.4 %
Property calculations            ...        0.137 sec (=   0.002 min)   0.3 %
SCF Gradient evaluation          ...       18.479 sec (=   0.308 min)  47.3 %
                             ****ORCA TERMINATED NORMALLY****
TOTAL RUN TIME: 0 days 0 hours 0 minutes 41 seconds 735 msec
  ------------------------------------------------------------------------
          * successful ORCA run, taking over control again...

         :::::::::::::::::::::::::::::::::::::::::::::::::::::
         ::                  ORCA SUMMARY                   ::
         :::::::::::::::::::::::::::::::::::::::::::::::::::::
         :: total energy           -1454.402421703821 Eh    ::
         :: gradient norm              0.001001831874 Eh/a0 ::
         :: HOMO-LUMO gap              0.000000000000 eV    ::
         :::::::::::::::::::::::::::::::::::::::::::::::::::::

           -------------------------------------------------
          |                Property Printout                |
           -------------------------------------------------
           -------------------------------------------------
          |                Geometry Summary                 |
           -------------------------------------------------

      molecular mass/u    :      221.0376216
   center of mass at/Å    :       -0.0108982       0.0113860      -0.0035022
  moments of inertia/u·Å² :        0.5489841E+03   0.1038948E+04   0.1465313E+04
rotational constants/cm⁻¹ :        0.3070696E-01   0.1622567E-01   0.1150446E-01

 * 17 selected distances

     #   Z          #   Z                                           value/Å
     2   8 O        3   6 C                                       1.3691102
     3   6 C        4   6 C                                       1.3975568
     4   6 C        5   6 C                                       1.3891029
     5   6 C        6   6 C                                       1.3893757
     6   6 C        7   6 C                                       1.3876446
     3   6 C        8   6 C                                       1.3969274
     7   6 C        8   6 C                                       1.3912128
     9   6 C       10   8 O                                       1.2134433
     9   6 C       11   8 O                                       1.3403284
     7   6 C       12  17 Cl                                      1.7533901 (max)
     4   6 C       13  17 Cl                                      1.7470176
     1   6 C       14   1 H                                       1.0938126
     1   6 C       15   1 H                                       1.0942273
     1   6 C       16   1 H                                       1.0903340
     5   6 C       17   1 H                                       1.0840263
     6   6 C       18   1 H                                       1.0833020
    11   8 O       19   1 H                                       0.9755204 (min)

 * 5 distinct bonds (by element types)

   Z      Z             #   av. dist./Å        max./Å        min./Å
   1 H    6 C           5     1.0891404     1.0942273     1.0833020
   6 C    6 C           6     1.3919700     1.3975568     1.3876446
   1 H    8 O           1     0.9755204     0.9755204     0.9755204
   6 C    8 O           3     1.3076273     1.3691102     1.2134433
   6 C   17 Cl          2     1.7502038     1.7533901     1.7470176


optimized geometry written to: xtbopt.coord


           -------------------------------------------------
          | TOTAL ENERGY            -1454.402421703821 Eh   |
          | GRADIENT NORM               0.001001831874 Eh/α |
           -------------------------------------------------

------------------------------------------------------------------------
 * finished run on 2025/04/11 at 12:11:11.996     
------------------------------------------------------------------------
 total:
 * wall-time:     0 d,  0 h,  7 min, 30.017 sec
 *  cpu-time:     0 d,  0 h,  0 min,  0.888 sec
 * ratio c/w:     0.002 speedup
 SCF:
 * wall-time:     0 d,  0 h,  0 min, 36.634 sec
 *  cpu-time:     0 d,  0 h,  0 min,  0.107 sec
 * ratio c/w:     0.003 speedup
 ANC optimizer:
 * wall-time:     0 d,  0 h,  6 min, 53.299 sec
 *  cpu-time:     0 d,  0 h,  0 min,  0.721 sec
 * ratio c/w:     0.002 speedup

