 Entering Gaussian System
 *********************************************
 Gaussian 98:
 frequency output generated by the xtb code
 *********************************************
                         Standard orientation:
 --------------------------------------------------------------------
  Center     Atomic     Atomic              Coordinates (Angstroms)
  Number     Number      Type              X           Y           Z
 --------------------------------------------------------------------
    1          6             0        1.710347   -0.440312    1.212115
    2          6             0        1.175445    0.480432    0.116111
    3          1             0        0.860968    1.431697    0.557248
    4          6             0        0.010680   -0.147222   -0.662200
    5          6             0       -1.246544   -0.457674    0.157353
    6          6             0       -1.855898    0.801095    0.770347
    7          6             0       -2.273988   -1.147698   -0.740468
    8          8             0        2.211831    0.855823   -0.780185
    9          1             0        0.980370   -0.546500    2.008041
   10          1             0        1.935642   -1.424393    0.806232
   11          1             0        2.619808   -0.015504    1.630486
   12          1             0       -0.253276    0.538023   -1.472086
   13          1             0        0.367558   -1.075925   -1.116997
   14          1             0       -0.981918   -1.148022    0.964338
   15          1             0       -2.790752    0.558828    1.270363
   16          1             0       -2.061177    1.537306   -0.003640
   17          1             0       -1.187058    1.246628    1.501587
   18          1             0       -3.163006   -1.407558   -0.171082
   19          1             0       -2.568212   -0.488317   -1.554081
   20          1             0       -1.862820   -2.058958   -1.168290
   21          1             0        2.561094    0.057763   -1.201491
 --------------------------------------------------------------------
     1 basis functions        1 primitive gaussians
     1 alpha electrons        1 beta electrons
 
 Harmonic frequencies (cm**-1), IR intensities (km*mol⁻¹),
 Raman scattering activities (A**4/amu), Raman depolarization ratios,
 reduced masses (AMU), force constants (mDyne/A) and normal coordinates:
                      1                      2                      3
                        a                      a                      a 
 Frequencies --    45.5041                96.2259               175.0879
 Red. masses --     8.8453                 7.8805                 9.2419
 Frc consts  --     0.0000                 0.0000                 0.0000
 IR Inten    --     1.4119                 1.5087                 0.4484
 Raman Activ --     0.0000                 0.0000                 0.0000
 Depolar     --     0.0000                 0.0000                 0.0000
 Atom AN      X      Y      Z        X      Y      Z        X      Y      Z
   1   6    -0.23   0.38   0.20     0.25   0.08   0.04     0.36   0.10   0.07
   2   6    -0.04   0.10  -0.12    -0.06  -0.10   0.05     0.13   0.00   0.10
   3   1    -0.01   0.07  -0.12    -0.10  -0.05   0.01     0.09   0.02   0.02
   4   6     0.01  -0.04  -0.09     0.08  -0.45   0.11    -0.02   0.06   0.29
   5   6     0.05  -0.14  -0.07    -0.07  -0.10   0.00    -0.14   0.03   0.09
   6   6     0.20  -0.26   0.33     0.20   0.07  -0.07    -0.37  -0.08   0.08
   7   6    -0.08   0.19  -0.18    -0.18   0.20  -0.11     0.11   0.14  -0.30
   8   8     0.10  -0.25  -0.13    -0.25   0.25   0.00    -0.07  -0.26  -0.26
   9   1    -0.09   0.20   0.05     0.04  -0.13  -0.04     0.12  -0.02   0.02
  10   1    -0.08   0.07   0.15     0.25   0.07  -0.01     0.16   0.05   0.01
  11   1    -0.07   0.12   0.05    -0.02   0.15   0.08     0.08   0.08   0.01
  12   1    -0.02  -0.03  -0.03     0.06  -0.22  -0.05     0.01   0.03   0.08
  13   1     0.03  -0.01  -0.02     0.04  -0.18   0.15    -0.02   0.01   0.08
  14   1     0.02  -0.11  -0.08    -0.10  -0.05   0.01    -0.09  -0.01   0.02
  15   1     0.05  -0.09   0.08    -0.03   0.11  -0.14    -0.05  -0.09   0.10
  16   1     0.08  -0.00   0.16     0.24   0.08  -0.01    -0.23  -0.07   0.01
  17   1     0.08  -0.16   0.13     0.02  -0.09   0.09    -0.09   0.06  -0.04
  18   1    -0.01   0.01  -0.05    -0.08   0.10  -0.05    -0.06   0.10  -0.20
  19   1    -0.04   0.13   0.02     0.00   0.10  -0.02     0.18   0.04  -0.14
  20   1    -0.05   0.09  -0.15    -0.10   0.05  -0.05     0.04   0.01  -0.01
  21   1     0.03  -0.10   0.05     0.01   0.09   0.01    -0.08  -0.09  -0.07
                      4                      5                      6
                        a                      a                      a 
 Frequencies --   208.8883               216.4878               234.5064
 Red. masses --     1.9994                 2.0796                 2.5042
 Frc consts  --     0.0000                 0.0000                 0.0000
 IR Inten    --     0.5948                 0.8335                 0.1928
 Raman Activ --     0.0000                 0.0000                 0.0000
 Depolar     --     0.0000                 0.0000                 0.0000
 Atom AN      X      Y      Z        X      Y      Z        X      Y      Z
   1   6    -0.10   0.02  -0.01     0.03   0.02  -0.02     0.12   0.02   0.07
   2   6    -0.03  -0.02  -0.06     0.04   0.01  -0.02     0.01  -0.06   0.04
   3   1    -0.03  -0.01  -0.02     0.03   0.01  -0.01    -0.02  -0.03   0.01
   4   6     0.01  -0.05  -0.11    -0.02   0.10  -0.02     0.07  -0.16   0.01
   5   6     0.03  -0.02  -0.06    -0.02   0.06  -0.01    -0.00  -0.04  -0.05
   6   6     0.11  -0.05   0.05    -0.12   0.02  -0.02    -0.02  -0.01  -0.12
   7   6    -0.10   0.04   0.04    -0.03  -0.03   0.08    -0.15   0.13  -0.01
   8   8     0.07   0.07   0.10     0.12  -0.16  -0.01    -0.03   0.11   0.07
   9   1    -0.14  -0.19  -0.13    -0.16  -0.33  -0.20     0.13   0.17   0.13
  10   1     0.22   0.08  -0.05     0.40   0.13  -0.10    -0.15  -0.06   0.08
  11   1    -0.17   0.13   0.19    -0.22   0.21   0.28     0.14  -0.07  -0.14
  12   1     0.01  -0.02  -0.03    -0.00   0.04   0.01     0.05  -0.08  -0.03
  13   1     0.00  -0.02  -0.03    -0.02   0.03  -0.02     0.03  -0.07   0.05
  14   1     0.02  -0.02  -0.03     0.01   0.02  -0.00    -0.01  -0.01  -0.01
  15   1     0.23  -0.08   0.35    -0.05  -0.01  -0.04     0.17  -0.07   0.26
  16   1    -0.32  -0.14  -0.01    -0.03   0.01  -0.01    -0.33  -0.16  -0.10
  17   1     0.20   0.18  -0.25    -0.06   0.01   0.01     0.12   0.21  -0.29
  18   1    -0.13   0.28  -0.02     0.14  -0.31   0.12     0.09  -0.22   0.09
  19   1     0.17  -0.09  -0.14    -0.28   0.10   0.21    -0.27   0.18   0.20
  20   1    -0.15  -0.14   0.22     0.11   0.16  -0.23     0.01   0.19  -0.28
  21   1     0.08   0.02   0.07     0.05  -0.06   0.06     0.01   0.05  -0.00
                      7                      8                      9
                        a                      a                      a 
 Frequencies --   301.8335               328.3784               351.7498
 Red. masses --     5.6756                 5.6688                 7.9569
 Frc consts  --     0.0000                 0.0000                 0.0000
 IR Inten    --    54.2398                93.2405                58.0904
 Raman Activ --     0.0000                 0.0000                 0.0000
 Depolar     --     0.0000                 0.0000                 0.0000
 Atom AN      X      Y      Z        X      Y      Z        X      Y      Z
   1   6     0.25   0.09  -0.09     0.23   0.11   0.16     0.19   0.03   0.10
   2   6     0.07  -0.01  -0.07     0.04  -0.04   0.09    -0.13  -0.02   0.21
   3   1    -0.01  -0.01  -0.03     0.03  -0.01   0.04     0.00   0.00   0.07
   4   6    -0.02   0.01  -0.10     0.00   0.18  -0.11    -0.15   0.26   0.00
   5   6    -0.08  -0.01  -0.09    -0.01  -0.08  -0.21    -0.06  -0.08  -0.11
   6   6    -0.26  -0.13  -0.01     0.03  -0.11  -0.13     0.36   0.09  -0.09
   7   6    -0.31   0.02   0.12    -0.33  -0.05   0.09    -0.01  -0.17  -0.11
   8   8     0.27   0.02   0.12     0.13  -0.07   0.18    -0.38  -0.17  -0.05
   9   1     0.15   0.07   0.05     0.10   0.02   0.07     0.12  -0.03   0.08
  10   1     0.01   0.01  -0.01     0.13   0.03   0.08     0.07   0.02   0.01
  11   1     0.12   0.03  -0.12     0.06   0.11  -0.01     0.06   0.06  -0.04
  12   1     0.01   0.02  -0.02     0.00   0.14   0.04    -0.04   0.21   0.11
  13   1    -0.03   0.01  -0.05     0.00   0.10  -0.13    -0.02   0.16  -0.16
  14   1     0.00  -0.00  -0.03     0.03  -0.03  -0.07     0.01  -0.03  -0.04
  15   1    -0.12  -0.08  -0.10    -0.01  -0.01  -0.07     0.13   0.13   0.07
  16   1    -0.01   0.01   0.03     0.05  -0.00  -0.03     0.10   0.02  -0.04
  17   1    -0.15  -0.08   0.09     0.00  -0.07  -0.01     0.21  -0.01  -0.10
  18   1    -0.09   0.12   0.09    -0.07   0.09   0.12     0.01  -0.08  -0.03
  19   1    -0.07  -0.03   0.00    -0.11  -0.05   0.01    -0.03  -0.06  -0.03
  20   1    -0.18  -0.06   0.08    -0.19  -0.08   0.06     0.04  -0.03  -0.03
  21   1     0.45  -0.04   0.44    -0.42   0.04  -0.45     0.18  -0.11   0.34
                     10                     11                     12
                        a                      a                      a 
 Frequencies --   410.9852               438.2334               461.3360
 Red. masses --     8.5009                 9.7055                 9.0624
 Frc consts  --     0.0000                 0.0000                 0.0000
 IR Inten    --    10.5632                16.6380                 9.1256
 Raman Activ --     0.0000                 0.0000                 0.0000
 Depolar     --     0.0000                 0.0000                 0.0000
 Atom AN      X      Y      Z        X      Y      Z        X      Y      Z
   1   6     0.15   0.10  -0.06     0.02  -0.10   0.33    -0.05  -0.11   0.18
   2   6    -0.17  -0.16  -0.12     0.04  -0.35   0.01     0.34   0.05   0.06
   3   1    -0.10  -0.05  -0.05    -0.05  -0.13   0.03     0.13   0.02   0.03
   4   6    -0.12  -0.13  -0.21     0.13  -0.00  -0.29     0.12   0.03   0.18
   5   6    -0.19   0.28  -0.12     0.23   0.24  -0.16    -0.27   0.09  -0.22
   6   6    -0.01   0.23   0.31    -0.15  -0.02   0.06     0.02   0.09   0.13
   7   6     0.12  -0.20  -0.14     0.13   0.13   0.12    -0.25  -0.28  -0.12
   8   8     0.12  -0.07   0.30    -0.36   0.07  -0.20     0.09   0.22  -0.31
   9   1     0.14   0.02   0.07    -0.04   0.06   0.07    -0.14   0.05  -0.05
  10   1     0.08   0.02   0.02     0.05  -0.07   0.23    -0.08  -0.06   0.09
  11   1     0.06   0.13  -0.14    -0.04   0.05   0.10    -0.03  -0.14   0.18
  12   1     0.03  -0.09  -0.12     0.12   0.08  -0.04     0.11  -0.03  -0.00
  13   1    -0.09  -0.10   0.03    -0.04  -0.01  -0.13     0.04  -0.02   0.12
  14   1    -0.03   0.09  -0.03     0.12   0.08  -0.05    -0.12   0.01  -0.06
  15   1     0.04   0.02   0.15    -0.04  -0.16  -0.05     0.03   0.05   0.10
  16   1    -0.06   0.15   0.19    -0.09   0.04   0.08    -0.00   0.11   0.12
  17   1     0.08  -0.04   0.08    -0.13  -0.00   0.10     0.11  -0.09   0.02
  18   1     0.05  -0.17  -0.07     0.06   0.07   0.09    -0.02  -0.11   0.03
  19   1    -0.02  -0.15  -0.09     0.00  -0.00   0.02    -0.16  -0.18  -0.08
  20   1     0.20  -0.02   0.03     0.01   0.01   0.06    -0.01  -0.08   0.04
  21   1    -0.07   0.02  -0.07     0.08   0.06   0.02     0.10   0.07  -0.04
                     13                     14                     15
                        a                      a                      a 
 Frequencies --   493.3234               859.7420               870.3935
 Red. masses --     7.5269                 7.2527                 7.6420
 Frc consts  --     0.0000                 0.0000                 0.0000
 IR Inten    --     5.0227                 2.7265                 1.7782
 Raman Activ --     0.0000                 0.0000                 0.0000
 Depolar     --     0.0000                 0.0000                 0.0000
 Atom AN      X      Y      Z        X      Y      Z        X      Y      Z
   1   6    -0.02  -0.01  -0.15     0.09  -0.23   0.34     0.05   0.00   0.15
   2   6    -0.14   0.34   0.25    -0.10   0.20   0.04     0.02   0.17   0.10
   3   1    -0.01   0.11   0.05     0.08   0.07   0.04    -0.11   0.05  -0.07
   4   6     0.29  -0.00   0.01    -0.31   0.19  -0.31     0.24  -0.19  -0.35
   5   6     0.13   0.18  -0.28    -0.08  -0.02   0.07     0.08  -0.18   0.16
   6   6    -0.02  -0.06   0.03     0.01  -0.11  -0.01    -0.12   0.32   0.22
   7   6    -0.04   0.00   0.07     0.02   0.01   0.07    -0.17  -0.19  -0.08
   8   8    -0.22  -0.25   0.03     0.15   0.08  -0.17     0.01   0.00  -0.07
   9   1     0.06  -0.12   0.00     0.11  -0.15   0.16     0.03  -0.12   0.03
  10   1    -0.05   0.06  -0.22     0.07  -0.03   0.04    -0.07   0.06  -0.16
  11   1     0.04  -0.09  -0.06     0.04  -0.05   0.04     0.07  -0.16   0.09
  12   1     0.20  -0.16  -0.17    -0.03  -0.24  -0.34    -0.01   0.09   0.05
  13   1     0.20  -0.07   0.24    -0.01  -0.10   0.28     0.11   0.07  -0.29
  14   1     0.06   0.05  -0.08     0.17   0.01  -0.03     0.05  -0.01   0.06
  15   1     0.02  -0.14   0.00    -0.02   0.10   0.01    -0.06   0.09   0.02
  16   1    -0.07   0.05   0.09     0.08  -0.09  -0.08    -0.04   0.01  -0.01
  17   1    -0.03  -0.05   0.05     0.05  -0.02  -0.05    -0.11   0.20   0.07
  18   1     0.04   0.05   0.13    -0.06  -0.02  -0.10    -0.14  -0.06  -0.17
  19   1    -0.09  -0.07  -0.01     0.11   0.08   0.04     0.09   0.08   0.03
  20   1    -0.05  -0.04   0.07     0.03   0.03  -0.02    -0.07  -0.01  -0.12
  21   1    -0.15  -0.16   0.11     0.01  -0.02   0.01    -0.08  -0.06   0.04
                     16                     17                     18
                        a                      a                      a 
 Frequencies --   912.3544               948.9545               956.0496
 Red. masses --     5.7599                 2.7695                 7.0213
 Frc consts  --     0.0000                 0.0000                 0.0000
 IR Inten    --    12.5207                 3.8348                15.0318
 Raman Activ --     0.0000                 0.0000                 0.0000
 Depolar     --     0.0000                 0.0000                 0.0000
 Atom AN      X      Y      Z        X      Y      Z        X      Y      Z
   1   6     0.05   0.01   0.25     0.02   0.00   0.04    -0.29  -0.13   0.08
   2   6    -0.10   0.13   0.08    -0.02   0.02   0.01    -0.31  -0.12   0.06
   3   1    -0.14   0.08  -0.16    -0.04   0.00  -0.02    -0.02  -0.01  -0.01
   4   6    -0.18  -0.29   0.04    -0.02  -0.02  -0.01     0.11   0.06   0.22
   5   6    -0.08   0.09  -0.12     0.03   0.11   0.07     0.15  -0.04  -0.00
   6   6     0.07  -0.10  -0.19     0.19  -0.08   0.16     0.01   0.13   0.06
   7   6     0.14   0.17   0.10    -0.16   0.18  -0.10    -0.01  -0.09  -0.15
   8   8     0.17   0.07  -0.15     0.02   0.01  -0.02     0.25   0.09  -0.26
   9   1     0.08  -0.22   0.10     0.00  -0.02   0.00     0.24  -0.20   0.29
  10   1    -0.10   0.10  -0.24    -0.01   0.01  -0.03     0.14   0.03  -0.01
  11   1     0.10  -0.21   0.09     0.02  -0.04   0.01    -0.05   0.27  -0.32
  12   1    -0.17   0.09   0.18    -0.01  -0.00   0.00    -0.01   0.02   0.08
  13   1    -0.13   0.02  -0.23    -0.03  -0.01  -0.01     0.09   0.05   0.04
  14   1    -0.17   0.07   0.06    -0.05  -0.23  -0.18    -0.01  -0.02   0.01
  15   1     0.09  -0.20  -0.01    -0.05  -0.06  -0.16    -0.00  -0.03  -0.02
  16   1    -0.09   0.13   0.13     0.06  -0.32  -0.25    -0.04   0.02   0.01
  17   1     0.05  -0.17   0.01    -0.22   0.35   0.06    -0.07   0.09   0.05
  18   1     0.08   0.01   0.08     0.04  -0.15   0.02     0.06   0.07   0.10
  19   1    -0.04  -0.05  -0.02    -0.22  -0.30  -0.23    -0.09  -0.02  -0.01
  20   1     0.11   0.04   0.11     0.28   0.05   0.26    -0.15  -0.08  -0.06
  21   1    -0.01  -0.01  -0.02    -0.01  -0.01   0.00     0.12   0.06  -0.08
                     19                     20                     21
                        a                      a                      a 
 Frequencies --   985.3845               994.0542              1024.1415
 Red. masses --     3.8767                 5.7863                 4.3074
 Frc consts  --     0.0000                 0.0000                 0.0000
 IR Inten    --     0.8164                 2.8475                35.2224
 Raman Activ --     0.0000                 0.0000                 0.0000
 Depolar     --     0.0000                 0.0000                 0.0000
 Atom AN      X      Y      Z        X      Y      Z        X      Y      Z
   1   6    -0.01   0.07   0.05     0.18  -0.06   0.07     0.06  -0.23  -0.09
   2   6    -0.00  -0.05  -0.00     0.03   0.13  -0.14    -0.11   0.24   0.04
   3   1    -0.07   0.01  -0.10     0.01   0.02  -0.00     0.03  -0.03   0.25
   4   6     0.09  -0.02  -0.06    -0.32  -0.03   0.08     0.09  -0.13  -0.14
   5   6    -0.10  -0.11  -0.08     0.27  -0.03  -0.04    -0.09  -0.17  -0.02
   6   6    -0.30  -0.04   0.16     0.05   0.20   0.08    -0.10   0.07  -0.02
   7   6     0.27   0.13  -0.02     0.12  -0.13  -0.28     0.09   0.17   0.06
   8   8    -0.02  -0.01   0.00    -0.05  -0.01   0.09     0.10   0.06  -0.08
   9   1     0.02  -0.08   0.02    -0.08   0.06  -0.08    -0.04   0.18  -0.04
  10   1    -0.05   0.06  -0.13    -0.02  -0.05   0.07     0.14  -0.18   0.35
  11   1     0.04  -0.07   0.01     0.03  -0.12   0.16    -0.09   0.18  -0.04
  12   1     0.10   0.04   0.00    -0.26  -0.12  -0.02    -0.23  -0.05   0.03
  13   1    -0.05  -0.02  -0.05    -0.10  -0.04   0.07     0.25   0.10  -0.14
  14   1    -0.02  -0.17  -0.15     0.01  -0.04  -0.02    -0.23  -0.08   0.03
  15   1    -0.14   0.50   0.17     0.01  -0.10  -0.05    -0.00   0.04   0.06
  16   1     0.20  -0.11  -0.13    -0.07   0.03   0.02    -0.03   0.09   0.06
  17   1     0.18  -0.06  -0.16    -0.13   0.15   0.09     0.04  -0.07  -0.01
  18   1     0.22   0.15   0.29     0.18   0.20   0.27     0.08  -0.00   0.09
  19   1    -0.14  -0.06   0.00    -0.18  -0.03   0.01    -0.07  -0.09  -0.05
  20   1    -0.09  -0.06   0.05    -0.33  -0.16  -0.13     0.11   0.03   0.13
  21   1     0.02   0.02  -0.03    -0.05  -0.04   0.05    -0.20  -0.18   0.17
                     22                     23                     24
                        a                      a                      a 
 Frequencies --  1071.0580              1114.3949              1141.2963
 Red. masses --     7.6894                 6.6374                 7.2277
 Frc consts  --     0.0000                 0.0000                 0.0000
 IR Inten    --   150.2915                10.3941                23.8007
 Raman Activ --     0.0000                 0.0000                 0.0000
 Depolar     --     0.0000                 0.0000                 0.0000
 Atom AN      X      Y      Z        X      Y      Z        X      Y      Z
   1   6    -0.06  -0.11   0.19     0.08  -0.20   0.10     0.27  -0.06   0.07
   2   6     0.24   0.12  -0.42    -0.11   0.14  -0.36    -0.49  -0.08  -0.20
   3   1     0.19   0.13  -0.20    -0.35  -0.03  -0.18    -0.18   0.03  -0.21
   4   6     0.15   0.10  -0.03     0.25   0.09   0.16     0.10   0.20   0.19
   5   6     0.02  -0.08   0.10     0.08   0.26   0.18    -0.05  -0.19  -0.16
   6   6    -0.05   0.02  -0.05    -0.01  -0.20  -0.04    -0.01   0.13   0.01
   7   6    -0.06   0.08  -0.02    -0.13  -0.08  -0.12     0.02   0.03   0.14
   8   8    -0.32  -0.13   0.25     0.01   0.07   0.02     0.08  -0.05  -0.01
   9   1     0.14  -0.16   0.17     0.02  -0.01   0.03    -0.13   0.07  -0.15
  10   1     0.07   0.02  -0.04     0.05  -0.09   0.13    -0.07  -0.07   0.06
  11   1     0.03   0.03  -0.09    -0.01  -0.01   0.04     0.04  -0.17   0.21
  12   1    -0.23  -0.11  -0.04     0.09   0.09   0.08     0.08   0.01  -0.00
  13   1     0.22   0.09  -0.00    -0.20  -0.05  -0.01     0.29   0.12   0.11
  14   1    -0.16  -0.02   0.08     0.04   0.14   0.10    -0.01  -0.12  -0.10
  15   1     0.01  -0.02   0.02    -0.00   0.09   0.05     0.00  -0.03  -0.01
  16   1    -0.03   0.08   0.06     0.09  -0.06  -0.05    -0.06   0.05   0.03
  17   1     0.04  -0.08  -0.01     0.09  -0.10  -0.07    -0.04   0.04   0.04
  18   1     0.01  -0.04   0.01    -0.04  -0.02  -0.04    -0.03  -0.03  -0.04
  19   1    -0.07  -0.08  -0.07    -0.05  -0.02  -0.03     0.09   0.04   0.03
  20   1     0.08   0.02   0.08    -0.05  -0.02  -0.04     0.08   0.05   0.03
  21   1     0.17   0.17  -0.12    -0.25  -0.20   0.21     0.16   0.12  -0.13
                     25                     26                     27
                        a                      a                      a 
 Frequencies --  1165.3611              1186.9857              1203.0253
 Red. masses --     7.5645                 6.3064                 5.7046
 Frc consts  --     0.0000                 0.0000                 0.0000
 IR Inten    --    15.6514                 8.7307                28.5323
 Raman Activ --     0.0000                 0.0000                 0.0000
 Depolar     --     0.0000                 0.0000                 0.0000
 Atom AN      X      Y      Z        X      Y      Z        X      Y      Z
   1   6    -0.09  -0.15   0.03     0.01  -0.01  -0.03    -0.09   0.10   0.06
   2   6     0.20   0.22  -0.20    -0.05   0.04   0.06     0.20  -0.18  -0.11
   3   1     0.01   0.07  -0.10     0.07   0.03   0.02    -0.22  -0.18   0.05
   4   6    -0.10  -0.18   0.22    -0.16  -0.17   0.18    -0.00   0.24   0.02
   5   6    -0.13  -0.05  -0.45     0.49   0.00  -0.09     0.06  -0.38   0.07
   6   6     0.04   0.10   0.13    -0.25   0.06  -0.04    -0.04   0.23  -0.14
   7   6     0.11  -0.05   0.25    -0.24   0.08  -0.03    -0.02   0.11   0.03
   8   8    -0.07   0.03   0.08     0.03  -0.01  -0.01     0.02   0.11  -0.02
   9   1     0.09  -0.04   0.11    -0.01   0.04  -0.02     0.04  -0.09   0.05
  10   1     0.11  -0.04   0.08     0.01  -0.01   0.02    -0.03   0.08  -0.13
  11   1    -0.03   0.10  -0.11    -0.02   0.00   0.03     0.03  -0.04  -0.04
  12   1     0.07   0.08   0.12    -0.18  -0.03   0.10     0.10  -0.04  -0.11
  13   1    -0.12  -0.02  -0.07    -0.03  -0.01  -0.02    -0.17  -0.08   0.16
  14   1     0.14  -0.12  -0.26     0.44  -0.00  -0.13     0.02  -0.26  -0.12
  15   1    -0.04   0.01  -0.07    -0.02   0.19   0.13     0.06  -0.10   0.03
  16   1    -0.01  -0.08  -0.07     0.06   0.13   0.07    -0.13   0.21   0.15
  17   1    -0.09   0.17   0.03     0.14  -0.15  -0.09    -0.02  -0.07   0.06
  18   1    -0.07   0.01  -0.09    -0.08  -0.15  -0.13     0.02  -0.06   0.01
  19   1     0.22   0.15   0.12    -0.02  -0.11  -0.13    -0.02  -0.07  -0.05
  20   1     0.04   0.05  -0.06     0.17   0.07   0.09     0.10   0.03   0.10
  21   1    -0.10  -0.07   0.08     0.05   0.04  -0.04    -0.25  -0.20   0.20
                     28                     29                     30
                        a                      a                      a 
 Frequencies --  1249.0600              1293.0758              1311.4436
 Red. masses --     4.3888                 3.7225                 3.9069
 Frc consts  --     0.0000                 0.0000                 0.0000
 IR Inten    --     9.3336                14.1735                 8.1921
 Raman Activ --     0.0000                 0.0000                 0.0000
 Depolar     --     0.0000                 0.0000                 0.0000
 Atom AN      X      Y      Z        X      Y      Z        X      Y      Z
   1   6     0.03  -0.19  -0.10    -0.03   0.08   0.05    -0.04  -0.07  -0.09
   2   6    -0.03   0.26   0.17    -0.06  -0.04  -0.28     0.29  -0.06   0.26
   3   1     0.03   0.24  -0.29     0.26  -0.04   0.19    -0.48  -0.00  -0.36
   4   6    -0.05  -0.07  -0.11    -0.15  -0.15   0.06    -0.09   0.08   0.02
   5   6    -0.06  -0.18   0.25    -0.21  -0.14   0.06    -0.14  -0.16  -0.12
   6   6     0.01   0.10  -0.12     0.04   0.01   0.02     0.05  -0.03   0.06
   7   6     0.02   0.08  -0.09     0.01   0.10  -0.14    -0.00   0.08  -0.06
   8   8    -0.05  -0.07   0.03     0.02   0.07   0.03    -0.01  -0.01  -0.02
   9   1    -0.00   0.12  -0.01     0.05  -0.09   0.05    -0.00   0.08  -0.01
  10   1     0.09  -0.10   0.16    -0.01   0.03  -0.03     0.04  -0.02   0.02
  11   1    -0.07   0.11  -0.02     0.03  -0.10   0.07    -0.05   0.09  -0.04
  12   1     0.45   0.18  -0.01     0.33   0.14   0.04    -0.19  -0.12  -0.05
  13   1    -0.27  -0.11  -0.03     0.31   0.12  -0.04     0.19   0.08   0.04
  14   1     0.13  -0.10  -0.03     0.42   0.30   0.14     0.25   0.34   0.20
  15   1     0.05  -0.11   0.00     0.00  -0.04  -0.03    -0.02   0.05  -0.01
  16   1    -0.08   0.10   0.08    -0.02  -0.02  -0.00    -0.02  -0.04  -0.01
  17   1    -0.01  -0.07   0.04    -0.03   0.02   0.02    -0.06   0.07   0.03
  18   1     0.07  -0.01   0.08     0.10   0.03   0.12     0.06   0.02   0.08
  19   1    -0.09  -0.07  -0.05    -0.09  -0.04  -0.04    -0.03  -0.01  -0.03
  20   1    -0.01  -0.03   0.06     0.03  -0.02   0.09     0.06   0.01   0.07
  21   1     0.15   0.13  -0.13    -0.12  -0.10   0.11     0.00   0.01  -0.02
                     31                     32                     33
                        a                      a                      a 
 Frequencies --  1332.0521              1335.8103              1361.6231
 Red. masses --     3.6501                 4.3922                 5.1137
 Frc consts  --     0.0000                 0.0000                 0.0000
 IR Inten    --    54.9261                33.9668                21.0041
 Raman Activ --     0.0000                 0.0000                 0.0000
 Depolar     --     0.0000                 0.0000                 0.0000
 Atom AN      X      Y      Z        X      Y      Z        X      Y      Z
   1   6     0.04  -0.03   0.00    -0.00   0.02   0.01     0.05   0.00   0.01
   2   6    -0.06  -0.27   0.09    -0.06   0.17  -0.10    -0.19  -0.08   0.03
   3   1     0.41   0.30  -0.46    -0.05  -0.11   0.28     0.30   0.11  -0.03
   4   6    -0.11   0.04  -0.02     0.01   0.07   0.01     0.44   0.10   0.01
   5   6     0.22  -0.09  -0.13     0.20  -0.32  -0.29    -0.29  -0.14  -0.04
   6   6    -0.04  -0.01   0.09     0.00  -0.04   0.11     0.07   0.02   0.00
   7   6    -0.04   0.02   0.03    -0.06   0.09   0.02     0.04   0.07  -0.02
   8   8     0.01   0.20   0.02    -0.00  -0.09   0.00    -0.01   0.04   0.00
   9   1    -0.05   0.03  -0.06     0.03  -0.03   0.03    -0.04   0.03  -0.03
  10   1    -0.03  -0.00  -0.04     0.00  -0.01   0.04    -0.05   0.01  -0.04
  11   1    -0.01   0.06  -0.04     0.00  -0.04   0.04    -0.01   0.01   0.03
  12   1     0.10   0.03  -0.03     0.14   0.05  -0.01    -0.39  -0.14   0.03
  13   1     0.02  -0.00   0.05    -0.33  -0.13   0.04    -0.41  -0.15  -0.04
  14   1    -0.28   0.10   0.18    -0.26   0.33   0.38     0.34   0.12  -0.01
  15   1    -0.04   0.04  -0.03    -0.05   0.16   0.03    -0.01  -0.03  -0.06
  16   1     0.04  -0.02  -0.01     0.00  -0.00   0.02    -0.07   0.01   0.02
  17   1     0.02   0.05  -0.04    -0.08   0.14   0.01    -0.04   0.04   0.03
  18   1    -0.02  -0.04  -0.03     0.02  -0.07   0.01     0.03  -0.01   0.02
  19   1     0.03  -0.02  -0.02     0.04  -0.02  -0.05    -0.03  -0.01  -0.00
  20   1     0.03   0.02   0.00     0.10   0.04   0.06     0.00  -0.01   0.05
  21   1    -0.26  -0.18   0.21     0.13   0.09  -0.10    -0.02  -0.02   0.04
                     34                     35                     36
                        a                      a                      a 
 Frequencies --  1398.1802              1407.6565              1419.9804
 Red. masses --     3.3326                 3.3029                 3.0957
 Frc consts  --     0.0000                 0.0000                 0.0000
 IR Inten    --     7.3604                 2.9828                 0.9307
 Raman Activ --     0.0000                 0.0000                 0.0000
 Depolar     --     0.0000                 0.0000                 0.0000
 Atom AN      X      Y      Z        X      Y      Z        X      Y      Z
   1   6     0.13  -0.24   0.33    -0.04   0.06  -0.09     0.01   0.00   0.00
   2   6    -0.01   0.06  -0.07    -0.01  -0.03   0.03    -0.01   0.01   0.01
   3   1    -0.01  -0.04   0.10     0.06   0.04  -0.06    -0.02  -0.01   0.02
   4   6    -0.03  -0.03   0.02     0.01  -0.01  -0.03     0.02   0.02   0.01
   5   6     0.00   0.02   0.02     0.01   0.09   0.07     0.03  -0.03  -0.02
   6   6     0.03  -0.08  -0.05     0.10  -0.24  -0.14    -0.13   0.25   0.12
   7   6    -0.05  -0.04  -0.06    -0.19  -0.17  -0.17    -0.21  -0.12  -0.17
   8   8     0.00  -0.01   0.00    -0.00   0.02   0.00     0.00  -0.01  -0.00
   9   1    -0.33   0.25  -0.24     0.09  -0.06   0.06    -0.01  -0.01  -0.01
  10   1    -0.14   0.14  -0.44     0.05  -0.03   0.12    -0.03  -0.01   0.00
  11   1     0.00   0.37  -0.34     0.01  -0.11   0.08    -0.01   0.02  -0.00
  12   1     0.06   0.00  -0.01    -0.03   0.02   0.02    -0.01  -0.04  -0.04
  13   1     0.02   0.02  -0.04     0.02  -0.01   0.02    -0.07  -0.01  -0.04
  14   1     0.03   0.00  -0.00    -0.02  -0.10  -0.08    -0.03   0.01   0.03
  15   1     0.00   0.09   0.04    -0.02   0.32   0.09     0.04  -0.36  -0.07
  16   1    -0.02   0.08   0.08    -0.12   0.22   0.25     0.15  -0.23  -0.27
  17   1    -0.07   0.07   0.01    -0.22   0.22   0.05     0.24  -0.25  -0.05
  18   1     0.04   0.04   0.08     0.12   0.16   0.28     0.15   0.11   0.30
  19   1     0.05   0.07   0.03     0.21   0.27   0.14     0.24   0.26   0.11
  20   1     0.08   0.01   0.05     0.31   0.05   0.15     0.31   0.05   0.18
  21   1     0.02   0.01  -0.01    -0.02  -0.01   0.01     0.01   0.01  -0.01
                     37                     38                     39
                        a                      a                      a 
 Frequencies --  1480.8304              1485.2566              1493.8673
 Red. masses --     1.8192                 1.6474                 1.5614
 Frc consts  --     0.0000                 0.0000                 0.0000
 IR Inten    --     0.8292                 0.9363                 1.3907
 Raman Activ --     0.0000                 0.0000                 0.0000
 Depolar     --     0.0000                 0.0000                 0.0000
 Atom AN      X      Y      Z        X      Y      Z        X      Y      Z
   1   6    -0.11  -0.04   0.05     0.15   0.10   0.01     0.06  -0.14  -0.11
   2   6    -0.01  -0.00  -0.01     0.05   0.03   0.00     0.00  -0.03  -0.04
   3   1    -0.01  -0.01   0.00    -0.03  -0.00  -0.00     0.02  -0.02   0.03
   4   6     0.03  -0.04  -0.22    -0.01  -0.04  -0.12    -0.01  -0.00  -0.02
   5   6    -0.01  -0.01  -0.01    -0.01   0.00   0.01     0.01   0.02   0.01
   6   6     0.02   0.04   0.03     0.06   0.03   0.01     0.06   0.03   0.00
   7   6    -0.03   0.00   0.02    -0.03   0.01   0.02    -0.05  -0.02   0.06
   8   8    -0.00  -0.00  -0.00    -0.01  -0.01   0.00    -0.00   0.00   0.00
   9   1    -0.06   0.25  -0.01    -0.08  -0.48  -0.15     0.30   0.29   0.30
  10   1     0.37   0.12  -0.09    -0.48  -0.19   0.22    -0.20   0.06  -0.29
  11   1     0.13  -0.22  -0.08    -0.05   0.27  -0.12    -0.32   0.23   0.45
  12   1    -0.16   0.37   0.36    -0.08   0.20   0.19    -0.00   0.02   0.02
  13   1     0.10  -0.21   0.48     0.06  -0.11   0.25     0.03  -0.01   0.03
  14   1     0.01   0.01   0.00     0.04   0.00  -0.01    -0.03  -0.03  -0.01
  15   1    -0.05   0.01  -0.09    -0.06   0.10  -0.08    -0.05   0.10  -0.06
  16   1    -0.09  -0.06  -0.03    -0.19  -0.07  -0.02    -0.19  -0.08  -0.03
  17   1     0.06  -0.07  -0.00     0.02  -0.11   0.05     0.01  -0.12   0.07
  18   1     0.03   0.00   0.06     0.04  -0.01   0.07     0.04   0.05   0.10
  19   1     0.07  -0.03  -0.05     0.09  -0.06  -0.08     0.13  -0.11  -0.13
  20   1     0.01   0.04  -0.06    -0.01   0.04  -0.09     0.03   0.11  -0.19
  21   1     0.01  -0.00   0.01     0.01   0.01  -0.01    -0.01  -0.01   0.00
                     40                     41                     42
                        a                      a                      a 
 Frequencies --  1496.3244              1497.6584              1503.5211
 Red. masses --     1.6311                 1.5549                 1.5922
 Frc consts  --     0.0000                 0.0000                 0.0000
 IR Inten    --     0.3546                 0.1981                 1.1458
 Raman Activ --     0.0000                 0.0000                 0.0000
 Depolar     --     0.0000                 0.0000                 0.0000
 Atom AN      X      Y      Z        X      Y      Z        X      Y      Z
   1   6    -0.07   0.05   0.05     0.00  -0.01  -0.01     0.00   0.01  -0.00
   2   6    -0.02  -0.00   0.02     0.01   0.00  -0.00     0.00  -0.00   0.00
   3   1     0.02   0.01  -0.00    -0.03  -0.02   0.01    -0.00   0.01  -0.01
   4   6    -0.01   0.02   0.11    -0.01   0.00   0.02     0.02   0.00  -0.02
   5   6     0.01   0.03   0.04     0.01   0.05   0.02    -0.09   0.02   0.02
   6   6     0.12   0.04  -0.00     0.05  -0.05   0.11    -0.11  -0.05  -0.05
   7   6    -0.10   0.01   0.08    -0.03   0.14  -0.09    -0.11   0.09   0.08
   8   8     0.00   0.00  -0.00     0.00  -0.00  -0.00    -0.00   0.00   0.00
   9   1    -0.13  -0.01  -0.11     0.03   0.04   0.03     0.00  -0.03  -0.00
  10   1     0.22   0.02   0.08    -0.01   0.01  -0.03    -0.02  -0.01   0.02
  11   1     0.17  -0.18  -0.19    -0.03   0.01   0.04    -0.00   0.01  -0.00
  12   1     0.08  -0.19  -0.19     0.01  -0.03  -0.03    -0.03   0.01   0.02
  13   1    -0.05   0.11  -0.25     0.02   0.03  -0.03     0.01  -0.01   0.02
  14   1     0.01   0.00   0.00    -0.02  -0.04  -0.03     0.02   0.00  -0.01
  15   1    -0.10   0.21  -0.11    -0.20   0.04  -0.35     0.17  -0.20   0.22
  16   1    -0.38  -0.16  -0.05    -0.19   0.06   0.12     0.42   0.15   0.03
  17   1     0.01  -0.24   0.14     0.21   0.05  -0.22    -0.10   0.23  -0.06
  18   1     0.10  -0.01   0.18     0.17  -0.51   0.02     0.22  -0.25   0.24
  19   1     0.25  -0.18  -0.24     0.22   0.18   0.05     0.42  -0.16  -0.29
  20   1    -0.01   0.14  -0.29    -0.30  -0.26   0.29    -0.18   0.05  -0.25
  21   1     0.00   0.00  -0.00     0.00   0.00  -0.00    -0.00  -0.00   0.00
                     43                     44                     45
                        a                      a                      a 
 Frequencies --  1509.9111              2936.7318              2940.8976
 Red. masses --     1.5310                 1.7420                 1.7381
 Frc consts  --     0.0000                 0.0000                 0.0000
 IR Inten    --     2.0404                42.6476                27.3059
 Raman Activ --     0.0000                 0.0000                 0.0000
 Depolar     --     0.0000                 0.0000                 0.0000
 Atom AN      X      Y      Z        X      Y      Z        X      Y      Z
   1   6    -0.00  -0.01  -0.00     0.00   0.00  -0.00    -0.00   0.00   0.01
   2   6    -0.00  -0.02  -0.00     0.02  -0.07  -0.03     0.06  -0.19  -0.08
   3   1     0.04   0.02  -0.02    -0.10   0.29   0.14    -0.24   0.71   0.33
   4   6    -0.01  -0.01  -0.01    -0.04   0.09   0.00    -0.03   0.07   0.01
   5   6     0.02   0.04  -0.06     0.05  -0.14   0.17    -0.03   0.08  -0.09
   6   6     0.03   0.08  -0.15     0.00   0.00  -0.01     0.00   0.00   0.01
   7   6     0.01   0.08  -0.06     0.00   0.01  -0.00    -0.00  -0.01   0.00
   8   8    -0.00   0.01   0.00     0.00  -0.00  -0.00     0.01   0.00  -0.01
   9   1     0.01   0.03   0.01    -0.00   0.00   0.00     0.02   0.00  -0.02
  10   1     0.01   0.01  -0.02     0.00  -0.01  -0.00     0.01  -0.04  -0.01
  11   1    -0.01  -0.00   0.02    -0.00  -0.00  -0.00    -0.01  -0.00  -0.00
  12   1    -0.03   0.02   0.03     0.04  -0.10   0.14     0.02  -0.05   0.07
  13   1     0.02  -0.01   0.03     0.09  -0.25  -0.13     0.08  -0.22  -0.11
  14   1    -0.03   0.01  -0.00    -0.21   0.52  -0.62     0.11  -0.27   0.32
  15   1     0.19   0.15   0.42    -0.01  -0.00   0.01     0.01   0.00  -0.00
  16   1    -0.04  -0.23  -0.22     0.01  -0.02   0.02    -0.00   0.02  -0.01
  17   1    -0.30  -0.26   0.43     0.01   0.01   0.01    -0.02  -0.01  -0.02
  18   1     0.07  -0.31  -0.05    -0.02  -0.00   0.01     0.01   0.00  -0.01
  19   1     0.07   0.15   0.09     0.01  -0.02   0.03    -0.01   0.01  -0.01
  20   1    -0.18  -0.19   0.23     0.01  -0.01  -0.01    -0.01   0.01   0.01
  21   1    -0.01  -0.01   0.01     0.00  -0.00  -0.00     0.00  -0.01  -0.00
                     46                     47                     48
                        a                      a                      a 
 Frequencies --  2950.1862              2968.5859              3023.6959
 Red. masses --     1.8930                 1.5701                 1.7967
 Frc consts  --     0.0000                 0.0000                 0.0000
 IR Inten    --   159.7887                70.8013                53.3500
 Raman Activ --     0.0000                 0.0000                 0.0000
 Depolar     --     0.0000                 0.0000                 0.0000
 Atom AN      X      Y      Z        X      Y      Z        X      Y      Z
   1   6    -0.00  -0.01  -0.01     0.00   0.00  -0.00     0.02  -0.24  -0.11
   2   6    -0.03   0.10   0.04     0.00  -0.01   0.01     0.01  -0.02  -0.01
   3   1     0.12  -0.33  -0.16    -0.01   0.02   0.01    -0.01   0.04   0.02
   4   6    -0.09   0.24   0.03     0.03  -0.08   0.21     0.00  -0.00   0.00
   5   6    -0.02   0.04  -0.04     0.00  -0.01   0.02    -0.00   0.00  -0.00
   6   6    -0.01  -0.01   0.00     0.00   0.00  -0.00     0.01   0.01  -0.01
   7   6     0.00  -0.01  -0.00     0.00   0.00  -0.01    -0.01   0.02  -0.00
   8   8    -0.00  -0.00   0.00     0.00   0.00  -0.00    -0.00   0.00   0.00
   9   1    -0.00  -0.00   0.00    -0.00  -0.00   0.00    -0.01  -0.03  -0.01
  10   1    -0.01   0.03   0.01     0.00  -0.00  -0.00    -0.20   0.85   0.36
  11   1     0.01   0.00   0.00    -0.00  -0.00  -0.00     0.14   0.03   0.04
  12   1     0.06  -0.15   0.22    -0.23   0.59  -0.65    -0.00   0.01  -0.01
  13   1     0.26  -0.69  -0.33     0.12  -0.31  -0.11    -0.00   0.01   0.01
  14   1     0.05  -0.12   0.14    -0.02   0.04  -0.04     0.00  -0.00   0.00
  15   1     0.01   0.00  -0.01    -0.00   0.00   0.00    -0.03  -0.01   0.01
  16   1    -0.00   0.01  -0.01     0.00  -0.01   0.01     0.00  -0.01   0.01
  17   1     0.00   0.00   0.01    -0.00  -0.00  -0.00    -0.00  -0.00  -0.00
  18   1     0.00  -0.00  -0.00    -0.01  -0.00   0.01     0.00   0.00  -0.00
  19   1    -0.00   0.00  -0.00     0.01  -0.02   0.02     0.01  -0.03   0.03
  20   1    -0.01   0.01   0.01    -0.01   0.01   0.01     0.02  -0.05  -0.02
  21   1    -0.00   0.01   0.00     0.00  -0.00   0.00     0.00  -0.00  -0.00
                     49                     50                     51
                        a                      a                      a 
 Frequencies --  3025.0843              3026.9009              3028.2370
 Red. masses --     1.9235                 1.9475                 1.9165
 Frc consts  --     0.0000                 0.0000                 0.0000
 IR Inten    --    29.6449                50.5482               127.3093
 Raman Activ --     0.0000                 0.0000                 0.0000
 Depolar     --     0.0000                 0.0000                 0.0000
 Atom AN      X      Y      Z        X      Y      Z        X      Y      Z
   1   6    -0.00   0.01   0.01     0.00  -0.01  -0.00    -0.00  -0.00  -0.00
   2   6    -0.00   0.00   0.00     0.00  -0.00  -0.00    -0.00   0.00   0.00
   3   1     0.00  -0.01  -0.00    -0.00   0.01   0.00     0.00  -0.00  -0.00
   4   6    -0.00   0.00  -0.00     0.00  -0.00  -0.00     0.00  -0.00   0.01
   5   6    -0.00   0.01  -0.01     0.00  -0.01   0.01     0.00  -0.01   0.02
   6   6     0.05  -0.05   0.10    -0.14  -0.14   0.15     0.00  -0.08   0.12
   7   6    -0.09   0.22  -0.09     0.11  -0.06  -0.08    -0.13  -0.04   0.21
   8   8     0.00  -0.00   0.00    -0.00   0.00   0.00    -0.00  -0.00  -0.00
   9   1     0.01   0.00  -0.01     0.00  -0.00  -0.00     0.00   0.00  -0.00
  10   1     0.01  -0.05  -0.02    -0.01   0.05   0.02    -0.00   0.01   0.00
  11   1    -0.00  -0.00  -0.00     0.00  -0.00  -0.00     0.00   0.00   0.00
  12   1     0.00  -0.00   0.00    -0.00   0.00  -0.01    -0.01   0.02  -0.02
  13   1     0.00  -0.00  -0.00    -0.01   0.02   0.01     0.01  -0.01  -0.00
  14   1     0.00  -0.02   0.02    -0.01   0.02  -0.02    -0.01   0.03  -0.04
  15   1    -0.01  -0.01   0.03     0.55   0.14  -0.28     0.12   0.02  -0.05
  16   1    -0.07   0.27  -0.29    -0.12   0.33  -0.36    -0.09   0.31  -0.33
  17   1    -0.09  -0.07  -0.09     0.08   0.04   0.13    -0.05  -0.04  -0.03
  18   1    -0.04   0.03   0.00    -0.26  -0.09   0.17     0.48   0.14  -0.30
  19   1     0.18  -0.42   0.53     0.02  -0.01  -0.01    -0.15   0.30  -0.34
  20   1     0.19  -0.39  -0.21    -0.13   0.31   0.13     0.12  -0.30  -0.10
  21   1    -0.00   0.00   0.00     0.00  -0.00  -0.00     0.00   0.00   0.00
                     52                     53                     54
                        a                      a                      a 
 Frequencies --  3032.0453              3037.1500              3039.3860
 Red. masses --     1.7995                 1.7179                 1.2928
 Frc consts  --     0.0000                 0.0000                 0.0000
 IR Inten    --    99.8279                48.3499                64.0552
 Raman Activ --     0.0000                 0.0000                 0.0000
 Depolar     --     0.0000                 0.0000                 0.0000
 Atom AN      X      Y      Z        X      Y      Z        X      Y      Z
   1   6     0.01  -0.00  -0.00    -0.24  -0.07  -0.05    -0.01  -0.00   0.00
   2   6    -0.00   0.00   0.00    -0.01  -0.00  -0.00    -0.00   0.00  -0.00
   3   1     0.00  -0.01  -0.00    -0.00   0.01   0.00     0.00  -0.00  -0.00
   4   6    -0.00  -0.00  -0.00     0.00  -0.00   0.00    -0.00   0.00   0.00
   5   6     0.01  -0.01   0.01     0.00  -0.00   0.00     0.01   0.00   0.00
   6   6     0.22  -0.00   0.09     0.00  -0.00  -0.00     0.04   0.01   0.03
   7   6     0.07  -0.10  -0.04    -0.00  -0.01  -0.00     0.12   0.08   0.04
   8   8    -0.00   0.00   0.00     0.00  -0.00  -0.00     0.00   0.00  -0.00
   9   1    -0.01  -0.00   0.01     0.07   0.00  -0.11     0.01   0.00  -0.02
  10   1    -0.00   0.02   0.01    -0.00  -0.15  -0.07     0.00  -0.01  -0.00
  11   1    -0.02  -0.01  -0.01     0.78   0.38   0.36     0.03   0.02   0.01
  12   1     0.00  -0.00   0.00    -0.00   0.00  -0.00    -0.00   0.01  -0.01
  13   1    -0.00   0.00   0.00    -0.00   0.00   0.00     0.00  -0.01  -0.00
  14   1    -0.01   0.02  -0.02    -0.00   0.00  -0.00     0.00  -0.00   0.01
  15   1    -0.50  -0.15   0.29    -0.02  -0.01   0.01    -0.05  -0.01   0.04
  16   1    -0.06   0.33  -0.34    -0.00   0.02  -0.02    -0.00   0.04  -0.03
  17   1    -0.22  -0.16  -0.26     0.01   0.01   0.01    -0.10  -0.06  -0.11
  18   1    -0.07  -0.04   0.05     0.02   0.00  -0.01    -0.56  -0.15   0.38
  19   1    -0.01   0.03  -0.06     0.00  -0.01   0.01    -0.10   0.29  -0.33
  20   1    -0.17   0.36   0.17    -0.02   0.03   0.02     0.22  -0.42  -0.19
  21   1    -0.00  -0.00  -0.00    -0.00   0.00  -0.00    -0.00   0.00   0.00
                     55                     56                     57
                        a                      a                      a 
 Frequencies --  3045.8748              3056.6968              3490.7050
 Red. masses --     1.3918                 1.6319                 1.8699
 Frc consts  --     0.0000                 0.0000                 0.0000
 IR Inten    --    42.9517                32.2049                48.2054
 Raman Activ --     0.0000                 0.0000                 0.0000
 Depolar     --     0.0000                 0.0000                 0.0000
 Atom AN      X      Y      Z        X      Y      Z        X      Y      Z
   1   6    -0.01  -0.00   0.00     0.14   0.02  -0.19     0.00   0.00  -0.00
   2   6    -0.00   0.00   0.00     0.01  -0.00  -0.01     0.01  -0.01  -0.01
   3   1     0.01  -0.02  -0.01    -0.01   0.02   0.01    -0.00   0.01   0.00
   4   6    -0.00   0.00  -0.00    -0.00   0.00  -0.00    -0.00   0.00   0.00
   5   6     0.00  -0.00   0.01    -0.00   0.00  -0.00    -0.00  -0.00  -0.00
   6   6     0.04   0.11   0.15    -0.00   0.00   0.01    -0.00  -0.00  -0.00
   7   6    -0.01  -0.01  -0.01     0.00   0.00   0.00     0.00  -0.00  -0.00
   8   8    -0.00  -0.00   0.00    -0.00   0.00  -0.00     0.09  -0.20  -0.10
   9   1     0.02   0.00  -0.02    -0.66  -0.09   0.69    -0.00  -0.00   0.00
  10   1    -0.00   0.00   0.00     0.03  -0.03  -0.04    -0.00   0.00  -0.00
  11   1     0.02   0.01   0.01     0.14   0.06   0.03     0.00  -0.00  -0.00
  12   1     0.00  -0.00   0.00     0.00  -0.00   0.00     0.00  -0.00  -0.00
  13   1    -0.00   0.00   0.00     0.00  -0.00  -0.00     0.00   0.00   0.00
  14   1    -0.01   0.01  -0.02     0.00  -0.01   0.01     0.00  -0.00   0.00
  15   1     0.35   0.11  -0.16     0.02   0.00  -0.01    -0.00   0.00   0.00
  16   1     0.05  -0.16   0.21     0.00  -0.00   0.00    -0.00   0.00  -0.00
  17   1    -0.54  -0.33  -0.56    -0.02  -0.01  -0.01     0.00   0.00   0.00
  18   1     0.06   0.01  -0.04    -0.01  -0.00   0.00    -0.00  -0.00   0.00
  19   1     0.01  -0.03   0.03    -0.00   0.00  -0.00     0.00  -0.00  -0.00
  20   1    -0.03   0.06   0.03     0.00  -0.01  -0.00    -0.00   0.00   0.00
  21   1    -0.00   0.00   0.00     0.00  -0.00  -0.00    -0.36   0.80   0.43
