26
 energy: -53.616239600879 gnorm: 0.036242343222 xtb: 6.7.1 (edcfbbe)
C            0.56085296258391        1.42433458768795        1.05162505150467
C            1.91311735461126        1.65275469235990        1.21747110874945
C            2.84882129164729        0.86396627642219        0.54374283456126
C            2.39997560983763       -0.16770999949536       -0.31254369052822
C            1.02211442277578       -0.38041132378988       -0.46302397787561
C            0.08912865828010        0.40122236169075        0.20755665933395
C           -1.35401183174200        0.16992566548165        0.00335830962254
C           -1.87987097174447       -0.07464600026223       -1.27298941093905
C           -3.23305826463295       -0.30940079568267       -1.48317084393587
C           -4.07399135990173       -0.29495461605203       -0.38422099123243
C           -3.62352731207133       -0.06518594819511        0.90381164380155
C           -2.26736422458913        0.16014736736498        1.05940174730819
F           -1.81327187268618        0.34487590223932        2.32347740760064
F           -5.39842079215861       -0.51482915555095       -0.56864332612560
C            3.38210668926375       -0.99279803635482       -1.01327581330662
O            4.60364780907771       -0.84709373576977       -0.90302367441606
O            2.85510670269591       -1.94079339244371       -1.80558357773559
O            4.16069893296846        1.12832401197956        0.74257107195676
H           -0.14595234185025        2.06435435327204        1.56819844134108
H            2.26907347134823        2.44898377878894        1.86243085140869
H            0.68363571004840       -1.18339230725006       -1.10707487361484
H           -1.20738813617778       -0.06302193252107       -2.12438389021087
H           -3.62976887312184       -0.48815821456851       -2.47583225291910
H           -4.29423419967985       -0.07329944712292        1.75504243420646
H            3.58628640257377       -2.42995475644884       -2.22074959616458
H            4.66582390322549        0.48070328732760        0.19351407200910
26
 energy: -53.617738744203 gnorm: 0.017342396846 xtb: 6.7.1 (edcfbbe)
C            0.55308135494895        1.42267849168271        1.04301980396309
C            1.90039950148531        1.65030087745903        1.21150847866109
C            2.84310194533693        0.86532550220345        0.54509937578356
C            2.39483226093874       -0.16489286424711       -0.30907588623227
C            1.02191957405680       -0.37594055322569       -0.46773465107843
C            0.09034872023901        0.40369352232065        0.19881689247555
C           -1.34967837348294        0.16444295713804        0.00239996062552
C           -1.87196789584094       -0.07573750708790       -1.27047518832816
C           -3.22141977944013       -0.30325100294103       -1.47740527290323
C           -4.06571713635879       -0.29229046080692       -0.38357549811390
C           -3.61064738082473       -0.06685304133972        0.90166024850469
C           -2.25644699190789        0.15708593835587        1.06167763635644
F           -1.80553832671516        0.35296762248637        2.32715754307410
F           -5.39199048017782       -0.51351031947926       -0.56919501490337
C            3.36979838208669       -0.99434249639007       -1.01253269581730
O            4.58640130548983       -0.85531785709623       -0.90710564144565
O            2.85012543535667       -1.93428534407460       -1.80025664150393
O            4.14660163493718        1.13087434105080        0.74541443531202
H           -0.15418341202273        2.05109534614446        1.56440473344104
H            2.25499541149395        2.43813505139386        1.85809095970181
H            0.69224658032207       -1.17959675844649       -1.10916553050872
H           -1.20251159826303       -0.06554926779676       -2.11736732784708
H           -3.61646402069378       -0.48478250451435       -2.46415327053373
H           -4.27913229936133       -0.07064233939820        1.74762469617766
H            3.57084705860292       -2.43570564175115       -2.22607450969470
H            4.67052827037577        0.49004093146721        0.20492807923382
26
 energy: -53.618141662364 gnorm: 0.005450728538 xtb: 6.7.1 (edcfbbe)
C            0.54731115208546        1.41994643821014        1.04107254720332
C            1.89219339664084        1.64893591801153        1.20936912013859
C            2.84123184858779        0.86813878436370        0.54544575750439
C            2.39190972265313       -0.16111951639506       -0.30736021240442
C            1.02189201524554       -0.37413611188168       -0.47063800874073
C            0.09108662649756        0.40330122746842        0.19546284254203
C           -1.34735576804594        0.16229526061312        0.00168987723266
C           -1.86578262164774       -0.07749844983069       -1.27009670561814
C           -3.21345515326113       -0.30271223793975       -1.47484626910692
C           -4.06013904357090       -0.29299300475224       -0.38341768245228
C           -3.60179382776498       -0.06765642188859        0.90000033920447
C           -2.24920651263272        0.15814677644200        1.06347127220276
F           -1.80089079689415        0.35582691353261        2.33079640351221
F           -5.38804114644735       -0.51207984279347       -0.56957338330759
C            3.36195895676487       -0.99592562305840       -1.01379112640366
O            4.57800584394824       -0.86221160609942       -0.91088286065960
O            2.84332231846717       -1.92879534337390       -1.79524391567737
O            4.13709489892105        1.13391548898421        0.74931451448361
H           -0.16142685637108        2.04502256427401        1.55980838518116
H            2.24696933287712        2.43371475573814        1.85553231449984
H            0.69991141580658       -1.17701438235035       -1.11388709549419
H           -1.19652400951353       -0.06834769555758       -2.11360199202701
H           -3.60920447781931       -0.48135858467096       -2.45936252577434
H           -4.26896866555865       -0.06993586811253        1.74406288127992
H            3.54784778063363       -2.44625916856478       -2.23432972835196
H            4.68158331098011        0.50274235273851        0.21869096543314
26
 energy: -53.618204388929 gnorm: 0.003066032591 xtb: 6.7.1 (edcfbbe)
C            0.54678179519956        1.42041418664216        1.04078207949962
C            1.89158780868037        1.64956171356890        1.20958369525439
C            2.84232738174358        0.86881721742414        0.54644871852091
C            2.39246713140875       -0.15942969073691       -0.30722947555464
C            1.02255972312052       -0.37321739194534       -0.47196876988613
C            0.09148212051181        0.40320236543053        0.19491652166534
C           -1.34696365251546        0.16156153464688        0.00142922633604
C           -1.86480636921545       -0.07882120301942       -1.27076059219834
C           -3.21279889649250       -0.30341509053416       -1.47537672818689
C           -4.05958197167477       -0.29281021552024       -0.38368871623195
C           -3.60058925203370       -0.06780158814781        0.89961977188767
C           -2.24794239071493        0.15780935686388        1.06378245602120
F           -1.80055273841077        0.35533935317771        2.33139167475612
F           -5.38748117018431       -0.51200478565396       -0.56939930660136
C            3.36144726379768       -0.99679771491134       -1.01467023871385
O            4.57848786389312       -0.86466469483884       -0.91118353970906
O            2.83927384446025       -1.92687109123844       -1.79434777534207
O            4.13606813569013        1.13571201579919        0.75191695663474
H           -0.16294173735987        2.04441307855004        1.55972607747472
H            2.24681601639782        2.43451074299214        1.85607825800437
H            0.70261509565736       -1.17608531500017       -1.11631394278646
H           -1.19444295594254       -0.07046535991870       -2.11361254571447
H           -3.60924176622305       -0.48220654104349       -2.46010969155065
H           -4.26775190794726       -0.07019601760512        1.74430937050703
H            3.53433042200415       -2.45236521925496       -2.23913982231040
H            4.68837994673110        0.50975297738029        0.22550205262401
26
 energy: -53.618234508070 gnorm: 0.002196729802 xtb: 6.7.1 (edcfbbe)
C            0.54751997616097        1.42092809921415        1.04140679118094
C            1.89242417134490        1.65028055708243        1.21026474785042
C            2.84387811715167        0.86947832878331        0.54694419432955
C            2.39393629661320       -0.15798195938476       -0.30748633962647
C            1.02360533373893       -0.37214122768017       -0.47265149052365
C            0.09197647683069        0.40336195953952        0.19493594040113
C           -1.34678299852692        0.16152549730331        0.00114988271933
C           -1.86476484188316       -0.08007290739998       -1.27144005032547
C           -3.21309949793569       -0.30505989952073       -1.47631258674684
C           -4.05958120055082       -0.29340874157120       -0.38403851071321
C           -3.60073514124257       -0.06805091230944        0.89929360759896
C           -2.24781040789121        0.15760111252989        1.06352473790003
F           -1.80096905876292        0.35423815914971        2.33108723738387
F           -5.38729049313087       -0.51209835784046       -0.56940511871959
C            3.36240186724586       -0.99767306561932       -1.01561272131067
O            4.58002379554624       -0.86678393427796       -0.91126259677161
O            2.83493900350991       -1.92525674072125       -1.79424087441190
O            4.13652211097392        1.13771024922727        0.75492452155500
H           -0.16292897938072        2.04518423198304        1.55990177259721
H            2.24805214431659        2.43594654743330        1.85690743594673
H            0.70447509243960       -1.17470119917188       -1.11818075776266
H           -1.19320859891121       -0.07238329892704       -2.11404224180224
H           -3.61007065070693       -0.48427710298019       -2.46150538417185
H           -4.26803213777607       -0.07069258602369        1.74480211595260
H            3.51993109034608       -2.45827808782093       -2.24415241754260
H            4.69511827106212        0.51654790211002        0.23287381941287
26
 energy: -53.618238708752 gnorm: 0.001268978886 xtb: 6.7.1 (edcfbbe)
C            0.54805476282420        1.42135228481634        1.04158541110691
C            1.89298647066887        1.65043908815209        1.21047175777763
C            2.84417859578265        0.86935885485736        0.54709066948491
C            2.39454617971122       -0.15778087900806       -0.30760167384801
C            1.02398212629959       -0.37152035176938       -0.47253923736066
C            0.09214093772358        0.40382238858159        0.19499303728765
C           -1.34663887440720        0.16178285680349        0.00106311106618
C           -1.86484224685463       -0.08040511706122       -1.27148391808134
C           -3.21311150377712       -0.30588462729364       -1.47655053161711
C           -4.05953214150652       -0.29388715920603       -0.38420097824958
C           -3.60103436049762       -0.06817969835280        0.89915922941514
C           -2.24801664170086        0.15761900694502        1.06320721430279
F           -1.80118320611517        0.35432528797391        2.33061778777773
F           -5.38712188531891       -0.51262306965713       -0.56962778180894
C            3.36297653486971       -0.99778331256158       -1.01606353281960
O            4.58032812270346       -0.86774533505563       -0.91141375200797
O            2.83338165060906       -1.92468776135680       -1.79465670488887
O            4.13697589245591        1.13833660043299        0.75601814332902
H           -0.16233374098432        2.04571170139778        1.56027639219180
H            2.24870385848902        2.43610376327832        1.85719231845827
H            0.70446168867544       -1.17388054098522       -1.11821871853859
H           -1.19317301975148       -0.07268144493720       -2.11415577555666
H           -3.60993040693256       -0.48566474403028       -2.46175243250156
H           -4.26835171773466       -0.07083919290274        1.74472297533025
H            3.51546732322962       -2.45957172087479       -2.24556753547657
H            4.69661534212031        0.51822574492058        0.23512023962710
26
 energy: -53.618240165315 gnorm: 0.000444598424 xtb: 6.7.1 (edcfbbe)
C            0.54852589008995        1.42198097964351        1.04192705957957
C            1.89351742504920        1.65053234264448        1.21072760181649
C            2.84412593406078        0.86918864532012        0.54712943962006
C            2.39495821004332       -0.15770366754531       -0.30762142250471
C            1.02422519629003       -0.37057843169694       -0.47217808820924
C            0.09228045750418        0.40475094039065        0.19516679379947
C           -1.34632591631704        0.16238139096170        0.00101201044386
C           -1.86456242706194       -0.08058673016341       -1.27137306044159
C           -3.21256715184124       -0.30699865996426       -1.47664442809750
C           -4.05912372526949       -0.29486996254594       -0.38444359988843
C           -3.60115747882600       -0.06835971621167        0.89892359049878
C           -2.24819158699051        0.15801826939945        1.06279118492804
F           -1.80134860763569        0.35536436556683        2.33006097744341
F           -5.38658716474076       -0.51412664043233       -0.57014446419334
C            3.36321352563577       -0.99813482816837       -1.01619713312323
O            4.58007010468352       -0.86939152251469       -0.91193927132876
O            2.83129373246347       -1.92381181524237       -1.79550354833723
O            4.13739291308685        1.13875345896635        0.75715237936371
H           -0.16151150210328        2.04661687246673        1.56076353424811
H            2.24941808461810        2.43584257318507        1.85754668441499
H            0.70388663501168       -1.17271393033784       -1.11774704431841
H           -1.19303541600151       -0.07278484457081       -2.11415293249706
H           -3.60891892756664       -0.48769839907291       -2.46171056342768
H           -4.26850082944437       -0.07089177037529        1.74427478211821
H            3.51114475386236       -2.45988012306746       -2.24725439259192
H            4.69730761198087        0.51904382647171        0.23711962508430
26
 energy: -53.618240522425 gnorm: 0.000179662805 xtb: 6.7.1 (edcfbbe)
C            0.54842915354090        1.42219774438357        1.04201764203030
C            1.89348618703957        1.65053002332232        1.21086841359738
C            2.84401936682518        0.86908862909846        0.54732894684985
C            2.39471087080626       -0.15767210429186       -0.30753382698317
C            1.02404635433573       -0.37044573372563       -0.47210954296465
C            0.09225041706769        0.40503821734580        0.19526559031406
C           -1.34627690670661        0.16261830949239        0.00106319334328
C           -1.86424645622311       -0.08054499749234       -1.27132808075841
C           -3.21219531173529       -0.30719703186852       -1.47659228324655
C           -4.05889044140943       -0.29518323874671       -0.38451474548483
C           -3.60099035875219       -0.06834261400479        0.89883993647043
C           -2.24814524236259        0.15838145080239        1.06282178757135
F           -1.80142195686317        0.35611120232547        2.33015747356705
F           -5.38632110948048       -0.51493565749398       -0.57028942414868
C            3.36274214956844       -0.99787790660142       -1.01652089738759
O            4.57970207293953       -0.86990761357419       -0.91199070526325
O            2.83093566732489       -1.92358186269992       -1.79577634675990
O            4.13733861060033        1.13841226268955        0.75708514192614
H           -0.16149980580306        2.04680935846078        1.56093305427196
H            2.24952664647006        2.43569937823691        1.85771440535120
H            0.70361084912706       -1.17254248114080       -1.11765047442529
H           -1.19275729946868       -0.07274263121116       -2.11407620061545
H           -3.60843249592677       -0.48805772354911       -2.46164972049163
H           -4.26839401797441       -0.07084656590348        1.74410429888412
H            3.51139831295976       -2.45947862362970       -2.24721313676452
H            4.69690448468200        0.51841283288292        0.23673121551670
26
 energy: -53.618240670370 gnorm: 0.000192460138 xtb: 6.7.1 (edcfbbe)
C            0.54847584419361        1.42253577637721        1.04225588743368
C            1.89363217772108        1.65062513141262        1.21105664175744
C            2.84402964310887        0.86911696277545        0.54742032702345
C            2.39447474246082       -0.15761513228487       -0.30739971494822
C            1.02383582806960       -0.37017096789941       -0.47202108717328
C            0.09223633655756        0.40548273162882        0.19548211582556
C           -1.34624629046680        0.16301730098514        0.00117252753065
C           -1.86386954510953       -0.08055538160584       -1.27125748753497
C           -3.21174499097359       -0.30767606042503       -1.47659444824250
C           -4.05861093361752       -0.29572520715528       -0.38465926336942
C           -3.60091113292741       -0.06829831208976        0.89868885859590
C           -2.24820749008313        0.15893700920910        1.06284244413595
F           -1.80173261971258        0.35725422975137        2.33023366746203
F           -5.38594043484698       -0.51619292221337       -0.57053625444417
C            3.36217063323763       -0.99824702244733       -1.01623591159998
O            4.57927351382376       -0.87059255843232       -0.91210168078581
O            2.83022496968153       -1.92311781640733       -1.79635376676951
O            4.13741708317538        1.13797610222352        0.75709228571204
H           -0.16131353969879        2.04728548947583        1.56115073150311
H            2.24989454957954        2.43564334220416        1.85798003245218
H            0.70323491065958       -1.17224935266991       -1.11748942436648
H           -1.19231624032261       -0.07279915080397       -2.11393525639386
H           -3.60780086358809       -0.48889571583321       -2.46168468740031
H           -4.26844800092164       -0.07079567184837        1.74387061970682
H            3.51105731087177       -2.45866516053369       -2.24795644817756
H            4.69671427970956        0.51766497971344        0.23666500646716
26
 energy: -53.618240831620 gnorm: 0.000134310781 xtb: 6.7.1 (edcfbbe)
C            0.54867492114533        1.42284256661488        1.04247767590561
C            1.89389659145500        1.65065629185541        1.21128208803554
C            2.84413889793323        0.86899278323977        0.54761366860939
C            2.39439903903033       -0.15753342527693       -0.30735490210720
C            1.02371956362033       -0.36989057663431       -0.47188302474066
C            0.09224358946315        0.40590331540377        0.19566828726803
C           -1.34623794789838        0.16340898915576        0.00125935382106
C           -1.86364323954020       -0.08064277067961       -1.27118378767526
C           -3.21143639962426       -0.30823275491502       -1.47663531758367
C           -4.05842372651364       -0.29626551547394       -0.38479763249663
C           -3.60097706909546       -0.06827638049506        0.89854447743987
C           -2.24836079279673        0.15941960847853        1.06279871098382
F           -1.80211563904982        0.35824880710676        2.33018509880143
F           -5.38564399252596       -0.51724815328426       -0.57077049724901
C            3.36184339945118       -0.99814085686746       -1.01657862589916
O            4.57898941056505       -0.87124725832421       -0.91204985338709
O            2.82952231859987       -1.92267182606672       -1.79690203889591
O            4.13758941097798        1.13765819973778        0.75727230680286
H           -0.16098429509282        2.04769589092135        1.56144451788977
H            2.25033144004003        2.43562182947049        1.85820749031223
H            0.70292715306380       -1.17186517701060       -1.11738331184546
H           -1.19198937525870       -0.07290332283701       -2.11379732132575
H           -3.60730502868860       -0.48985437602380       -2.46174483577687
H           -4.26863896692541       -0.07071702233546        1.74365358476612
H            3.51015246872741       -2.45836885483775       -2.24857317201008
H            4.69685800951892        0.51735261218461        0.23693277475692
26
 energy: -53.618240976197 gnorm: 0.000077757752 xtb: 6.7.1 (edcfbbe)
C            0.54900031660810        1.42322434514543        1.04274510363136
C            1.89427852564257        1.65067642253625        1.21151321434827
C            2.84432443889489        0.86880498142043        0.54780124948906
C            2.39429294529225       -0.15748548561136       -0.30728189502770
C            1.02353887005803       -0.36949601825400       -0.47170160641437
C            0.09222920402959        0.40645706408885        0.19590937314394
C           -1.34626318823833        0.16396088530366        0.00143323240778
C           -1.86339369500405       -0.08077610777496       -1.27100627445034
C           -3.21102726545826       -0.30904600100101       -1.47666252575773
C           -4.05821250688982       -0.29699820099130       -0.38498552533478
C           -3.60114858158943       -0.06816236451402        0.89833175962381
C           -2.24863902759195        0.16016458574462        1.06276045550407
F           -1.80277578075205        0.35981807743356        2.33011964874417
F           -5.38526528290534       -0.51874299670677       -0.57110251738970
C            3.36144463263570       -0.99814229547267       -1.01686019112068
O            4.57859225942261       -0.87194133742578       -0.91193321576680
O            2.82874124374617       -1.92199367316063       -1.79774303764748
O            4.13782594173049        1.13714738990963        0.75748903645383
H           -0.16046183674703        2.04822145810043        1.56183083267921
H            2.25091271245165        2.43550229071364        1.85849989879558
H            0.70253276583743       -1.17136737929193       -1.11721206726391
H           -1.19157031160298       -0.07306104375870       -2.11348666469753
H           -3.60658637411797       -0.49131111900757       -2.46176499021359
H           -4.26898649677928       -0.07050669384450        1.74329050996021
H            3.50905262126169       -2.45778302734117       -2.24964617773049
H            4.69709361064692        0.51677886686683        0.23734808843371
26
 energy: -53.618241057756 gnorm: 0.000061708108 xtb: 6.7.1 (edcfbbe)
C            0.54924326754897        1.42352962482559        1.04298126243759
C            1.89457348334007        1.65064916160586        1.21175940430116
C            2.84446335209357        0.86862449622187        0.54797759116316
C            2.39418398370084       -0.15744753287983       -0.30722614978134
C            1.02337834347312       -0.36914797825967       -0.47158887990302
C            0.09220288058693        0.40691562160708        0.19608708401045
C           -1.34628167447978        0.16444217923408        0.00158160290712
C           -1.86317495532197       -0.08093523825513       -1.27085049953646
C           -3.21067070395136       -0.30979596814410       -1.47666833251696
C           -4.05803349212902       -0.29764000046375       -0.38512214424991
C           -3.60128006278409       -0.06797387404848        0.89815119911044
C           -2.24886764235078        0.16090985985863        1.06272966577892
F           -1.80335472369332        0.36135495014167        2.33006770464536
F           -5.38494813272307       -0.52009173713595       -0.57134292389674
C            3.36113248815631       -0.99816870520731       -1.01703042510875
O            4.57829885357110       -0.87244857251341       -0.91183006792688
O            2.82814585436076       -1.92133668336135       -1.79852708134302
O            4.13801025581301        1.13661931905522        0.75775057116764
H           -0.16005124598750        2.04867769313763        1.56212296254222
H            2.25136860794936        2.43534767714733        1.85880871255888
H            0.70223644602897       -1.17094349263942       -1.11713163049020
H           -1.19120025279480       -0.07331014899745       -2.11321505776542
H           -3.60596909761028       -0.49267163587448       -2.46175708801728
H           -4.26927154753931       -0.07016278425813        1.74298429998800
H            3.50819461506082       -2.45718737898276       -2.25071107984967
H            4.69720084026305        0.51613377129320        0.23768501417460
