24
 energy: -389.381389031995 gnorm: 0.022750794247 xtb: 6.7.1 (edcfbbe)
C            2.20992916227928       -0.65856475329183       -1.36897827040663
C            2.31019994772371       -0.12233783095421        0.05637557132498
C            2.28597052081297        1.40363439242199        0.05103982332262
C            1.20314527843315       -0.70417557641204        0.96047256872561
C           -0.18422261698163       -0.34582583795324        0.51236267692704
C           -0.80383024965620        0.81089712635933        0.97143101513047
C           -2.07141740371790        1.15721218161279        0.53786381803834
C           -2.74418200081602        0.34732411475391       -0.36119645026006
C           -2.14367134804992       -0.81467036826100       -0.81507828586118
C           -0.87590671788814       -1.15764565201298       -0.37938569266812
H            2.24394719759435       -1.74561702637353       -1.37535542750946
H            3.03786706814616       -0.28740427282736       -1.96867463307237
H            1.27992120826717       -0.33684829224927       -1.83243248021200
H            3.26776371134803       -0.44867492509882        0.47907580261229
H            2.37486229115236        1.79428139149509        1.06216210267067
H            3.11428031518002        1.79003395579321       -0.53843768033860
H            1.35744783720152        1.76835318618360       -0.38253342916951
H            1.36123707700320       -0.33472821904833        1.97586342257556
H            1.30857592277986       -1.79100581949364        0.97406373863163
H           -0.29067626592881        1.44486530404026        1.67987199444440
H           -2.53680269812412        2.06067603561314        0.90425474890070
H           -3.73331385665433        0.61661619637324       -0.70085952131057
H           -2.66570392638124       -1.45697380104562       -1.50935077326883
H           -0.41925807498578       -2.07074394831760       -0.73281828462473
24
 energy: -389.382437802262 gnorm: 0.005993152327 xtb: 6.7.1 (edcfbbe)
C            2.21956676366331       -0.66126548769344       -1.37336650899824
C            2.31041956188314       -0.11985866622500        0.05276015246680
C            2.29586891206031        1.40813586898565        0.05130783302628
C            1.20641500654911       -0.70649239129463        0.96386520915863
C           -0.18965635784769       -0.35628458271308        0.52802927310009
C           -0.81084612220750        0.80942897095255        0.98289857911937
C           -2.08132120932178        1.16258520939674        0.54071556565593
C           -2.75699655635133        0.35015257491452       -0.36457370971754
C           -2.15374509005337       -0.81849016847988       -0.81894646730705
C           -0.88302271625395       -1.16715555982277       -0.37396398733962
H            2.24705745581472       -1.75468282517040       -1.38725311923498
H            3.05225952139539       -0.29048894754850       -1.97712871329132
H            1.28940351741192       -0.33792192056413       -1.84925872516208
H            3.26536492725082       -0.45029841522800        0.48180007254129
H            2.37821771416606        1.80854532826203        1.06591947335132
H            3.12965161646911        1.79791065989358       -0.53887357407624
H            1.36798355448278        1.78446155340155       -0.38884868901782
H            1.36820365133586       -0.33940459997122        1.98291781841372
H            1.31504549860425       -1.79609672135098        0.98052112855036
H           -0.29146725442791        1.44756350619944        1.69061091627922
H           -2.54684299041070        2.07108456571924        0.90752382260563
H           -3.74921554865681        0.62155259180536       -0.70728100811554
H           -2.67600252413145       -1.46302789076352       -1.51783251575666
H           -0.42018096115758       -2.08127615790878       -0.73180584710506
24
 energy: -389.382550222962 gnorm: 0.001207814671 xtb: 6.7.1 (edcfbbe)
C            2.22615383492451       -0.66024536688275       -1.37521970173458
C            2.31229244566359       -0.11919553616206        0.05167101786451
C            2.30249014047161        1.40909737088636        0.04900684547272
C            1.20626736732725       -0.70630088568304        0.96375150030264
C           -0.19275743628046       -0.35806455673382        0.53106443249131
C           -0.81694435876159        0.80850926880730        0.98763833097713
C           -2.08944559187320        1.16243733934231        0.54471234788137
C           -2.76549832511719        0.34999134650719       -0.36376336588477
C           -2.16171112827264       -0.82135875435635       -0.81737325517764
C           -0.88899525788544       -1.17051990935014       -0.37139186993684
H            2.24981752099643       -1.75568364830804       -1.39148473258956
H            3.06418984891129       -0.29275261119725       -1.97725224705437
H            1.29950204694912       -0.33577175805146       -1.86268278843959
H            3.26493823091676       -0.45250629403818        0.48525499115402
H            2.38052317838840        1.81288494487567        1.06475194409425
H            3.14216324881903        1.79794332256510       -0.53719910900335
H            1.37866961197679        1.79557805822832       -0.39706126524682
H            1.37189679643618       -0.34041192996364        1.98390192132514
H            1.31856246301384       -1.79671067138562        0.98170100993222
H           -0.29672283465458        1.44604535795042        1.69772444821628
H           -2.55408393579572        2.07368998277881        0.91006128251780
H           -3.75732728523779        0.62384234437723       -0.71021083848921
H           -2.68287401142073       -1.46548106047744       -1.51968397280309
H           -0.42494834786463       -2.08634110671442       -0.72817815288392
24
 energy: -389.382573245021 gnorm: 0.001051175346 xtb: 6.7.1 (edcfbbe)
C            2.23226536858044       -0.66034758049626       -1.37637823720847
C            2.31297940662992       -0.11804676048900        0.04989858904540
C            2.30852479293013        1.40983074125829        0.04792647384159
C            1.20421714344726       -0.70431107348174        0.96117804326288
C           -0.19531778311379       -0.35664454347607        0.52944578172411
C           -0.82142210869222        0.80843805192378        0.98835363509306
C           -2.09489547985750        1.16127696419051        0.54698418060257
C           -2.77112531434645        0.34882461382684       -0.36158811718654
C           -2.16683262026474       -0.82226846628575       -0.81566685376688
C           -0.89315243544799       -1.17033317889483       -0.37127257957993
H            2.25261961350380       -1.75595161732210       -1.39283371637619
H            3.07534099258445       -0.29639574067254       -1.97404288740925
H            1.31012083865760       -0.33285927017009       -1.87075107218061
H            3.26365781875003       -0.45318748156856        0.48640930632145
H            2.38272354835033        1.81437259489380        1.06377151189837
H            3.15349608321769        1.79546691723040       -0.53330451841190
H            1.38937153986072        1.80107661692636       -0.40405407686301
H            1.37095299504866       -0.33871060838102        1.98135671930387
H            1.31756784197730       -1.79471322938507        0.97945863673589
H           -0.30210720302523        1.44480422818376        1.70025700553715
H           -2.56085900588408        2.07094100994161        0.91480292586242
H           -3.76329689800006        0.62236371516337       -0.70766527621376
H           -2.68899881143158       -1.46785266939842       -1.51599094152228
H           -0.42967429127406       -2.08709937793932       -0.72655254990670
24
 energy: -389.382591062886 gnorm: 0.000842769909 xtb: 6.7.1 (edcfbbe)
C            2.24010597850334       -0.65985306045730       -1.37714944194765
C            2.31484589090383       -0.11751428425557        0.04895014741095
C            2.31592589271584        1.40991154518725        0.04586446211979
C            1.20112961569810       -0.70088983668552        0.95670181345737
C           -0.19781862959730       -0.35288109002580        0.52450617575604
C           -0.82586785901334        0.80969408376978        0.98676354451073
C           -2.10166363264024        1.15878667834642        0.55054211430598
C           -2.77836709355578        0.34582041931948       -0.35644995195987
C           -2.17302309369687       -0.82333560626426       -0.81261967743556
C           -0.89709846830290       -1.16807567534997       -0.37355159449489
H            2.25483441162445       -1.75522945170841       -1.39187052618481
H            3.09051795926635       -0.30200408057090       -1.96794144072698
H            1.32442807008974       -0.32717395672600       -1.87944759865704
H            3.26224323637398       -0.45557293272486        0.49025978939411
H            2.38372908967856        1.81376302003110        1.06206387754697
H            3.16844936518537        1.79080473814824       -0.52724415463268
H            1.40330262546259        1.80558985999280       -0.41474297258878
H            1.36671186481112       -0.33497442427830        1.97677416732244
H            1.31319341015017       -1.79126389824825        0.97506269341753
H           -0.30715817288234        1.44577622848879        1.69901529485951
H           -2.56961624473391        2.06564380750423        0.92195537400929
H           -3.77218895085060        0.61686554120747       -0.69883810686476
H           -2.69669652107451       -1.47067972997480       -1.50975783838296
H           -0.43376565437280       -2.08453601413485       -0.72909811522117
24
 energy: -389.382598578819 gnorm: 0.000732999675 xtb: 6.7.1 (edcfbbe)
C            2.24507419438418       -0.66103507028038       -1.37707691245723
C            2.31617801384473       -0.11754421219438        0.04887712816239
C            2.32033307314431        1.40997038705283        0.04587850190804
C            1.19964585413504       -0.69867924776801        0.95379446003212
C           -0.19856415894136       -0.34964862689670        0.52007918917700
C           -0.82735204579581        0.81170073648950        0.98405619213506
C           -2.10556447006261        1.15773141996307        0.55247495051365
C           -2.78385929051022        0.34289234017309       -0.35150016618097
C           -2.17655543202052       -0.82367805522846       -0.81143251960798
C           -0.89823055630756       -1.16538763266315       -0.37698892720474
H            2.25490237938430       -1.75645001875219       -1.39135501034885
H            3.09947625896674       -0.30721266075259       -1.96430491354816
H            1.33309484229704       -0.32409816583577       -1.88279321880354
H            3.26168731386353       -0.45704305536577        0.49298785159901
H            2.38288366681518        1.81438464403955        1.06216462135452
H            3.17682974090522        1.78875916544921       -0.52242024260282
H            1.41122989256180        1.80640093004903       -0.42048072650126
H            1.36339758092640       -0.33280818956956        1.97412460863328
H            1.30979276401980       -1.78918763520136        0.97267564687438
H           -0.30803259317198        1.44871880105519        1.69500887964839
H           -2.57478297684636        2.06291375868552        0.92637654423683
H           -3.78022125066263        0.61072921443112       -0.68900566153525
H           -2.70116680761016       -1.47214177085944       -1.50682855899434
H           -0.43404453791598       -2.08061635661801       -0.73455869483332
24
 energy: -389.382601715205 gnorm: 0.000332938062 xtb: 6.7.1 (edcfbbe)
C            2.24928707061559       -0.66154458939445       -1.37641170845406
C            2.31822028533442       -0.11838543366499        0.05000700948808
C            2.32369381102398        1.40933445038888        0.04526597251397
C            1.19868405300959       -0.69702462939686        0.95161593881731
C           -0.19895711332577       -0.34675415484102        0.51609515773391
C           -0.82811410777824        0.81391479832671        0.98120874682116
C           -2.10892907260670        1.15704021341701        0.55437069591198
C           -2.78890220453979        0.34028616920716       -0.34693347228826
C           -2.17954311964196       -0.82392171742510       -0.81077200437731
C           -0.89862856127928       -1.16255232904657       -0.38087428562148
H            2.25442183484845       -1.75700840114813       -1.38984347488682
H            3.10686655561659       -0.31180887984483       -1.96139750237725
H            1.34007662724730       -0.32131510042061       -1.88499929485558
H            3.26236704215871       -0.45875255970480        0.49635578301801
H            2.38130736797741        1.81407018751830        1.06171052964128
H            3.18323529320087        1.78738256807936       -0.51884136306405
H            1.41706612591503        1.80621043945653       -0.42559624889343
H            1.36028979789167       -0.33147510081575        1.97240942794009
H            1.30664252984220       -1.78774020474450        0.97129773720651
H           -0.30769537178640        1.45237357345270        1.69012055432704
H           -2.57897733588704        2.06112564914194        0.93010738213275
H           -3.78838309774010        0.60430685647375       -0.67857881747752
H           -2.70474375771702       -1.47307921231969       -1.50520481959635
H           -0.43313440995360       -2.07601277352011       -0.74135401786895
24
 energy: -389.382601715205 gnorm: 0.000332938062 xtb: 6.7.1 (edcfbbe)
C            2.24928707061559       -0.66154458939445       -1.37641170845406
C            2.31822028533442       -0.11838543366499        0.05000700948808
C            2.32369381102398        1.40933445038888        0.04526597251397
C            1.19868405300959       -0.69702462939686        0.95161593881731
C           -0.19895711332577       -0.34675415484102        0.51609515773391
C           -0.82811410777824        0.81391479832671        0.98120874682116
C           -2.10892907260670        1.15704021341701        0.55437069591198
C           -2.78890220453979        0.34028616920716       -0.34693347228826
C           -2.17954311964196       -0.82392171742510       -0.81077200437731
C           -0.89862856127928       -1.16255232904657       -0.38087428562148
H            2.25442183484845       -1.75700840114813       -1.38984347488682
H            3.10686655561659       -0.31180887984483       -1.96139750237725
H            1.34007662724730       -0.32131510042061       -1.88499929485558
H            3.26236704215871       -0.45875255970480        0.49635578301801
H            2.38130736797741        1.81407018751830        1.06171052964128
H            3.18323529320087        1.78738256807936       -0.51884136306405
H            1.41706612591503        1.80621043945653       -0.42559624889343
H            1.36028979789167       -0.33147510081575        1.97240942794009
H            1.30664252984220       -1.78774020474450        0.97129773720651
H           -0.30769537178640        1.45237357345270        1.69012055432704
H           -2.57897733588704        2.06112564914194        0.93010738213275
H           -3.78838309774010        0.60430685647375       -0.67857881747752
H           -2.70474375771702       -1.47307921231969       -1.50520481959635
H           -0.43313440995360       -2.07601277352011       -0.74135401786895
