21
 energy: -312.205261474907 gnorm: 0.001328822154 xtb: 6.7.1 (edcfbbe)
C            1.80965200807381       -1.07126291963107        0.48854327728280
C            1.27369928919323        0.31107262867901        0.86097684759773
C            0.17237270694607        0.89846132585294       -0.01960922968604
H           -0.08295714396169        1.87550538876741        0.42358845645615
C           -1.15963294882639        0.13048665642551       -0.13891448203722
C           -1.11369764420547       -1.15007797896066       -0.97552058417633
C           -1.75532052624544       -0.13662975691585        1.24288126700611
O            0.75591360379242        1.13326016902071       -1.32302863052825
H            1.11931658610993       -1.86664461152788        0.77787505165491
H            2.75562041239196       -1.25708661962926        1.00669814760002
H            1.99979078658647       -1.15949990801145       -0.58496710146664
H            0.91121099933649        0.30113527082707        1.89468927057523
H            2.09860994900936        1.03392900755021        0.83948860398252
H           -1.83429543323157        0.82663528691946       -0.66155281196063
H           -0.61912810010681       -0.98884142356913       -1.93750899664501
H           -0.59981820199017       -1.96309434978823       -0.45822018335195
H           -2.13517915104285       -1.48751308676427       -1.18205493347390
H           -1.16189394440241       -0.87872786789967        1.78968622469407
H           -2.77420435647271       -0.52706977622007        1.15196877816941
H           -1.79760436942717        0.77740301301862        1.84687753467608
H            0.05247371567900        1.45885620992218       -1.89987206482463
21
 energy: -312.205268877171 gnorm: 0.000508160360 xtb: 6.7.1 (edcfbbe)
C            1.80886622839139       -1.07129374632527        0.48918400230962
C            1.27321284841081        0.31181312905592        0.86067067638390
C            0.17196943009150        0.89914696911911       -0.02002020219238
H           -0.08333910842686        1.87668730741969        0.42163477123883
C           -1.15953289990425        0.13069096255491       -0.13844455888445
C           -1.11361404718703       -1.14947472212133       -0.97603205426673
C           -1.75386882317395       -0.13715180664735        1.24380521683931
O            0.75575898584970        1.13079909122885       -1.32426417812291
H            1.11645396602114       -1.86783433799145        0.77338585494537
H            2.75309823336739       -1.25832128198529        1.01113959952478
H            2.00300927624446       -1.15662035830824       -0.58458028253544
H            0.91022036198893        0.30241029182640        1.89441737910880
H            2.09825863443770        1.03500645111618        0.83877931519353
H           -1.83508022540410        0.82674464634619       -0.65984601930950
H           -0.61701326364748       -0.98807846558401       -1.93777177220462
H           -0.60013332442443       -1.96258279728972       -0.45721422418310
H           -2.13541633761376       -1.48615731416024       -1.18305178385907
H           -1.16198785123921       -0.88107222230750        1.78865340660768
H           -2.77342668345270       -0.52595990209631        1.15339609545372
H           -1.79466957355601        0.77525080368201        1.84942753636442
H            0.05216218888929        1.45629411585614       -1.90124505382947
21
 energy: -312.205274540423 gnorm: 0.000655457069 xtb: 6.7.1 (edcfbbe)
C            1.80857939065532       -1.07022041429040        0.48990141091974
C            1.27262882276890        0.31296371816148        0.86080088381715
C            0.17189422658357        0.89894007444692       -0.02134056040085
H           -0.08292575223913        1.87738567599150        0.41831447233924
C           -1.15986339999211        0.13099284892138       -0.13794526814668
C           -1.11454169941723       -1.14885328061785       -0.97634469116093
C           -1.75215272829797       -0.13868762735116        1.24485032948502
O            0.75574030542836        1.12873064177348       -1.32622616623960
H            1.11283724734202       -1.86644085953881        0.76761417680186
H            2.74907168405832       -1.25980507320434        1.01791462367649
H            2.00956500835309       -1.15347359796017       -0.58306037182046
H            0.90921061396264        0.30459931614434        1.89451888655298
H            2.09823019436341        1.03564951696557        0.83839540665860
H           -1.83660056535014        0.82715446420411       -0.65756217738773
H           -0.61580254458502       -0.98729481287838       -1.93710779011786
H           -0.60250997703538       -1.96285829971664       -0.45717385904009
H           -2.13637150259856       -1.48424623739549       -1.18503199208694
H           -1.16135489888201       -0.88544999305364        1.78670846886702
H           -2.77299620730722       -0.52460947295119        1.15556922852379
H           -1.78953498086312        0.77231721842605        1.85253759233215
H            0.05182435849440        1.45350339344962       -1.90331004520796
21
 energy: -312.205277656235 gnorm: 0.001474464997 xtb: 6.7.1 (edcfbbe)
C            1.80850908545247       -1.06661278106542        0.49339800638265
C            1.27122023271432        0.31694191869863        0.86001222055743
C            0.17096644430855        0.89960000543694       -0.02460088341203
H           -0.08239414171253        1.88132928396167        0.40833997449545
C           -1.16059571641165        0.13080421529699       -0.13679850843520
C           -1.11898792206653       -1.14720595471354       -0.97894321542801
C           -1.74543778850924       -0.14359184381076        1.24846604265062
O            0.75490386021415        1.12178723798592       -1.33153082102240
H            1.10140625532729       -1.86076125619116        0.74861244692291
H            2.73507275804777       -1.26512307019265        1.04312918446810
H            2.03487971539138       -1.14332606787624       -0.57552860130969
H            0.90612135938956        0.31119149378128        1.89314713473129
H            2.09731974489296        1.03913477901132        0.83696582962488
H           -1.84110595630067        0.82763419111571       -0.65037982117807
H           -0.61457973764162       -0.98577270142962       -1.93666975229072
H           -0.61303998835709       -1.96496204651666       -0.45961859879281
H           -2.14124307141117       -1.47739478376636       -1.19317883024314
H           -1.15770445577507       -0.90031788783956        1.77987214041097
H           -2.77059553880658       -0.51926688110068        1.16329109837060
H           -1.77027089773634        0.76285035814917        1.86383983034130
H            0.05048163495240        1.44336059918000       -1.90980665251609
21
 energy: -312.205282028093 gnorm: 0.000456118950 xtb: 6.7.1 (edcfbbe)
C            1.80877723978331       -1.06739794412257        0.49297105877957
C            1.27211730170391        0.31608158861416        0.86003140000755
C            0.17160158079946        0.89888346802207       -0.02421563629183
H           -0.08296758028099        1.87910627040501        0.41157596911467
C           -1.16043870067973        0.13051122661838       -0.13719163965700
C           -1.11832782106891       -1.14751845774891       -0.97874869795508
C           -1.74715866639238       -0.14258133554420        1.24748037257468
O            0.75520263250913        1.12422107547126       -1.33025168487575
H            1.10510555913394       -1.86164000870719        0.75424961050629
H            2.73823185023165       -1.26309863374563        1.03748574920196
H            2.02946200544960       -1.14672163802886       -0.57612130249973
H            0.90738018329695        0.30935318897365        1.89321674522474
H            2.09744162825258        1.03900251294872        0.83734943869578
H           -1.83960969473007        0.82740341611804       -0.65251532198287
H           -0.61654573149659       -0.98607506850558       -1.93764765964248
H           -0.61140184674860       -1.96506156671536       -0.46041706812700
H           -2.14085814584431       -1.47815305664354       -1.19110642583729
H           -1.15814277218267       -0.89636594121193        1.78171729468024
H           -2.77109346625356       -0.52097245867909        1.16192168018879
H           -1.77470385121004        0.76527021683545        1.86061958656550
H            0.05085447353403        1.44605171493696       -1.90838432258601
21
 energy: -312.205282028093 gnorm: 0.000456118950 xtb: 6.7.1 (edcfbbe)
C            1.80877723978331       -1.06739794412257        0.49297105877957
C            1.27211730170391        0.31608158861416        0.86003140000755
C            0.17160158079946        0.89888346802207       -0.02421563629183
H           -0.08296758028099        1.87910627040501        0.41157596911467
C           -1.16043870067973        0.13051122661838       -0.13719163965700
C           -1.11832782106891       -1.14751845774891       -0.97874869795508
C           -1.74715866639238       -0.14258133554420        1.24748037257468
O            0.75520263250913        1.12422107547126       -1.33025168487575
H            1.10510555913394       -1.86164000870719        0.75424961050629
H            2.73823185023165       -1.26309863374563        1.03748574920196
H            2.02946200544960       -1.14672163802886       -0.57612130249973
H            0.90738018329695        0.30935318897365        1.89321674522474
H            2.09744162825258        1.03900251294872        0.83734943869578
H           -1.83960969473007        0.82740341611804       -0.65251532198287
H           -0.61654573149659       -0.98607506850558       -1.93764765964248
H           -0.61140184674860       -1.96506156671536       -0.46041706812700
H           -2.14085814584431       -1.47815305664354       -1.19110642583729
H           -1.15814277218267       -0.89636594121193        1.78171729468024
H           -2.77109346625356       -0.52097245867909        1.16192168018879
H           -1.77470385121004        0.76527021683545        1.86061958656550
H            0.05085447353403        1.44605171493696       -1.90838432258601
