14
 energy: -344.744294791727 gnorm: 0.045967040893 xtb: 6.7.1 (edcfbbe)
C           -1.01813072525116       -0.42050729628634       -0.34915662405472
C            0.14910479776607        0.34565441675317        0.28270597232527
C            1.48151843975650       -0.10379005174599       -0.33052189404646
O            1.69909008215291       -1.45061990254281        0.02000825100887
O           -0.08958320813970        1.71984828116211        0.05836815022586
O           -2.23845803659192       -0.15610826006918        0.29632435583131
H           -0.83678426897080       -1.49179008546105       -0.25409305121260
H           -1.07972859307846       -0.15094637726689       -1.41208589142573
H            0.16387684587262        0.12350408275473        1.35947674490242
H            2.28788954581382        0.53170285883561        0.06067471642689
H            1.42913212703329        0.02048623920908       -1.41989467262919
H            2.52892507782063       -1.75481071987760       -0.37366370386558
H            0.56568528065067        2.25170361719779        0.52975813753475
H           -2.37395870605196        0.80328354285596        0.29243797832959
14
 energy: -344.745658426412 gnorm: 0.018206661598 xtb: 6.7.1 (edcfbbe)
C           -1.02034928782185       -0.41712168876193       -0.34522960102007
C            0.15023773535940        0.33023836201683        0.28349477940682
C            1.48206122451375       -0.10067165890907       -0.33279425549945
O            1.70743602819095       -1.46035236217693        0.02443617526118
O           -0.08187383874903        1.71475936676640        0.04718574453349
O           -2.25663766051556       -0.14398035232178        0.30624494115050
H           -0.84271884306346       -1.49083220488099       -0.25641398956552
H           -1.06993894958786       -0.15628239144213       -1.41393034641477
H            0.16663535441181        0.11577292226826        1.36369319447428
H            2.27974991114717        0.54981349931032        0.05606185218720
H            1.43371633989018        0.02675059007038       -1.42462914142263
H            2.53840210584839       -1.74886863364494       -0.37212692029409
H            0.57106190519328        2.23522073231721        0.53325077065046
H           -2.38920285568632        0.81316471762244        0.29109526030740
14
 energy: -344.746023252025 gnorm: 0.005643135918 xtb: 6.7.1 (edcfbbe)
C           -1.01920635359178       -0.41826730907463       -0.34391140426072
C            0.14715534295743        0.32209023507939        0.28304093056993
C            1.47595726505097       -0.10079376833581       -0.33331990855574
O            1.71960369459080       -1.46608488453450        0.02757941364054
O           -0.07508373520273        1.71738547138997        0.04152927510783
O           -2.26094839588521       -0.13483012638050        0.31203410819119
H           -0.85603871193783       -1.49544108295519       -0.25679595477166
H           -1.07234542161817       -0.16082857469654       -1.41382041229644
H            0.16754201052940        0.11664692569464        1.36521840029613
H            2.26887468076183        0.55687842430616        0.05390588960420
H            1.43199256967284        0.02087675106212       -1.42658512521931
H            2.55409783965027       -1.73487758779556       -0.37523071555729
H            0.57650969143850        2.22264369374888        0.54578219131946
H           -2.38953064616409        0.82221328218682        0.28091194543128
14
 energy: -344.746090126240 gnorm: 0.002153300028 xtb: 6.7.1 (edcfbbe)
C           -1.02049751176455       -0.41824668099084       -0.34276503615966
C            0.14705253214607        0.31629797880945        0.28100860591448
C            1.47580652797342       -0.10086020643316       -0.33444775187787
O            1.72963915677290       -1.46717415412001        0.02978889497709
O           -0.07220956832872        1.71693677209045        0.03881179516632
O           -2.26335784758305       -0.12792931877489        0.31536240075346
H           -0.86569384793906       -1.49651847874708       -0.25374962717835
H           -1.07789504909061       -0.16179784676167       -1.41209452747578
H            0.16717276758161        0.11684608617384        1.36345562956971
H            2.26686493977568        0.55894080370466        0.05118654510750
H            1.43049723292575        0.01345417997699       -1.42781528661109
H            2.56601021395434       -1.72502101986060       -0.37712111012641
H            0.57495027420251        2.21340673703026        0.55783514889650
H           -2.38975950653182        0.82927697791013        0.27088304726889
14
 energy: -344.746102688176 gnorm: 0.001570515779 xtb: 6.7.1 (edcfbbe)
C           -1.02086498043783       -0.41858610004934       -0.34273812922530
C            0.14760433631172        0.31511094212530        0.28060892525258
C            1.47594244242477       -0.10174206519788       -0.33583947566745
O            1.73321126839662       -1.46702509902493        0.03076530742253
O           -0.07164782256183        1.71697251441303        0.03905890689722
O           -2.26211687456798       -0.12464306401618        0.31667735470384
H           -0.86869267197821       -1.49688348116052       -0.25224025908027
H           -1.08016235312946       -0.16209848966199       -1.41148897968952
H            0.16743244803013        0.11664292513962        1.36277095124795
H            2.26628986844483        0.55907584058074        0.04819761746373
H            1.42890559866798        0.00921031737518       -1.42899720684196
H            2.57005063777521       -1.72212877559984       -0.37682531348057
H            0.57099765909459        2.21139134556043        0.56507627390422
H           -2.38836907237658        0.83231511952404        0.26531279048387
14
 energy: -344.746114877857 gnorm: 0.001646942787 xtb: 6.7.1 (edcfbbe)
C           -1.02242542327290       -0.41892135117003       -0.34190276241550
C            0.14955171191302        0.31303713941209        0.27948830761651
C            1.47726861014367       -0.10358532541320       -0.33939087054214
O            1.73951646749030       -1.46576856463303        0.03308568534914
O           -0.06992457851590        1.71616900597674        0.03985876695679
O           -2.25996359152120       -0.11754738798964        0.31870029921765
H           -0.87444462116725       -1.49725439125025       -0.24876228440868
H           -1.08318799127174       -0.16295170752162       -1.41006349040354
H            0.16984334473192        0.11491803947641        1.36102904993276
H            2.26701990905384        0.56018759121278        0.03905188743723
H            1.42532666925114        0.00059709408940       -1.43238380460609
H            2.57701594805672       -1.71841625243997       -0.37433060275857
H            0.55975272487047        2.20868370086279        0.58273693256741
H           -2.38676839548645        0.83846450775452        0.25322168779489
14
 energy: -344.746120431260 gnorm: 0.000806703329 xtb: 6.7.1 (edcfbbe)
C           -1.02239051229708       -0.41845164360972       -0.34136376624034
C            0.15021141835203        0.31346886198310        0.27975264545960
C            1.47706165998243       -0.10438286497761       -0.34050945709503
O            1.73962317913112       -1.46562113652383        0.03358927899649
O           -0.06899459705517        1.71592189248913        0.04024813116531
O           -2.25954886490163       -0.11611441107341        0.31834410390312
H           -0.87439025092312       -1.49694584418877       -0.24813613912575
H           -1.08149664615915       -0.16363522780380       -1.41022889762876
H            0.17205331340459        0.11403199627696        1.36127441136785
H            2.26706803045830        0.56110963806832        0.03522483251131
H            1.42383822645586       -0.00094973710131       -1.43387667850331
H            2.57729374539622       -1.71960461824476       -0.37269732166315
H            0.55546215550491        2.20944277700841        0.58777053070581
H           -2.38721007072033        0.83934239793901        0.25094711711795
14
 energy: -344.746122594213 gnorm: 0.000459043400 xtb: 6.7.1 (edcfbbe)
C           -1.02220072738488       -0.41790114895620       -0.34043780584136
C            0.15098115196721        0.31348603048085        0.27952738698291
C            1.47700646646251       -0.10483995400438       -0.34205796715446
O            1.73998263954839       -1.46539444420974        0.03417494732804
O           -0.06706228200074        1.71556353982394        0.03999531006445
O           -2.25987330816558       -0.11438103360898        0.31784491116199
H           -0.87473665936450       -1.49662420978141       -0.24668666468694
H           -1.07969040575305       -0.16474609656842       -1.41011689015808
H            0.17460113372721        0.11355845161010        1.36116684865505
H            2.26763551751197        0.56202997689043        0.03047805969859
H            1.42215145990656       -0.00315169014371       -1.43587220398374
H            2.57799544106937       -1.72042215282876       -0.37090288611026
H            0.55013637598174        2.20964854670776        0.59544864202601
H           -2.38834600480261        0.84078625614513        0.24777709221298
14
 energy: -344.746122594213 gnorm: 0.000459043400 xtb: 6.7.1 (edcfbbe)
C           -1.02220072738488       -0.41790114895620       -0.34043780584136
C            0.15098115196721        0.31348603048085        0.27952738698291
C            1.47700646646251       -0.10483995400438       -0.34205796715446
O            1.73998263954839       -1.46539444420974        0.03417494732804
O           -0.06706228200074        1.71556353982394        0.03999531006445
O           -2.25987330816558       -0.11438103360898        0.31784491116199
H           -0.87473665936450       -1.49662420978141       -0.24668666468694
H           -1.07969040575305       -0.16474609656842       -1.41011689015808
H            0.17460113372721        0.11355845161010        1.36116684865505
H            2.26763551751197        0.56202997689043        0.03047805969859
H            1.42215145990656       -0.00315169014371       -1.43587220398374
H            2.57799544106937       -1.72042215282876       -0.37090288611026
H            0.55013637598174        2.20964854670776        0.59544864202601
H           -2.38834600480261        0.84078625614513        0.24777709221298
