      -----------------------------------------------------------      
     |                   =====================                   |     
     |                           x T B                           |     
     |                   =====================                   |     
     |                         S. Grimme                         |     
     |          Mulliken Center for Theoretical Chemistry        |     
     |                    University of Bonn                     |     
      -----------------------------------------------------------      

   * xtb version 6.7.1 (edcfbbe) compiled by 'albert@albert-system' on 2024-07-22

   xtb is free software: you can redistribute it and/or modify it under
   the terms of the GNU Lesser General Public License as published by
   the Free Software Foundation, either version 3 of the License, or
   (at your option) any later version.
   
   xtb is distributed in the hope that it will be useful,
   but WITHOUT ANY WARRANTY; without even the implied warranty of
   MERCHANTABILITY or FITNESS FOR A PARTICULAR PURPOSE.  See the
   GNU Lesser General Public License for more details.
   
   Cite this work as:
   * C. Bannwarth, E. Caldeweyher, S. Ehlert, A. Hansen, P. Pracht,
     J. Seibert, S. Spicher, S. Grimme, WIREs Comput. Mol. Sci., 2020, 11,
     e01493. DOI: 10.1002/wcms.1493
   
   for GFN2-xTB:
   * C. Bannwarth, S. Ehlert and S. Grimme., J. Chem. Theory Comput., 2019,
     15, 1652-1671. DOI: 10.1021/acs.jctc.8b01176
   for GFN1-xTB:
   * S. Grimme, C. Bannwarth, P. Shushkov, J. Chem. Theory Comput., 2017,
     13, 1989-2009. DOI: 10.1021/acs.jctc.7b00118
   for GFN0-xTB:
   * P. Pracht, E. Caldeweyher, S. Ehlert, S. Grimme, ChemRxiv, 2019, preprint.
     DOI: 10.26434/chemrxiv.8326202.v1
   for GFN-FF:
   * S. Spicher and S. Grimme, Angew. Chem. Int. Ed., 2020, 59, 15665-15673.
     DOI: 10.1002/anie.202004239
   
   for ALPB and GBSA implicit solvation:
   * S. Ehlert, M. Stahn, S. Spicher, S. Grimme, J. Chem. Theory Comput.,
     2021, 17, 4250-4261. DOI: 10.1021/acs.jctc.1c00471
   
   for ddCOSMO and CPCM-X implicit solvation:
   * M. Stahn, S. Ehlert, S. Grimme, J. Phys. Chem. A,
     2023, XX, XXXX-XXXX. DOI: 10.1021/acs.jpca.3c04382
   
   for DFT-D4:
   * E. Caldeweyher, C. Bannwarth and S. Grimme, J. Chem. Phys., 2017,
     147, 034112. DOI: 10.1063/1.4993215
   * E. Caldeweyher, S. Ehlert, A. Hansen, H. Neugebauer, S. Spicher,
     C. Bannwarth and S. Grimme, J. Chem. Phys., 2019, 150, 154122.
     DOI: 10.1063/1.5090222
   * E. Caldeweyher, J.-M. Mewes, S. Ehlert and S. Grimme, Phys. Chem. Chem. Phys.
     2020, 22, 8499-8512. DOI: 10.1039/D0CP00502A
   
   for sTDA-xTB:
   * S. Grimme and C. Bannwarth, J. Chem. Phys., 2016, 145, 054103.
     DOI: 10.1063/1.4959605
   
   in the mass-spec context:
   * V. Asgeirsson, C. Bauer and S. Grimme, Chem. Sci., 2017, 8, 4879.
     DOI: 10.1039/c7sc00601b
   * J. Koopman and S. Grimme, ACS Omega 2019, 4, 12, 15120-15133.
     DOI: 10.1021/acsomega.9b02011
   
   for metadynamics refer to:
   * S. Grimme, J. Chem. Theory Comput., 2019, 155, 2847-2862
     DOI: 10.1021/acs.jctc.9b00143
   
   for SPH calculations refer to:
   * S. Spicher and S. Grimme, J. Chem. Theory Comput., 2021, 17, 1701-1714
     DOI: 10.1021/acs.jctc.0c01306
   
   for ONIOM refer to:
   * C. Plett, A. Katbashev, S. Ehlert, S. Grimme, M. Bursch,
     Phys. Chem. Chem. Phys., 2023, 25, 17860-17868. DOI: 10.1039/D3CP02178E
   
   for DIPRO refer to:
   * J. Kohn, N. Gildemeister, S. Grimme, D. Fazzi, A. Hansen,
     J. Chem. Phys., 2023, just accepted.
   
   for PTB refer to:
   * S. Grimme, M. Mueller, A. Hansen, J. Chem. Phys., 2023, 158, 124111.
     DOI: 10.1063/5.0137838
   
   with help from (in alphabetical order)
   P. Atkinson, C. Bannwarth, F. Bohle, G. Brandenburg, E. Caldeweyher
   M. Checinski, S. Dohm, S. Ehlert, S. Ehrlich, I. Gerasimov, C. Hölzer
   A. Katbashev, J. Kohn, J. Koopman, C. Lavigne, S. Lehtola, F. März, M. Müller,
   F. Musil, H. Neugebauer, J. Pisarek, C. Plett, P. Pracht, F. Pultar,
   J. Seibert, P. Shushkov, S. Spicher, M. Stahn, M. Steiner, T. Strunk,
   J. Stückrath, T. Rose, and J. Unsleber
   
 * started run on 2025/04/11 at 11:06:22.091     
   ID    Z sym.   atoms
    1    6 C      1-6, 8, 9
    2    7 N      7, 10
    3    1 H      11-22

           -------------------------------------------------
          |                Calculation Setup                |
           -------------------------------------------------

          program call               : /srv/scratch/z5358697/.xtb/bin/xtb xtb_opt.coord --opt normal --orca -I xtb_opt-xcontrol-inp
          hostname                   : k064
          coordinate file            : xtb_opt.coord
          omp threads                :                     8

           -------------------------------------------------
          |                   Orca driver                   |
           -------------------------------------------------
orca executable           : /apps/z_install_tree/linux-rocky8-ivybridge/gcc-12.2.0/orca-6.0.0-srtngmq3qlimg2qxbl6avaaiffipurdx/bin/orca
orca input file           : xtb_opt.inp
orca input line           : 
orca parallel             : true
orca number of threads    : 8
                         * ORCA takes the control...
  ------------------------------------------------------------------------

                                 *****************
                                 * O   R   C   A *
                                 *****************

                                            #,                                       
                                            ###                                      
                                            ####                                     
                                            #####                                    
                                            ######                                   
                                           ########,                                 
                                     ,,################,,,,,                         
                               ,,#################################,,                 
                          ,,##########################################,,             
                       ,#########################################, ''#####,          
                    ,#############################################,,   '####,        
                  ,##################################################,,,,####,       
                ,###########''''           ''''###############################       
              ,#####''   ,,,,##########,,,,          '''####'''          '####       
            ,##' ,,,,###########################,,,                        '##       
           ' ,,###''''                  '''############,,,                           
         ,,##''                                '''############,,,,        ,,,,,,###''
      ,#''                                            '''#######################'''  
     '                                                          ''''####''''         
             ,#######,   #######,   ,#######,      ##                                
            ,#'     '#,  ##    ##  ,#'     '#,    #''#        ,####,   ,####,        
            ##       ##  ##   ,#'  ##            #'  '#       #'       #'  '#        
            ##       ##  #######   ##           ,######,      #####,   #    #        
            '#,     ,#'  ##    ##  '#,     ,#' ,#      #,     #,   #   #,  ,#        
             '#######'   ##     ##  '#######'  #'      '#     '####' # '####'        



                #########################################################
                #                        -***-                          #
                #          Department of theory and spectroscopy        #
                #                                                       #
                #                      Frank Neese                      #
                #                                                       #
                #     Directorship, Architecture, Infrastructure        #
                #                    SHARK, DRIVERS                     #
                #        Core code/Algorithms in most modules           #
                #                                                       #
                #        Max Planck Institute fuer Kohlenforschung      #
                #                Kaiser Wilhelm Platz 1                 #
                #                 D-45470 Muelheim/Ruhr                 #
                #                      Germany                          #
                #                                                       #
                #                  All rights reserved                  #
                #                        -***-                          #
                #########################################################


                         Program Version 6.0.0  -   RELEASE  -


 With contributions from (in alphabetic order):
   Daniel Aravena         : Magnetic Suceptibility
   Michael Atanasov       : Ab Initio Ligand Field Theory (pilot matlab implementation)
   Alexander A. Auer      : GIAO ZORA, VPT2 properties, NMR spectrum
   Ute Becker             : All parallelization in ORCA, NUMFREQ, NUMCALC
   Giovanni Bistoni       : ED, misc. LED, open-shell LED, HFLD
   Martin Brehm           : Molecular dynamics
   Dmytro Bykov           : pre 5.0 version of the SCF Hessian
   Marcos Casanova-Páez   : Triplet and SCS-CIS(D). UHF-(DLPNO)-IP/EA/STEOM-CCSD. UHF-CVS-IP/STEOM-CCSD
   Vijay G. Chilkuri      : MRCI spin determinant printing, contributions to CSF-ICE
   Pauline Colinet        : FMM embedding
   Dipayan Datta          : RHF DLPNO-CCSD density
   Achintya Kumar Dutta   : EOM-CC, STEOM-CC
   Nicolas Foglia         : Exact transition moments, OPA infrastructure, MCD improvements
   Dmitry Ganyushin       : Spin-Orbit,Spin-Spin,Magnetic field MRCI
   Miquel Garcia          : C-PCM and meta-GGA Hessian, CCSD/C-PCM, Gaussian charge scheme
   Tiago L. C. Gouveia    : GS-ROHF, GS-ROCIS
   Yang Guo               : DLPNO-NEVPT2, F12-NEVPT2, CIM, IAO-localization
   Andreas Hansen         : Spin unrestricted coupled pair/coupled cluster methods
   Ingolf Harden          : AUTO-CI MPn and infrastructure 
   Benjamin Helmich-Paris : MC-RPA, TRAH-(SCF,CASSCF), AVAS, COSX integrals, SCF dyn. polar.
   Lee Huntington         : MR-EOM, pCC
   Robert Izsak           : Overlap fitted RIJCOSX, COSX-SCS-MP3, EOM
   Riya Kayal             : Wick's Theorem for AUTO-CI, AUTO-CI UHF-CCSDT
   Emily Kempfer          : AUTO-CI, RHF CISDT and CCSDT
   Christian Kollmar      : KDIIS, OOCD, Brueckner-CCSD(T), CCSD density, CASPT2, CASPT2-K, improved NEVPT2
   Axel Koslowski         : Symmetry handling
   Simone Kossmann        : Meta GGA functionals, TD-DFT gradient, OOMP2, (MP2 Hessian; deprecated post 5.0)
   Lucas Lang             : DCDCAS
   Marvin Lechner         : AUTO-CI (C++ implementation), FIC-MRCC
   Spencer Leger          : CASSCF response
   Dagmar Lenk            : GEPOL surface, SMD, ORCA-2-JSON
   Dimitrios Liakos       : Extrapolation schemes; Compound Job, initial MDCI parallelization
   Dimitrios Manganas     : Further ROCIS development; embedding schemes. LFT, Crystal Embedding
   Dimitrios Pantazis     : SARC Basis sets
   Anastasios Papadopoulos: AUTO-CI, single reference methods and gradients
   Taras Petrenko         : pre 6.0 DFT Hessian and TD-DFT gradient, (ASA, deprecated), ECA, 1-Electron XAS/XES, NRVS
   Peter Pinski           : DLPNO-MP2, DLPNO-MP2 Gradient
   Christoph Reimann      : Effective Core Potentials
   Marius Retegan         : Local ZFS, SOC
   Christoph Riplinger    : Optimizer, TS searches, QM/MM, DLPNO-CCSD(T), (RO)-DLPNO pert. Triples
   Michael Roemelt        : Original ROCIS implementation
   Masaaki Saitow         : Open-shell DLPNO-CCSD energy and density
   Barbara Sandhoefer     : DKH picture change effects
   Kantharuban Sivalingam : CASSCF convergence/infrastructure, NEVPT2 and variants, FIC-MRCI
   Bernardo de Souza      : ESD, SOC TD-DFT
   Georgi Stoychev        : AutoAux, RI-MP2 NMR, DLPNO-MP2 response, X2C
   Van Anh Tran           : RI-MP2 g-tensors
   Willem Van den Heuvel  : Paramagnetic NMR
   Zikuan Wang            : NOTCH, Electric field optimization 
   Frank Wennmohs         : Technical directorship and infrastructure
   Hang Xu                : AUTO-CI-Response properties 


 We gratefully acknowledge several colleagues who have allowed us to
 interface, adapt or use parts of their codes:
   Stefan Grimme, W. Hujo, H. Kruse, P. Pracht,  : VdW corrections, initial TS optimization,
                  C. Bannwarth, S. Ehlert,         DFT functionals, gCP, sTDA/sTD-DF
                  L. Wittmann, M. Mueller
   Ed Valeev, F. Pavosevic, A. Kumar             : LibInt (2-el integral package), F12 methods
   Garnet Chan, S. Sharma, J. Yang, R. Olivares  : DMRG
   Ulf Ekstrom                                   : XCFun DFT Library
   Mihaly Kallay                                 : mrcc  (arbitrary order and MRCC methods)
   Frank Weinhold                                : gennbo (NPA and NBO analysis)
   Simon Mueller                                 : openCOSMO-RS
   Christopher J. Cramer and Donald G. Truhlar   : smd solvation model
   Lars Goerigk                                  : TD-DFT with DH, B97 family of functionals
   V. Asgeirsson, H. Jonsson                     : NEB implementation
   FAccTs GmbH                                   : IRC, NEB, NEB-TS, DLPNO-Multilevel, CI-OPT
                                                   MM, QMMM, 2- and 3-layer-ONIOM, Crystal-QMMM,
                                                   LR-CPCM, SF, NACMEs, symmetry and pop. for TD-DFT,
                                                   nearIR, NL-DFT gradient (VV10), updates on ESD,
                                                   ML-optimized integration grids, MBIS, APM,
                                                   GOAT, DOCKER, SOLVATOR, interface openCOSMO-RS
   S Lehtola, MJT Oliveira, MAL Marques          : LibXC Library
   Liviu Ungur et al                             : ANISO software


 Your calculation uses the libint2 library for the computation of 2-el integrals
 For citations please refer to: http://libint.valeyev.net

 Your ORCA version has been built with support for libXC version: 6.2.2
 For citations please refer to: https://libxc.gitlab.io

 This ORCA versions uses:
   CBLAS   interface :  Fast vector & matrix operations
   LAPACKE interface :  Fast linear algebra routines
   SCALAPACK package :  Parallel linear algebra routines
   Shared memory     :  Shared parallel matrices
   BLAS/LAPACK       :  OpenBLAS 0.3.27  USE64BITINT DYNAMIC_ARCH NO_AFFINITY SkylakeX SINGLE_THREADED
        Core in use  :  SkylakeX
   Copyright (c) 2011-2014, The OpenBLAS Project




***************************************
The coordinates will be read from file: xtb_opt.xyz
***************************************


Your calculation utilizes the geometrical counterpoise correction gCP
Please cite in your paper:
H.Kruse, S. Grimme J.Chem.Phys., 136, (2012), 154101 
   

Your calculation utilizes the atom-pairwise dispersion correction
based on EEQ partial charges (D4)


Your calculation utilizes the SMD solvation module
Please cite in your paper:
A.V. Marenich, C.J. Cramer, D.G. Truhlar J. Phys. Chem. B, 113, (2009), 6378 

================================================================================

----- Orbital basis set information -----
Your calculation utilizes the basis: def2-mTZVPP
   Stefan Grimme, Andreas Hansen, Sebastian Ehlert, and Jan-Michael Mewes 
   J. Chem. Phys. 154, 064103 (2021). DOI: 10.1063/5.0040021

----- AuxJ basis set information -----
Your calculation utilizes the auxiliary basis: def2/J
   F. Weigend, Phys. Chem. Chem. Phys. 8, 1057 (2006).

================================================================================
                                        WARNINGS
                       Please study these warnings very carefully!
================================================================================

Using LibXC functional ID 497 : Re-regularized SCAN exchange by Furness et al
[ 1]  J. W. Furness, A. D. Kaplan, J. Ning, J. P. Perdew, and J. Sun.,  J. Phys. Chem. Lett. 11, 8208-8215 (2020)
[ 2]  J. W. Furness, A. D. Kaplan, J. Ning, J. P. Perdew, and J. Sun.,  J. Phys. Chem. Lett. 11, 9248-9248 (2020)
Using LibXC functional ID 498 : Re-regularized SCAN correlation by Furness et al
[ 1]  J. W. Furness, A. D. Kaplan, J. Ning, J. P. Perdew, and J. Sun.,  J. Phys. Chem. Lett. 11, 8208-8215 (2020)
[ 2]  J. W. Furness, A. D. Kaplan, J. Ning, J. P. Perdew, and J. Sun.,  J. Phys. Chem. Lett. 11, 9248-9248 (2020)
Using LibXC functional ID 497 : Re-regularized SCAN exchange by Furness et al
[ 1]  J. W. Furness, A. D. Kaplan, J. Ning, J. P. Perdew, and J. Sun.,  J. Phys. Chem. Lett. 11, 8208-8215 (2020)
[ 2]  J. W. Furness, A. D. Kaplan, J. Ning, J. P. Perdew, and J. Sun.,  J. Phys. Chem. Lett. 11, 9248-9248 (2020)
Using LibXC functional ID 498 : Re-regularized SCAN correlation by Furness et al
[ 1]  J. W. Furness, A. D. Kaplan, J. Ning, J. P. Perdew, and J. Sun.,  J. Phys. Chem. Lett. 11, 8208-8215 (2020)
[ 2]  J. W. Furness, A. D. Kaplan, J. Ning, J. P. Perdew, and J. Sun.,  J. Phys. Chem. Lett. 11, 9248-9248 (2020)

================================================================================
                                       INPUT FILE
================================================================================
NAME = xtb_opt.inp
|  1> ! r2scan-3c def2/J RI DEFGRID2 scfconv7 ENGRAD tightSCF miniprint
|  2> %cpcm
|  3>     smd true
|  4>     smdsolvent "water"
|  5> end
|  6> * xyzfile 0 1 xtb_opt.xyz
|  7> 
|  8>                          ****END OF INPUT****
================================================================================

                     *******************************
                     * Energy+Gradient Calculation *
                     *******************************

---------------------------------
CARTESIAN COORDINATES (ANGSTROEM)
---------------------------------
  C     -2.658312   -0.483215    1.462347
  C     -2.083715   -0.305432    0.058121
  C     -3.216700   -0.063211   -0.937589
  C     -1.070961    0.861236    0.007490
  C      0.353594    0.408235   -0.045112
  C      0.913652   -0.461377    0.894874
  N      2.173383   -0.858189    0.830709
  C      2.904136   -0.391696   -0.175249
  C      2.362260    0.472910   -1.113820
  N      1.098550    0.866745   -1.049062
  H     -3.328420   -1.339250    1.489990
  H     -3.221340    0.401488    1.751672
  H     -1.871640   -0.644668    2.194832
  H     -1.568366   -1.229582   -0.228109
  H     -2.828468    0.012625   -1.950236
  H     -3.929972   -0.883326   -0.904799
  H     -3.740960    0.858345   -0.695697
  H     -1.204819    1.495549    0.886062
  H     -1.244341    1.473971   -0.877125
  H      0.339842   -0.851443    1.722821
  H      3.931508   -0.721699   -0.216942
  H      2.942226    0.862811   -1.938237

----------------------------
CARTESIAN COORDINATES (A.U.)
----------------------------
  NO LB      ZA    FRAG     MASS         X           Y           Z
   0 C     6.0000    0    12.011   -5.023482   -0.913145    2.763435
   1 C     6.0000    0    12.011   -3.937650   -0.577183    0.109832
   2 C     6.0000    0    12.011   -6.078682   -0.119451   -1.771786
   3 C     6.0000    0    12.011   -2.023824    1.627499    0.014154
   4 C     6.0000    0    12.011    0.668195    0.771453   -0.085249
   5 C     6.0000    0    12.011    1.726552   -0.871877    1.691067
   6 N     7.0000    0    14.007    4.107099   -1.621743    1.569813
   7 C     6.0000    0    12.011    5.488021   -0.740199   -0.331172
   8 C     6.0000    0    12.011    4.464025    0.893671   -2.104815
   9 N     7.0000    0    14.007    2.075959    1.637911   -1.982439
  10 H     1.0000    0     1.008   -6.289803   -2.530816    2.815673
  11 H     1.0000    0     1.008   -6.087449    0.758702    3.310180
  12 H     1.0000    0     1.008   -3.536886   -1.218246    4.147631
  13 H     1.0000    0     1.008   -2.963783   -2.323573   -0.431064
  14 H     1.0000    0     1.008   -5.345030    0.023859   -3.685412
  15 H     1.0000    0     1.008   -7.426572   -1.669243   -1.709823
  16 H     1.0000    0     1.008   -7.069390    1.622036   -1.314676
  17 H     1.0000    0     1.008   -2.276778    2.826178    1.674415
  18 H     1.0000    0     1.008   -2.351465    2.785401   -1.657525
  19 H     1.0000    0     1.008    0.642209   -1.608995    3.255660
  20 H     1.0000    0     1.008    7.429473   -1.363813   -0.409961
  21 H     1.0000    0     1.008    5.560002    1.630477   -3.662737

------------------------------------------------------------------------------
                   ___                                                        
                  /   \      - P O W E R E D   B Y -                         
                 /     \                                                     
                 |  |  |   _    _      __       _____    __    __             
                 |  |  |  | |  | |    /  \     |  _  \  |  |  /  |          
                  \  \/   | |  | |   /    \    | | | |  |  | /  /          
                 / \  \   | |__| |  /  /\  \   | |_| |  |  |/  /          
                |  |  |   |  __  | /  /__\  \  |    /   |      \           
                |  |  |   | |  | | |   __   |  |    \   |  |\   \          
                \     /   | |  | | |  |  |  |  | |\  \  |  | \   \       
                 \___/    |_|  |_| |__|  |__|  |_| \__\ |__|  \__/        
                                                                              
                      - O R C A' S   B I G   F R I E N D -                    
                                      &                                       
                       - I N T E G R A L  F E E D E R -                       
                                                                              
 v1 FN, 2020, v2 2021, v3 2022-2024                                           
------------------------------------------------------------------------------


----------------------
SHARK INTEGRAL PACKAGE
----------------------

Number of atoms                             ...     22
Number of basis functions                   ...    260
Number of shells                            ...    128
Maximum angular momentum                    ...      2
Integral batch strategy                     ... SHARK/LIBINT Hybrid
RI-J (if used) integral strategy            ... SPLIT-RIJ (Revised 2003 algorithm where possible)
Printlevel                                  ...      1
Contraction scheme used                     ... SEGMENTED contraction
Prescreening option                         ... SCHWARTZ
   Thresh                                   ... 3.000e-11
   Tcut                                     ... 1.000e-12
   Tpresel                                  ... 1.000e-12 
Coulomb Range Separation                    ... NOT USED
Exchange Range Separation                   ... NOT USED
Multipole approximations                    ... NOT USED
Finite Nucleus Model                        ... NOT USED
CABS basis                                  ... NOT available
Auxiliary Coulomb fitting basis             ... AVAILABLE
   # of basis functions in Aux-J            ...    622
   # of shells in Aux-J                     ...    210
   Maximum angular momentum in Aux-J        ...      4
Auxiliary J/K fitting basis                 ... NOT available
Auxiliary Correlation fitting basis         ... NOT available
Auxiliary 'external' fitting basis          ... NOT available

Checking pre-screening integrals            ... done (  0.0 sec) Dimension = 128
Check shell pair data                       ... done (  0.0 sec)
Shell pair information
Shell pair cut-off parameter TPreSel        ...   1.0e-12
Total number of shell pairs                 ...      8256
Shell pairs after pre-screening             ...      7182
Total number of primitive shell pairs       ...     29659
Primitive shell pairs kept                  ...     18004
          la=0 lb=0:   2360 shell pairs
          la=1 lb=0:   2716 shell pairs
          la=1 lb=1:    808 shell pairs
          la=2 lb=0:    777 shell pairs
          la=2 lb=1:    451 shell pairs
          la=2 lb=2:     70 shell pairs

Calculating one electron integrals          ... done (  0.0 sec)
Calculating RI/J V-Matrix + Cholesky decomp.... done (  0.1 sec)
Calculating Nuclear repulsion               ... done (  0.0 sec) ENN=    509.780068831430 Eh

Diagonalization of the overlap matrix:
Smallest eigenvalue                        ... 1.155e-04
Time for diagonalization                   ...    0.014 sec
Threshold for overlap eigenvalues          ... 1.000e-07
Number of eigenvalues below threshold      ... 0
Time for construction of square roots      ...    0.017 sec
Total time needed                          ...    0.040 sec

-------------------
DFT GRID GENERATION
-------------------

General Integration Accuracy     IntAcc      ... 4.388
Radial Grid Type                 RadialGrid  ... OptM3 with GC (2021)
Angular Grid (max. ang.)         AngularGrid ... 4 (Lebedev-302)
Angular grid pruning method      GridPruning ... 4 (adaptive)
Weight generation scheme         WeightScheme... mBecke (2022)
Basis function cutoff            BFCut       ... 1.0000e-11
Integration weight cutoff        WCut        ... 1.0000e-14
Partially contracted basis set               ... off
Rotationally invariant grid construction     ... off
Angular grids for H and He will be reduced by one unit

Total number of grid points                  ...    98417
Total number of batches                      ...     1548
Average number of points per batch           ...       63
Average number of grid points per atom       ...     4474
Initializing property integral containers    ... done (  0.0 sec)

SHARK setup successfully completed in   1.5 seconds

Maximum memory used throughout the entire STARTUP-calculation: 45.6 MB
Occupation numbers will be reassigned to an Aufbau configuration
             **** ENERGY FILE WAS UPDATED (xtb_opt.en.tmp) ****
Finished Guess after   0.4 sec
Maximum memory used throughout the entire GUESS-calculation: 18.7 MB
--------------------
CPCM SOLVATION MODEL
--------------------
CPCM parameters:
  Epsilon                                         ...      78.3550
  Refrac                                          ...       1.3328
  Rsolv                                           ...       1.3000
  Surface type                                    ... GAUSSIAN VDW
  Discretization scheme                           ... Constant charge density
    Threshold for H atoms                         ...       5.0000 (charges/Ang^2)
    Threshold for non-H atoms                     ...       5.0000 (charges/Ang^2)
  Epsilon function type                           ...         CPCM
Solvent:                                          ... WATER
SMD-CDS solvent descriptors:
  Soln                                            ...       1.3328
  Soln25                                          ...       1.3323
  Sola                                            ...       0.0000
  Solb                                            ...       0.0000
  Solg                                            ...       0.0000
  Solc                                            ...       0.0000
  Solh                                            ...       0.0000
Radii:
  Scheme                                          ... Element-dependent radii
  Radius for C  used is    3.4960 Bohr (=   1.8500 Ang.)
  Radius for N  used is    3.5716 Bohr (=   1.8900 Ang.)
  Radius for H  used is    2.2677 Bohr (=   1.2000 Ang.)
Calculating surface                               ...        done! (  0.0s)
Cavity surface points                             ...         1680
Cavity Volume                                     ...    1077.0882
Cavity Surface-area                               ...     659.6665
Calculating surface distance matrix               ...        done! (  0.0s)
Performing Cholesky decomposition & store         ...        done! (  0.1s)
Overall time for CPCM initialization              ...                 0.1s

----------------------------------------D-I-I-S--------------------------------------------
Iteration    Energy (Eh)           Delta-E    RMSDP     MaxDP     DIISErr   Damp  Time(sec)
-------------------------------------------------------------------------------------------
               ***  Starting incremental Fock matrix formation  ***
                              *** Initializing SOSCF ***
---------------------------------------S-O-S-C-F--------------------------------------
Iteration    Energy (Eh)           Delta-E    RMSDP     MaxDP     MaxGrad    Time(sec)
--------------------------------------------------------------------------------------
    1    -421.4633578059535353     0.00e+00  2.47e-06  4.47e-05  2.41e-05     5.0
               *** Restarting incremental Fock matrix formation ***
    2    -421.4633578115256682    -5.57e-09  3.48e-06  5.82e-05  2.66e-05     4.9
    3    -421.4633577299958347     8.15e-08  2.42e-06  3.93e-05  7.38e-05     3.7
                 **** Energy Check signals convergence ****

               *****************************************************
               *                     SUCCESS                       *
               *           SCF CONVERGED AFTER   3 CYCLES          *
               *****************************************************


SMD CDS free energy correction energy :                 1.27158     Kcal/mol
Total Energy after SMD CDS correction =              -421.461331346 Eh
             **** ENERGY FILE WAS UPDATED (xtb_opt.en.tmp) ****

----------------
TOTAL SCF ENERGY
----------------

Total Energy       :       -421.46133134561131 Eh          -11468.54588 eV

Components:
Nuclear Repulsion  :        509.78006883143013 Eh           13871.82090 eV
Electronic Energy  :       -931.23048500376854 Eh          -25340.06976 eV
One Electron Energy:      -1578.79132330260904 Eh          -42961.09601 eV
Two Electron Energy:        647.56083829884051 Eh           17621.02625 eV
CPCM Dielectric    :         -0.01294155765744 Eh              -0.35216 eV
SMD CDS (Gcds)     :          0.00202638438454 Eh               0.05514 eV

Virial components:
Potential Energy   :       -841.21381006085517 Eh          -22890.59151 eV
Kinetic Energy     :        419.75247871524391 Eh           11422.04563 eV
Virial Ratio       :          2.00407109598399

DFT components:
N(Alpha)           :       36.999994484678 electrons
N(Beta)            :       36.999994484678 electrons
N(Total)           :       73.999988969355 electrons
E(X)               :      -59.234825853631 Eh       
E(C)               :       -2.368408856273 Eh       
E(XC)              :      -61.603234709904 Eh       

CPCM Solvation Model Properties:
Surface-charge          :         -0.04480914118511
Corrected charge        :         -0.00000000000000
Outlying charge corr.   :          0.00014309946951 Eh               0.00389 eV
Free-energy (cav+disp)  :          0.00202638438454 Eh               0.05514 eV

---------------
SCF CONVERGENCE
---------------

  Last Energy change         ...   -8.1530e-08  Tolerance :   1.0000e-07
  Last MAX-Density change    ...    3.9265e-05  Tolerance :   1.0000e-07
  Last RMS-Density change    ...    2.4220e-06  Tolerance :   5.0000e-09
  Last DIIS Error            ...    6.8091e-05  Tolerance :   1.0000e-07
  Last Orbital Gradient      ...    7.3774e-05  Tolerance :   1.0000e-04
  Last Orbital Rotation      ...    1.4701e-04  Tolerance :   1.0000e-04


----------------
ORBITAL ENERGIES
----------------

  NO   OCC          E(Eh)            E(eV) 
   0   2.0000     -14.174196      -385.6995 
   1   2.0000     -14.170422      -385.5968 
   2   2.0000     -10.081096      -274.3206 
   3   2.0000     -10.071223      -274.0519 
   4   2.0000     -10.070183      -274.0236 
   5   2.0000     -10.068732      -273.9841 
   6   2.0000     -10.032936      -273.0101 
   7   2.0000     -10.025518      -272.8082 
   8   2.0000     -10.008486      -272.3448 
   9   2.0000     -10.008073      -272.3335 
  10   2.0000      -0.952813       -25.9273 
  11   2.0000      -0.879168       -23.9234 
  12   2.0000      -0.782430       -21.2910 
  13   2.0000      -0.741238       -20.1701 
  14   2.0000      -0.669286       -18.2122 
  15   2.0000      -0.644263       -17.5313 
  16   2.0000      -0.624952       -17.0058 
  17   2.0000      -0.593525       -16.1506 
  18   2.0000      -0.529040       -14.3959 
  19   2.0000      -0.489635       -13.3237 
  20   2.0000      -0.484127       -13.1738 
  21   2.0000      -0.443904       -12.0792 
  22   2.0000      -0.418198       -11.3797 
  23   2.0000      -0.412590       -11.2272 
  24   2.0000      -0.392177       -10.6717 
  25   2.0000      -0.390019       -10.6130 
  26   2.0000      -0.376061       -10.2331 
  27   2.0000      -0.352110        -9.5814 
  28   2.0000      -0.348733        -9.4895 
  29   2.0000      -0.328651        -8.9430 
  30   2.0000      -0.312798        -8.5117 
  31   2.0000      -0.298104        -8.1118 
  32   2.0000      -0.293832        -7.9956 
  33   2.0000      -0.288846        -7.8599 
  34   2.0000      -0.276704        -7.5295 
  35   2.0000      -0.243531        -6.6268 
  36   2.0000      -0.217387        -5.9154 
  37   0.0000      -0.075908        -2.0656 
  38   0.0000      -0.047277        -1.2865 
  39   0.0000       0.076668         2.0862 
  40   0.0000       0.087973         2.3939 
  41   0.0000       0.098846         2.6897 
  42   0.0000       0.109050         2.9674 
  43   0.0000       0.121388         3.3031 
  44   0.0000       0.131888         3.5888 
  45   0.0000       0.140441         3.8216 
  46   0.0000       0.145323         3.9544 
  47   0.0000       0.150549         4.0966 
*Only the first 10 virtual orbitals were printed.
Total SCF time: 0 days 0 hours 0 min 14 sec 
Finished LeanSCF after  14.4 sec

Maximum memory used throughout the entire LEANSCF-calculation: 38.4 MB


-------------------------------------------------------------------------------
                          DFT DISPERSION CORRECTION                            
                                                                               
                                DFTD4 V3.4.0                                   
-------------------------------------------------------------------------------
-------------------------   ----------------
Dispersion correction           -0.007281994
-------------------------   ----------------

------------------   -----------------
gCP correction             0.012746771
------------------   -----------------

-------------------------   --------------------
FINAL SINGLE POINT ENERGY      -421.455866568173
-------------------------   --------------------

------------------------------------------------------------------------------
                         ORCA SCF GRADIENT CALCULATION
------------------------------------------------------------------------------

Nuc. rep. gradient        (SHARK) ... done (  0.0 sec)
HCore & Overlap gradient  (SHARK) ... done (  0.5 sec)
Split-RIJ-J gradient      (SHARK) ... done (  2.6 sec)
XC gradient                       ... done (  9.9 sec)
CPCM gradient                     ... done (  1.5 sec)
SMD gradient                      ... done (  0.0 sec)
Dispersion correction             ... done (  0.0 sec)

-------------------
DISPERSION GRADIENT
-------------------

   1   C   :   -0.000081258   -0.000023201    0.000067108
   2   C   :   -0.000081823   -0.000015021   -0.000000637
   3   C   :   -0.000095734   -0.000004877   -0.000051900
   4   C   :   -0.000047038    0.000056147   -0.000000130
   5   C   :    0.000055977    0.000026463   -0.000002430
   6   C   :    0.000070193   -0.000023714    0.000047114
   7   N   :    0.000097099   -0.000048245    0.000042956
   8   C   :    0.000095881   -0.000015405   -0.000014516
   9   C   :    0.000098573    0.000012863   -0.000047471
  10   N   :    0.000073497    0.000054963   -0.000060502
  11   H   :   -0.000031591   -0.000020844    0.000023714
  12   H   :   -0.000032792   -0.000000001    0.000028674
  13   H   :   -0.000031090   -0.000014298    0.000043295
  14   H   :   -0.000039213   -0.000021059   -0.000005577
  15   H   :   -0.000038546   -0.000003710   -0.000037743
  16   H   :   -0.000031998   -0.000011880   -0.000020216
  17   H   :   -0.000034320    0.000005921   -0.000018480
  18   H   :   -0.000015465    0.000035676    0.000016561
  19   H   :   -0.000015325    0.000033678   -0.000021847
  20   H   :    0.000024791   -0.000023688    0.000041519
  21   H   :    0.000033304   -0.000011715   -0.000000734
  22   H   :    0.000026876    0.000011946   -0.000028757

Difference to translation invariance:
           :    0.0000000000    0.0000000000    0.0000000000

Difference to rotation invariance:
           :    0.0000000000    0.0000000000    0.0000000000

Norm of the Dispersion gradient    ...    0.0003453927
RMS gradient                       ...    0.0000425149
MAX gradient                       ...    0.0000985730
gCP correction                   ... done

------------------
CARTESIAN GRADIENT
------------------

   1   C   :   -0.003163619    0.002614705    0.004896700
   2   C   :    0.005344575   -0.001464062   -0.001630072
   3   C   :   -0.005177734    0.003110604   -0.002633432
   4   C   :   -0.002542557    0.004660982   -0.000031240
   5   C   :    0.004612039   -0.001115199   -0.003732724
   6   C   :    0.006658299   -0.002267953    0.000236034
   7   N   :   -0.005581831    0.008082028   -0.008677236
   8   C   :   -0.003200988   -0.003501612    0.006521909
   9   C   :   -0.008462728    0.004487322   -0.001819561
  10   N   :    0.005470408   -0.007788573    0.007802682
  11   H   :    0.003485444    0.003846478   -0.001226341
  12   H   :    0.002589223   -0.004348704   -0.001798539
  13   H   :   -0.002867266    0.000496014   -0.004335305
  14   H   :   -0.000654481    0.000822749    0.000412954
  15   H   :   -0.000725880   -0.000913873    0.005173310
  16   H   :    0.004172295    0.003317417    0.000428850
  17   H   :    0.003064388   -0.004790775   -0.000597150
  18   H   :    0.001415949   -0.002967226   -0.002250109
  19   H   :    0.000603961   -0.001980516    0.000568073
  20   H   :    0.005189445    0.000063253   -0.002877717
  21   H   :   -0.005065115   -0.000351547    0.002958298
  22   H   :   -0.005163829   -0.000011510    0.002610617

Difference to translation invariance:
           :   -0.0000000000   -0.0000000000   -0.0000000000

Difference to rotation invariance:
           :    0.0000615352    0.0000329014   -0.0003779525

Norm of the Cartesian gradient     ...    0.0318447900
RMS gradient                       ...    0.0039198227
MAX gradient                       ...    0.0086772361

-------
TIMINGS
-------

Total SCF gradient time     ....       15.800 sec

Densities                   ....       0.001 sec  (  0.0%)
One electron gradient       ....       0.523 sec  (  3.3%)
RI-J Coulomb gradient       ....       2.603 sec  ( 16.5%)
XC gradient                 ....       9.857 sec  ( 62.4%)
CPCM gradient               ....       1.494 sec  (  9.5%)
   A-Matrix (El+Nuc)        ....       0.110 sec  (  0.7%)
   Potential                ....       1.384 sec  (  8.8%)
SMD gradient                ....       0.020 sec  (  0.1%)

Maximum memory used throughout the entire SCFGRAD-calculation: 39.0 MB

------------------------------------------------------------------------------
                              ORCA PROPERTY CALCULATIONS
------------------------------------------------------------------------------

GBWName                                 ... xtb_opt.gbw
Number of atoms                         ...     22
Number of basis functions               ...    260
Max core memory                         ...   1024 MB

Electric properties:
Dipole moment                           ... YES
Quadrupole moment                       ...  NO
Static polarizability (Dipole/Dipole)   ...  NO
Static polarizability (Dipole/Quad.)    ...  NO
Static polarizability (Quad./Quad.)     ...  NO
Static polarizability (Velocity)        ...  NO

Atomic electric properties:
Dipole moment                           ...  NO
Quadrupole moment                       ...  NO
Static polarizability                   ...  NO

Choice of electric origin               ... Center of mass
Position of electric origin             ...    -0.000008    -0.000001     0.000001

General magnetic properties:
Magnetizability                         ...  NO

EPR properties:
g-Tensor (aka g-matrix)                 ...  NO
Zero-Field splitting spin-orbit         ...  NO
Zero-field splitting spin-spin          ...  NO
Hyperfine couplings                     ...  NO (   0 nuclei)
Quadrupole couplings                    ...  NO (   0 nuclei)
Contact density                         ...  NO (   0 nuclei)

NMR properties:
Chemical shifts                         ...  NO (   0 nuclei)
Spin-rotation constants                 ...  NO (   0 nuclei)
Spin-spin couplings                     ...  NO (   0 nuclei,    0 pairs)

Choice of magnetic origin               ... GIAO
Position of magnetic origin             ...     0.000000     0.000000     0.000000

Properties with geometric perturbations:
SCF Hessian                             ...  NO
IR spectrum                             ...  NO
VCD spectrum                            ...  NO
X-ray spectroscopy properties:
SCF XES/XAS/RIXS spectra                ...  NO


-------------
DIPOLE MOMENT
-------------

Method             : SCF
Type of density    : Electron Density
Multiplicity       :   1
Irrep              :   0
Energy             :  -421.4613313456113133 Eh
Relativity type    : 
Basis              : AO
                                X                 Y                 Z
Electronic contribution:     14.329990993       0.577289604      -1.134458860
Nuclear contribution   :    -14.734523600      -0.530185269       1.156719983
                        -----------------------------------------
Total Dipole Moment    :     -0.404532607       0.047104335       0.022261123
                        -----------------------------------------
Magnitude (a.u.)       :      0.407873762
Magnitude (Debye)      :      1.036732713



--------------------
Rotational spectrum 
--------------------
 
Rotational constants in cm-1:             0.104233             0.025486             0.021950 
Rotational constants in MHz :          3124.823971           764.052807           658.049544 

Dipole components along the rotational axes: 
x,y,z [a.u.] :    -0.404725     0.032546     0.038727 
x,y,z [Debye]:    -1.028728     0.082726     0.098437 

 

Dipole moment calculation done in   0.0 sec 

Maximum memory used throughout the entire PROP-calculation: 17.7 MB

--------------------------------
SUGGESTED CITATIONS FOR THIS RUN
--------------------------------

Below you find a list of papers that are relevant to this ORCA run
We neither can nor want to force you to cite these papers, but we appreciate if you do
You receive ORCA, which is the product of decades of hard work by many enthusiastic individuals, for free
The only thing we kindly ask in return is that you cite our papers,
We deeply appreciate it, if you show your appreciation for ORCA by not just citing the generic ORCA reference.

Please note that relegating all ORCA citations to the supporting information does *not* help us.
SI sections are not indexed - citations you put there will not count into any citation statistics
But we need these citations in order to attract the funding resources that allow us to do what we are doing

Therefore, if you are a happy ORCA user, please consider citing a few of the papers listed below in the main body of your paper

In addition to the list printed below, the program has created the file xtb_opt.bibtex that contains the list in bibtex format
You can import this file easily into all common literature databanks and citation aid programs


List of essential papers. We consider these as the minimum necessary citations

  1. Neese,F.
     Software update: the ORCA program system, version 5.0
     WIRES Comput. Molec. Sci., 2022 12(1)e1606
     doi.org/10.1002/wcms.1606
  2. Grimme,S.; Hansen,A.; Ehlert,S.; Mewes,J.
     r2SCAN-3c: A 'Swiss army knife' composite electronic-structure method
     J. Chem. Phys., 2021 154 064103
     doi.org/10.1063/5.0040021

List of papers to cite with high priority. The work reported in these papers was absolutely
necessary for this run to complete.
Our perspective: the developers of density functionals and basis sets usually get cited in chemistry papers
Good! But without the algorithms to do something with them, the functionals or basis sets would not do anything.
Hence, in our opinion, the algorithm design and method developments papers are equally worthy of getting cited

  1. Neese,F.
     An improvement of the resolution of the identity approximation for the formation of the Coulomb matrix
     J. Comp. Chem., 2003 24(14)1740-1747
     doi.org/10.1002/jcc.10318
  2. Garcia-Rates,M.; Neese,F.
     Effect of the Solute Cavity on the Solvation Energy and its Derivatives within the Framework of the Gaussian Charge Scheme
     J. Comput. Chem., 2020 41 922-939
     doi.org/10.1002/jcc.26139
  3. Neese,F.
     The SHARK Integral Generation and Digestion System
     J. Comp. Chem., 2022  1-16
     doi.org/10.1002/jcc.26942
  4. Lehtola,S.; Steigemann,C.; Oliveira,M.; Marques,M.
     Recent developments in Libxc - A comprehensive library of functionals for density functional theory
     Software X, 2018 7 
     doi.org/10.1016/j.softx.2017.11.002
  5. Caldeweyher,E.; Bannwarth,C.; Grimme,S.
     Extension of the D3 dispersion coefficient model
     J. Chem. Phys., 2017 147 034112-XXXX
     doi.org/10.1063/1.4993215
  6. Caldeweyher,E.; Ehlert,S.; Hansen,A.; Neugebauer,H.; Spicher,S.; Bannwarth,C.; Grimme,S.
     A generally applicable atomic-charge dependent London dispersion correction
     J. Chem. Phys., 2019 150 154122-XXXX
     doi.org/10.1063/1.5090222
  7. Caldeweyher,E.; Mewes,J.; Ehlert,S.; Grimme,S.
     Extension and evaluation of the D4 London-dispersion model for periodic systems
     Phys. Chem. Chem. Phys., 2020 22(16)8499-8512
     doi.org/10.1039/D0CP00502A

List of suggested additional citations. These are papers that are important in the 'surrounding' of 
of this run, or papers that preceded the highly important papers. If you like your results we are grateful for a citation.

  1. Neese,F.
     The ORCA program system
     WIRES Comput. Molec. Sci., 2012 2(1)73-78
     doi.org/10.1002/wcms.81
  2. Neese,F.
     Software update: the ORCA program system, version 4.0
     WIRES Comput. Molec. Sci., 2018 8(1)1-6
     doi.org/10.1002/wcms.1327
  3. Neese,F.; Wennmohs,F.; Becker,U.; Riplinger,C.
     The ORCA quantum chemistry program package
     J. Chem. Phys., 2020 152 Art. No. L224108
     doi.org/10.1063/5.0004608

List of optional additional citations

  1. Neese,F.
     Approximate second-order SCF convergence for spin unrestricted wavefunctions
     Chem. Phys. Lett., 2000 325(1-3)93-98
     doi.org/10.1016/s0009-2614(00)00662-x

Timings for individual modules:

Sum of individual times          ...       32.400 sec (=   0.540 min)
Startup calculation              ...        1.562 sec (=   0.026 min)   4.8 %
SCF iterations                   ...       14.795 sec (=   0.247 min)  45.7 %
Property calculations            ...        0.120 sec (=   0.002 min)   0.4 %
SCF Gradient evaluation          ...       15.923 sec (=   0.265 min)  49.1 %
                             ****ORCA TERMINATED NORMALLY****
TOTAL RUN TIME: 0 days 0 hours 0 minutes 33 seconds 222 msec
  ------------------------------------------------------------------------
          * successful ORCA run, taking over control again...

         :::::::::::::::::::::::::::::::::::::::::::::::::::::
         ::                  ORCA SUMMARY                   ::
         :::::::::::::::::::::::::::::::::::::::::::::::::::::
         :: total energy            -421.455866568173 Eh    ::
         :: gradient norm              0.031844790049 Eh/a0 ::
         :: HOMO-LUMO gap              0.000000000000 eV    ::
         :::::::::::::::::::::::::::::::::::::::::::::::::::::

      ----------------------------------------------------------- 
     |                       L-ANC optimizer                     |
      ----------------------------------------------------------- 
          low memory version by Sebastian Ehlert

          ...................................................
          :                      SETUP                      :
          :.................................................:
          :   energy convergence        0.5000000E-05 Eh    :
          :   grad. convergence         0.1000000E-02 Eh/a0 :
          :   optimization log               true           :
          :   writing optlog all                1     steps :
          :   Hessian reset                     8     steps :
          :   maximium step len.        1.0000000     a0    :
          :   LBFGS images                      8           :
          ...................................................
 * calculating model hessian...
Using Lindh-Hessian (1995)
 Shifting diagonal of input Hessian by   1.000000000000000E-002
 Lowest  eigenvalues of input Hessian
    0.000000    0.000000    0.000000    0.000000    0.000000    0.000000
    0.011820    0.012018    0.013304    0.019387    0.019722    0.020232
    0.022236    0.023288    0.030263    0.032417    0.037150    0.053828
 Highest eigenvalues
    1.317906    1.544975    1.647369    2.045399    2.085032    2.140359
 

........................................................................
.............................. CYCLE    1 ..............................
........................................................................
                         * ORCA takes the control...
  ------------------------------------------------------------------------

                                 *****************
                                 * O   R   C   A *
                                 *****************

                                            #,                                       
                                            ###                                      
                                            ####                                     
                                            #####                                    
                                            ######                                   
                                           ########,                                 
                                     ,,################,,,,,                         
                               ,,#################################,,                 
                          ,,##########################################,,             
                       ,#########################################, ''#####,          
                    ,#############################################,,   '####,        
                  ,##################################################,,,,####,       
                ,###########''''           ''''###############################       
              ,#####''   ,,,,##########,,,,          '''####'''          '####       
            ,##' ,,,,###########################,,,                        '##       
           ' ,,###''''                  '''############,,,                           
         ,,##''                                '''############,,,,        ,,,,,,###''
      ,#''                                            '''#######################'''  
     '                                                          ''''####''''         
             ,#######,   #######,   ,#######,      ##                                
            ,#'     '#,  ##    ##  ,#'     '#,    #''#        ,####,   ,####,        
            ##       ##  ##   ,#'  ##            #'  '#       #'       #'  '#        
            ##       ##  #######   ##           ,######,      #####,   #    #        
            '#,     ,#'  ##    ##  '#,     ,#' ,#      #,     #,   #   #,  ,#        
             '#######'   ##     ##  '#######'  #'      '#     '####' # '####'        



                #########################################################
                #                        -***-                          #
                #          Department of theory and spectroscopy        #
                #                                                       #
                #                      Frank Neese                      #
                #                                                       #
                #     Directorship, Architecture, Infrastructure        #
                #                    SHARK, DRIVERS                     #
                #        Core code/Algorithms in most modules           #
                #                                                       #
                #        Max Planck Institute fuer Kohlenforschung      #
                #                Kaiser Wilhelm Platz 1                 #
                #                 D-45470 Muelheim/Ruhr                 #
                #                      Germany                          #
                #                                                       #
                #                  All rights reserved                  #
                #                        -***-                          #
                #########################################################


                         Program Version 6.0.0  -   RELEASE  -


 With contributions from (in alphabetic order):
   Daniel Aravena         : Magnetic Suceptibility
   Michael Atanasov       : Ab Initio Ligand Field Theory (pilot matlab implementation)
   Alexander A. Auer      : GIAO ZORA, VPT2 properties, NMR spectrum
   Ute Becker             : All parallelization in ORCA, NUMFREQ, NUMCALC
   Giovanni Bistoni       : ED, misc. LED, open-shell LED, HFLD
   Martin Brehm           : Molecular dynamics
   Dmytro Bykov           : pre 5.0 version of the SCF Hessian
   Marcos Casanova-Páez   : Triplet and SCS-CIS(D). UHF-(DLPNO)-IP/EA/STEOM-CCSD. UHF-CVS-IP/STEOM-CCSD
   Vijay G. Chilkuri      : MRCI spin determinant printing, contributions to CSF-ICE
   Pauline Colinet        : FMM embedding
   Dipayan Datta          : RHF DLPNO-CCSD density
   Achintya Kumar Dutta   : EOM-CC, STEOM-CC
   Nicolas Foglia         : Exact transition moments, OPA infrastructure, MCD improvements
   Dmitry Ganyushin       : Spin-Orbit,Spin-Spin,Magnetic field MRCI
   Miquel Garcia          : C-PCM and meta-GGA Hessian, CCSD/C-PCM, Gaussian charge scheme
   Tiago L. C. Gouveia    : GS-ROHF, GS-ROCIS
   Yang Guo               : DLPNO-NEVPT2, F12-NEVPT2, CIM, IAO-localization
   Andreas Hansen         : Spin unrestricted coupled pair/coupled cluster methods
   Ingolf Harden          : AUTO-CI MPn and infrastructure 
   Benjamin Helmich-Paris : MC-RPA, TRAH-(SCF,CASSCF), AVAS, COSX integrals, SCF dyn. polar.
   Lee Huntington         : MR-EOM, pCC
   Robert Izsak           : Overlap fitted RIJCOSX, COSX-SCS-MP3, EOM
   Riya Kayal             : Wick's Theorem for AUTO-CI, AUTO-CI UHF-CCSDT
   Emily Kempfer          : AUTO-CI, RHF CISDT and CCSDT
   Christian Kollmar      : KDIIS, OOCD, Brueckner-CCSD(T), CCSD density, CASPT2, CASPT2-K, improved NEVPT2
   Axel Koslowski         : Symmetry handling
   Simone Kossmann        : Meta GGA functionals, TD-DFT gradient, OOMP2, (MP2 Hessian; deprecated post 5.0)
   Lucas Lang             : DCDCAS
   Marvin Lechner         : AUTO-CI (C++ implementation), FIC-MRCC
   Spencer Leger          : CASSCF response
   Dagmar Lenk            : GEPOL surface, SMD, ORCA-2-JSON
   Dimitrios Liakos       : Extrapolation schemes; Compound Job, initial MDCI parallelization
   Dimitrios Manganas     : Further ROCIS development; embedding schemes. LFT, Crystal Embedding
   Dimitrios Pantazis     : SARC Basis sets
   Anastasios Papadopoulos: AUTO-CI, single reference methods and gradients
   Taras Petrenko         : pre 6.0 DFT Hessian and TD-DFT gradient, (ASA, deprecated), ECA, 1-Electron XAS/XES, NRVS
   Peter Pinski           : DLPNO-MP2, DLPNO-MP2 Gradient
   Christoph Reimann      : Effective Core Potentials
   Marius Retegan         : Local ZFS, SOC
   Christoph Riplinger    : Optimizer, TS searches, QM/MM, DLPNO-CCSD(T), (RO)-DLPNO pert. Triples
   Michael Roemelt        : Original ROCIS implementation
   Masaaki Saitow         : Open-shell DLPNO-CCSD energy and density
   Barbara Sandhoefer     : DKH picture change effects
   Kantharuban Sivalingam : CASSCF convergence/infrastructure, NEVPT2 and variants, FIC-MRCI
   Bernardo de Souza      : ESD, SOC TD-DFT
   Georgi Stoychev        : AutoAux, RI-MP2 NMR, DLPNO-MP2 response, X2C
   Van Anh Tran           : RI-MP2 g-tensors
   Willem Van den Heuvel  : Paramagnetic NMR
   Zikuan Wang            : NOTCH, Electric field optimization 
   Frank Wennmohs         : Technical directorship and infrastructure
   Hang Xu                : AUTO-CI-Response properties 


 We gratefully acknowledge several colleagues who have allowed us to
 interface, adapt or use parts of their codes:
   Stefan Grimme, W. Hujo, H. Kruse, P. Pracht,  : VdW corrections, initial TS optimization,
                  C. Bannwarth, S. Ehlert,         DFT functionals, gCP, sTDA/sTD-DF
                  L. Wittmann, M. Mueller
   Ed Valeev, F. Pavosevic, A. Kumar             : LibInt (2-el integral package), F12 methods
   Garnet Chan, S. Sharma, J. Yang, R. Olivares  : DMRG
   Ulf Ekstrom                                   : XCFun DFT Library
   Mihaly Kallay                                 : mrcc  (arbitrary order and MRCC methods)
   Frank Weinhold                                : gennbo (NPA and NBO analysis)
   Simon Mueller                                 : openCOSMO-RS
   Christopher J. Cramer and Donald G. Truhlar   : smd solvation model
   Lars Goerigk                                  : TD-DFT with DH, B97 family of functionals
   V. Asgeirsson, H. Jonsson                     : NEB implementation
   FAccTs GmbH                                   : IRC, NEB, NEB-TS, DLPNO-Multilevel, CI-OPT
                                                   MM, QMMM, 2- and 3-layer-ONIOM, Crystal-QMMM,
                                                   LR-CPCM, SF, NACMEs, symmetry and pop. for TD-DFT,
                                                   nearIR, NL-DFT gradient (VV10), updates on ESD,
                                                   ML-optimized integration grids, MBIS, APM,
                                                   GOAT, DOCKER, SOLVATOR, interface openCOSMO-RS
   S Lehtola, MJT Oliveira, MAL Marques          : LibXC Library
   Liviu Ungur et al                             : ANISO software


 Your calculation uses the libint2 library for the computation of 2-el integrals
 For citations please refer to: http://libint.valeyev.net

 Your ORCA version has been built with support for libXC version: 6.2.2
 For citations please refer to: https://libxc.gitlab.io

 This ORCA versions uses:
   CBLAS   interface :  Fast vector & matrix operations
   LAPACKE interface :  Fast linear algebra routines
   SCALAPACK package :  Parallel linear algebra routines
   Shared memory     :  Shared parallel matrices
   BLAS/LAPACK       :  OpenBLAS 0.3.27  USE64BITINT DYNAMIC_ARCH NO_AFFINITY SkylakeX SINGLE_THREADED
        Core in use  :  SkylakeX
   Copyright (c) 2011-2014, The OpenBLAS Project




***************************************
The coordinates will be read from file: xtb_opt.xyz
***************************************


Your calculation utilizes the geometrical counterpoise correction gCP
Please cite in your paper:
H.Kruse, S. Grimme J.Chem.Phys., 136, (2012), 154101 
   

Your calculation utilizes the atom-pairwise dispersion correction
based on EEQ partial charges (D4)


Your calculation utilizes the SMD solvation module
Please cite in your paper:
A.V. Marenich, C.J. Cramer, D.G. Truhlar J. Phys. Chem. B, 113, (2009), 6378 

================================================================================

----- Orbital basis set information -----
Your calculation utilizes the basis: def2-mTZVPP
   Stefan Grimme, Andreas Hansen, Sebastian Ehlert, and Jan-Michael Mewes 
   J. Chem. Phys. 154, 064103 (2021). DOI: 10.1063/5.0040021

----- AuxJ basis set information -----
Your calculation utilizes the auxiliary basis: def2/J
   F. Weigend, Phys. Chem. Chem. Phys. 8, 1057 (2006).

================================================================================
                                        WARNINGS
                       Please study these warnings very carefully!
================================================================================

WARNING: Old DensityContainer found on disk!
         Will remove this file - 
         If you want to keep old densities, please start your calculation with a different basename. 

Using LibXC functional ID 497 : Re-regularized SCAN exchange by Furness et al
[ 1]  J. W. Furness, A. D. Kaplan, J. Ning, J. P. Perdew, and J. Sun.,  J. Phys. Chem. Lett. 11, 8208-8215 (2020)
[ 2]  J. W. Furness, A. D. Kaplan, J. Ning, J. P. Perdew, and J. Sun.,  J. Phys. Chem. Lett. 11, 9248-9248 (2020)
Using LibXC functional ID 498 : Re-regularized SCAN correlation by Furness et al
[ 1]  J. W. Furness, A. D. Kaplan, J. Ning, J. P. Perdew, and J. Sun.,  J. Phys. Chem. Lett. 11, 8208-8215 (2020)
[ 2]  J. W. Furness, A. D. Kaplan, J. Ning, J. P. Perdew, and J. Sun.,  J. Phys. Chem. Lett. 11, 9248-9248 (2020)
Using LibXC functional ID 497 : Re-regularized SCAN exchange by Furness et al
[ 1]  J. W. Furness, A. D. Kaplan, J. Ning, J. P. Perdew, and J. Sun.,  J. Phys. Chem. Lett. 11, 8208-8215 (2020)
[ 2]  J. W. Furness, A. D. Kaplan, J. Ning, J. P. Perdew, and J. Sun.,  J. Phys. Chem. Lett. 11, 9248-9248 (2020)
Using LibXC functional ID 498 : Re-regularized SCAN correlation by Furness et al
[ 1]  J. W. Furness, A. D. Kaplan, J. Ning, J. P. Perdew, and J. Sun.,  J. Phys. Chem. Lett. 11, 8208-8215 (2020)
[ 2]  J. W. Furness, A. D. Kaplan, J. Ning, J. P. Perdew, and J. Sun.,  J. Phys. Chem. Lett. 11, 9248-9248 (2020)

================================================================================
                                       INPUT FILE
================================================================================
NAME = xtb_opt.inp
|  1> ! r2scan-3c def2/J RI DEFGRID2 scfconv7 ENGRAD tightSCF miniprint
|  2> %cpcm
|  3>     smd true
|  4>     smdsolvent "water"
|  5> end
|  6> * xyzfile 0 1 xtb_opt.xyz
|  7> 
|  8>                          ****END OF INPUT****
================================================================================

                     *******************************
                     * Energy+Gradient Calculation *
                     *******************************

---------------------------------
CARTESIAN COORDINATES (ANGSTROEM)
---------------------------------
  C     -2.662442   -0.494178    1.469201
  C     -2.095043   -0.304060    0.062332
  C     -3.224131   -0.065962   -0.940502
  C     -1.071722    0.860123    0.008825
  C      0.359763    0.421457   -0.049225
  C      0.913490   -0.453392    0.893558
  N      2.179855   -0.860889    0.835566
  C      2.918106   -0.395243   -0.176945
  C      2.382321    0.470494   -1.117653
  N      1.112629    0.877672   -1.058542
  H     -3.338812   -1.352679    1.502638
  H     -3.226516    0.396442    1.763259
  H     -1.873254   -0.653469    2.208365
  H     -1.576536   -1.227222   -0.227427
  H     -2.836556    0.014444   -1.959716
  H     -3.946114   -0.886750   -0.911986
  H     -3.752721    0.861784   -0.700924
  H     -1.211900    1.500664    0.887380
  H     -1.250947    1.480264   -0.872013
  H      0.322121   -0.836427    1.720000
  H      3.950936   -0.723475   -0.227768
  H      2.978612    0.851231   -1.941479

----------------------------
CARTESIAN COORDINATES (A.U.)
----------------------------
  NO LB      ZA    FRAG     MASS         X           Y           Z
   0 C     6.0000    0    12.011   -5.031286   -0.933861    2.776387
   1 C     6.0000    0    12.011   -3.959058   -0.574589    0.117790
   2 C     6.0000    0    12.011   -6.092725   -0.124650   -1.777292
   3 C     6.0000    0    12.011   -2.025262    1.625396    0.016676
   4 C     6.0000    0    12.011    0.679853    0.796438   -0.093022
   5 C     6.0000    0    12.011    1.726246   -0.856788    1.688580
   6 N     7.0000    0    14.007    4.119328   -1.626845    1.578991
   7 C     6.0000    0    12.011    5.514421   -0.746902   -0.334377
   8 C     6.0000    0    12.011    4.501934    0.889104   -2.112059
   9 N     7.0000    0    14.007    2.102564    1.658560   -2.000354
  10 H     1.0000    0     1.008   -6.309441   -2.556192    2.839575
  11 H     1.0000    0     1.008   -6.097231    0.749167    3.332077
  12 H     1.0000    0     1.008   -3.539938   -1.234878    4.173204
  13 H     1.0000    0     1.008   -2.979221   -2.319114   -0.429774
  14 H     1.0000    0     1.008   -5.360314    0.027296   -3.703327
  15 H     1.0000    0     1.008   -7.457074   -1.675715   -1.723404
  16 H     1.0000    0     1.008   -7.091616    1.628536   -1.324555
  17 H     1.0000    0     1.008   -2.290160    2.835844    1.676905
  18 H     1.0000    0     1.008   -2.363948    2.797294   -1.647865
  19 H     1.0000    0     1.008    0.608720   -1.580618    3.250329
  20 H     1.0000    0     1.008    7.466187   -1.367171   -0.430419
  21 H     1.0000    0     1.008    5.628761    1.608594   -3.668863

------------------------------------------------------------------------------
                   ___                                                        
                  /   \      - P O W E R E D   B Y -                         
                 /     \                                                     
                 |  |  |   _    _      __       _____    __    __             
                 |  |  |  | |  | |    /  \     |  _  \  |  |  /  |          
                  \  \/   | |  | |   /    \    | | | |  |  | /  /          
                 / \  \   | |__| |  /  /\  \   | |_| |  |  |/  /          
                |  |  |   |  __  | /  /__\  \  |    /   |      \           
                |  |  |   | |  | | |   __   |  |    \   |  |\   \          
                \     /   | |  | | |  |  |  |  | |\  \  |  | \   \       
                 \___/    |_|  |_| |__|  |__|  |_| \__\ |__|  \__/        
                                                                              
                      - O R C A' S   B I G   F R I E N D -                    
                                      &                                       
                       - I N T E G R A L  F E E D E R -                       
                                                                              
 v1 FN, 2020, v2 2021, v3 2022-2024                                           
------------------------------------------------------------------------------


----------------------
SHARK INTEGRAL PACKAGE
----------------------

Number of atoms                             ...     22
Number of basis functions                   ...    260
Number of shells                            ...    128
Maximum angular momentum                    ...      2
Integral batch strategy                     ... SHARK/LIBINT Hybrid
RI-J (if used) integral strategy            ... SPLIT-RIJ (Revised 2003 algorithm where possible)
Printlevel                                  ...      1
Contraction scheme used                     ... SEGMENTED contraction
Prescreening option                         ... SCHWARTZ
   Thresh                                   ... 3.000e-11
   Tcut                                     ... 1.000e-12
   Tpresel                                  ... 1.000e-12 
Coulomb Range Separation                    ... NOT USED
Exchange Range Separation                   ... NOT USED
Multipole approximations                    ... NOT USED
Finite Nucleus Model                        ... NOT USED
CABS basis                                  ... NOT available
Auxiliary Coulomb fitting basis             ... AVAILABLE
   # of basis functions in Aux-J            ...    622
   # of shells in Aux-J                     ...    210
   Maximum angular momentum in Aux-J        ...      4
Auxiliary J/K fitting basis                 ... NOT available
Auxiliary Correlation fitting basis         ... NOT available
Auxiliary 'external' fitting basis          ... NOT available

Checking pre-screening integrals            ... done (  0.0 sec) Dimension = 128
Check shell pair data                       ... done (  0.0 sec)
Shell pair information
Shell pair cut-off parameter TPreSel        ...   1.0e-12
Total number of shell pairs                 ...      8256
Shell pairs after pre-screening             ...      7170
Total number of primitive shell pairs       ...     29659
Primitive shell pairs kept                  ...     17945
          la=0 lb=0:   2354 shell pairs
          la=1 lb=0:   2713 shell pairs
          la=1 lb=1:    808 shell pairs
          la=2 lb=0:    776 shell pairs
          la=2 lb=1:    449 shell pairs
          la=2 lb=2:     70 shell pairs

Calculating one electron integrals          ... done (  0.0 sec)
Calculating RI/J V-Matrix + Cholesky decomp.... done (  0.1 sec)
Calculating Nuclear repulsion               ... done (  0.0 sec) ENN=    507.685536663432 Eh

Diagonalization of the overlap matrix:
Smallest eigenvalue                        ... 1.190e-04
Time for diagonalization                   ...    0.007 sec
Threshold for overlap eigenvalues          ... 1.000e-07
Number of eigenvalues below threshold      ... 0
Time for construction of square roots      ...    0.025 sec
Total time needed                          ...    0.041 sec

-------------------
DFT GRID GENERATION
-------------------

General Integration Accuracy     IntAcc      ... 4.388
Radial Grid Type                 RadialGrid  ... OptM3 with GC (2021)
Angular Grid (max. ang.)         AngularGrid ... 4 (Lebedev-302)
Angular grid pruning method      GridPruning ... 4 (adaptive)
Weight generation scheme         WeightScheme... mBecke (2022)
Basis function cutoff            BFCut       ... 1.0000e-11
Integration weight cutoff        WCut        ... 1.0000e-14
Partially contracted basis set               ... off
Rotationally invariant grid construction     ... off
Angular grids for H and He will be reduced by one unit

Total number of grid points                  ...    98441
Total number of batches                      ...     1550
Average number of points per batch           ...       63
Average number of grid points per atom       ...     4475
Initializing property integral containers    ... done (  0.0 sec)

SHARK setup successfully completed in   1.6 seconds

Maximum memory used throughout the entire STARTUP-calculation: 45.5 MB
Occupation numbers will be reassigned to an Aufbau configuration
             **** ENERGY FILE WAS UPDATED (xtb_opt.en.tmp) ****
Finished Guess after   0.4 sec
Maximum memory used throughout the entire GUESS-calculation: 18.7 MB
--------------------
CPCM SOLVATION MODEL
--------------------
CPCM parameters:
  Epsilon                                         ...      78.3550
  Refrac                                          ...       1.3328
  Rsolv                                           ...       1.3000
  Surface type                                    ... GAUSSIAN VDW
  Discretization scheme                           ... Constant charge density
    Threshold for H atoms                         ...       5.0000 (charges/Ang^2)
    Threshold for non-H atoms                     ...       5.0000 (charges/Ang^2)
  Epsilon function type                           ...         CPCM
Solvent:                                          ... WATER
SMD-CDS solvent descriptors:
  Soln                                            ...       1.3328
  Soln25                                          ...       1.3323
  Sola                                            ...       0.0000
  Solb                                            ...       0.0000
  Solg                                            ...       0.0000
  Solc                                            ...       0.0000
  Solh                                            ...       0.0000
Radii:
  Scheme                                          ... Element-dependent radii
  Radius for C  used is    3.4960 Bohr (=   1.8500 Ang.)
  Radius for N  used is    3.5716 Bohr (=   1.8900 Ang.)
  Radius for H  used is    2.2677 Bohr (=   1.2000 Ang.)
Calculating surface                               ...        done! (  0.0s)
Cavity surface points                             ...         1688
Cavity Volume                                     ...    1082.3774
Cavity Surface-area                               ...     662.9791
Calculating surface distance matrix               ...        done! (  0.0s)
Performing Cholesky decomposition & store         ...        done! (  0.1s)
Overall time for CPCM initialization              ...                 0.1s

----------------------------------------D-I-I-S--------------------------------------------
Iteration    Energy (Eh)           Delta-E    RMSDP     MaxDP     DIISErr   Damp  Time(sec)
-------------------------------------------------------------------------------------------
               ***  Starting incremental Fock matrix formation  ***
    1    -421.4642434252855310     0.00e+00  1.17e-04  6.66e-03  4.44e-03  0.700   5.2
    2    -421.4643570018290575    -1.14e-04  1.01e-04  5.13e-03  3.38e-03  0.700   4.3
                               ***Turning on AO-DIIS***
                              *** Initializing SOSCF ***
---------------------------------------S-O-S-C-F--------------------------------------
Iteration    Energy (Eh)           Delta-E    RMSDP     MaxDP     MaxGrad    Time(sec)
--------------------------------------------------------------------------------------
    3    -421.4644361702576134    -7.92e-05  2.42e-04  1.16e-02  2.44e-03     4.0
               *** Restarting incremental Fock matrix formation ***
    4    -421.4646149658706236    -1.79e-04  3.40e-05  9.46e-04  2.14e-04     4.9
    5    -421.4646111954497201     3.77e-06  2.08e-05  9.36e-04  4.36e-04     3.9
    6    -421.4646172413822569    -6.05e-06  5.51e-06  1.00e-04  3.14e-05     3.8
    7    -421.4646171750986241     6.63e-08  3.33e-06  5.47e-05  4.81e-05     3.8
                 **** Energy Check signals convergence ****

               *****************************************************
               *                     SUCCESS                       *
               *           SCF CONVERGED AFTER   7 CYCLES          *
               *****************************************************


SMD CDS free energy correction energy :                 1.27896     Kcal/mol
Total Energy after SMD CDS correction =              -421.462579017 Eh
             **** ENERGY FILE WAS UPDATED (xtb_opt.en.tmp) ****

----------------
TOTAL SCF ENERGY
----------------

Total Energy       :       -421.46257901743206 Eh          -11468.57983 eV

Components:
Nuclear Repulsion  :        507.68553666343178 Eh           13814.82578 eV
Electronic Energy  :       -929.13686348742795 Eh          -25283.09942 eV
One Electron Energy:      -1574.66080085997169 Eh          -42848.69878 eV
Two Electron Energy:        645.52393737254374 Eh           17565.59935 eV
CPCM Dielectric    :         -0.01329035110241 Eh              -0.36165 eV
SMD CDS (Gcds)     :          0.00203815766655 Eh               0.05546 eV

Virial components:
Potential Energy   :       -841.00210253226112 Eh          -22884.83065 eV
Kinetic Energy     :        419.53952351482906 Eh           11416.25083 eV
Virial Ratio       :          2.00458372905249

DFT components:
N(Alpha)           :       36.999994287434 electrons
N(Beta)            :       36.999994287434 electrons
N(Total)           :       73.999988574869 electrons
E(X)               :      -59.184118069818 Eh       
E(C)               :       -2.365949482057 Eh       
E(XC)              :      -61.550067551876 Eh       

CPCM Solvation Model Properties:
Surface-charge          :         -0.04503408604961
Corrected charge        :         -0.00000000000000
Outlying charge corr.   :          0.00014420765831 Eh               0.00392 eV
Free-energy (cav+disp)  :          0.00203815766655 Eh               0.05546 eV

---------------
SCF CONVERGENCE
---------------

  Last Energy change         ...   -6.6284e-08  Tolerance :   1.0000e-07
  Last MAX-Density change    ...    5.4705e-05  Tolerance :   1.0000e-07
  Last RMS-Density change    ...    3.3258e-06  Tolerance :   5.0000e-09
  Last DIIS Error            ...    2.4367e-03  Tolerance :   1.0000e-07
  Last Orbital Gradient      ...    4.8108e-05  Tolerance :   1.0000e-04
  Last Orbital Rotation      ...    6.5834e-05  Tolerance :   1.0000e-04


----------------
ORBITAL ENERGIES
----------------

  NO   OCC          E(Eh)            E(eV) 
   0   2.0000     -14.176733      -385.7685 
   1   2.0000     -14.172734      -385.6597 
   2   2.0000     -10.082966      -274.3715 
   3   2.0000     -10.073280      -274.1079 
   4   2.0000     -10.072188      -274.0782 
   5   2.0000     -10.070943      -274.0443 
   6   2.0000     -10.034834      -273.0617 
   7   2.0000     -10.027531      -272.8630 
   8   2.0000     -10.010854      -272.4092 
   9   2.0000     -10.010422      -272.3974 
  10   2.0000      -0.948417       -25.8077 
  11   2.0000      -0.875498       -23.8235 
  12   2.0000      -0.781043       -21.2533 
  13   2.0000      -0.740328       -20.1453 
  14   2.0000      -0.668242       -18.1838 
  15   2.0000      -0.643309       -17.5053 
  16   2.0000      -0.624362       -16.9898 
  17   2.0000      -0.592211       -16.1149 
  18   2.0000      -0.528447       -14.3798 
  19   2.0000      -0.487979       -13.2786 
  20   2.0000      -0.481880       -13.1126 
  21   2.0000      -0.443237       -12.0611 
  22   2.0000      -0.417409       -11.3583 
  23   2.0000      -0.410785       -11.1780 
  24   2.0000      -0.390828       -10.6350 
  25   2.0000      -0.389233       -10.5916 
  26   2.0000      -0.375272       -10.2117 
  27   2.0000      -0.351388        -9.5617 
  28   2.0000      -0.347237        -9.4488 
  29   2.0000      -0.327941        -8.9237 
  30   2.0000      -0.311376        -8.4730 
  31   2.0000      -0.298618        -8.1258 
  32   2.0000      -0.295370        -8.0374 
  33   2.0000      -0.286976        -7.8090 
  34   2.0000      -0.277781        -7.5588 
  35   2.0000      -0.244014        -6.6400 
  36   2.0000      -0.218836        -5.9548 
  37   0.0000      -0.078681        -2.1410 
  38   0.0000      -0.047967        -1.3052 
  39   0.0000       0.076030         2.0689 
  40   0.0000       0.085263         2.3201 
  41   0.0000       0.097402         2.6504 
  42   0.0000       0.107942         2.9373 
  43   0.0000       0.120509         3.2792 
  44   0.0000       0.131173         3.5694 
  45   0.0000       0.139466         3.7951 
[...]
   6   2.0000     -10.035996      -273.0933 
   7   2.0000     -10.028910      -272.9005 
   8   2.0000     -10.011793      -272.4347 
   9   2.0000     -10.011423      -272.4247 
  10   2.0000      -0.947144       -25.7731 
  11   2.0000      -0.875173       -23.8147 
  12   2.0000      -0.780324       -21.2337 
  13   2.0000      -0.739813       -20.1313 
  14   2.0000      -0.667983       -18.1767 
  15   2.0000      -0.643017       -17.4974 
  16   2.0000      -0.624766       -17.0008 
  17   2.0000      -0.591607       -16.0984 
  18   2.0000      -0.528560       -14.3828 
  19   2.0000      -0.487707       -13.2712 
  20   2.0000      -0.481124       -13.0921 
  21   2.0000      -0.442555       -12.0425 
  22   2.0000      -0.416764       -11.3407 
  23   2.0000      -0.410112       -11.1597 
  24   2.0000      -0.390418       -10.6238 
  25   2.0000      -0.388780       -10.5793 
  26   2.0000      -0.374609       -10.1936 
  27   2.0000      -0.350973        -9.5505 
  28   2.0000      -0.346851        -9.4383 
  29   2.0000      -0.327559        -8.9133 
  30   2.0000      -0.311267        -8.4700 
  31   2.0000      -0.298687        -8.1277 
  32   2.0000      -0.295593        -8.0435 
  33   2.0000      -0.287423        -7.8212 
  34   2.0000      -0.279991        -7.6189 
  35   2.0000      -0.244013        -6.6399 
  36   2.0000      -0.220579        -6.0023 
  37   0.0000      -0.080522        -2.1911 
  38   0.0000      -0.047888        -1.3031 
  39   0.0000       0.075334         2.0499 
  40   0.0000       0.084038         2.2868 
  41   0.0000       0.096904         2.6369 
  42   0.0000       0.107512         2.9256 
  43   0.0000       0.120315         3.2739 
  44   0.0000       0.130591         3.5536 
  45   0.0000       0.138682         3.7737 
  46   0.0000       0.143445         3.9033 
  47   0.0000       0.150285         4.0895 
*Only the first 10 virtual orbitals were printed.
Total SCF time: 0 days 0 hours 0 min 10 sec 
Finished LeanSCF after  10.2 sec

Maximum memory used throughout the entire LEANSCF-calculation: 38.7 MB


-------------------------------------------------------------------------------
                          DFT DISPERSION CORRECTION                            
                                                                               
                                DFTD4 V3.4.0                                   
-------------------------------------------------------------------------------
-------------------------   ----------------
Dispersion correction           -0.007244780
-------------------------   ----------------

------------------   -----------------
gCP correction             0.012431002
------------------   -----------------

-------------------------   --------------------
FINAL SINGLE POINT ENERGY      -421.457553006166
-------------------------   --------------------

------------------------------------------------------------------------------
                         ORCA SCF GRADIENT CALCULATION
------------------------------------------------------------------------------

Nuc. rep. gradient        (SHARK) ... done (  0.0 sec)
HCore & Overlap gradient  (SHARK) ... done (  0.5 sec)
Split-RIJ-J gradient      (SHARK) ... done (  2.5 sec)
XC gradient                       ... done (  9.0 sec)
CPCM gradient                     ... done (  1.4 sec)
SMD gradient                      ... done (  0.0 sec)
Dispersion correction             ... done (  0.0 sec)

-------------------
DISPERSION GRADIENT
-------------------

   1   C   :   -0.000080445   -0.000024505    0.000067899
   2   C   :   -0.000081079   -0.000015144   -0.000000686
   3   C   :   -0.000095593   -0.000004707   -0.000052202
   4   C   :   -0.000046757    0.000056428   -0.000000087
   5   C   :    0.000055456    0.000027864   -0.000003526
   6   C   :    0.000069400   -0.000022333    0.000046991
   7   N   :    0.000096303   -0.000048265    0.000044058
   8   C   :    0.000095418   -0.000015928   -0.000014079
   9   C   :    0.000097810    0.000012046   -0.000047102
  10   N   :    0.000072777    0.000055343   -0.000061972
  11   H   :   -0.000030685   -0.000020900    0.000023761
  12   H   :   -0.000032302   -0.000000767    0.000029007
  13   H   :   -0.000031057   -0.000015017    0.000043123
  14   H   :   -0.000039048   -0.000021253   -0.000005805
  15   H   :   -0.000038274   -0.000003653   -0.000037182
  16   H   :   -0.000031455   -0.000011455   -0.000020227
  17   H   :   -0.000034067    0.000005764   -0.000018687
  18   H   :   -0.000014952    0.000035521    0.000016159
  19   H   :   -0.000015171    0.000033750   -0.000021735
  20   H   :    0.000023727   -0.000022323    0.000041392
  21   H   :    0.000033214   -0.000011786   -0.000000782
  22   H   :    0.000026779    0.000011316   -0.000028318

Difference to translation invariance:
           :   -0.0000000000   -0.0000000000    0.0000000000

Difference to rotation invariance:
           :    0.0000000000   -0.0000000000   -0.0000000000

Norm of the Dispersion gradient    ...    0.0003441431
RMS gradient                       ...    0.0000423611
MAX gradient                       ...    0.0000978101
gCP correction                   ... done

------------------
CARTESIAN GRADIENT
------------------

   1   C   :   -0.000059663    0.000085993    0.000054806
   2   C   :   -0.000057921   -0.000090241    0.000008360
   3   C   :   -0.000056292    0.000034132   -0.000024649
   4   C   :   -0.000023651    0.000068999   -0.000007375
   5   C   :    0.000179380   -0.000059271    0.000059361
   6   C   :    0.000207766   -0.000022668   -0.000036715
   7   N   :   -0.000146415   -0.000064426    0.000094687
   8   C   :   -0.000114256   -0.000023171   -0.000017967
   9   C   :   -0.000098265   -0.000050616   -0.000032562
  10   N   :    0.000006020    0.000134118   -0.000094567
  11   H   :    0.000036080    0.000061914   -0.000002617
  12   H   :   -0.000015516   -0.000042503   -0.000031238
  13   H   :   -0.000064021    0.000049577   -0.000036178
  14   H   :   -0.000009213    0.000000704    0.000067699
  15   H   :    0.000022742   -0.000030879    0.000071849
  16   H   :    0.000066117    0.000044130   -0.000003001
  17   H   :    0.000045248   -0.000075109   -0.000030573
  18   H   :    0.000095491   -0.000050036   -0.000010789
  19   H   :   -0.000005579   -0.000032082    0.000032708
  20   H   :    0.000022874   -0.000010166   -0.000143783
  21   H   :   -0.000048807    0.000065678   -0.000057146
  22   H   :    0.000017879    0.000005924    0.000139689

Difference to translation invariance:
           :    0.0000000000   -0.0000000000   -0.0000000000

Difference to rotation invariance:
           :   -0.0000446623   -0.0000134042   -0.0006263001

Norm of the Cartesian gradient     ...    0.0005622088
RMS gradient                       ...    0.0000692031
MAX gradient                       ...    0.0002077661

-------
TIMINGS
-------

Total SCF gradient time     ....       14.566 sec

Densities                   ....       0.001 sec  (  0.0%)
One electron gradient       ....       0.470 sec  (  3.2%)
RI-J Coulomb gradient       ....       2.505 sec  ( 17.2%)
XC gradient                 ....       9.043 sec  ( 62.1%)
CPCM gradient               ....       1.366 sec  (  9.4%)
   A-Matrix (El+Nuc)        ....       0.094 sec  (  0.6%)
   Potential                ....       1.271 sec  (  8.7%)
SMD gradient                ....       0.012 sec  (  0.1%)

Maximum memory used throughout the entire SCFGRAD-calculation: 38.9 MB

------------------------------------------------------------------------------
                              ORCA PROPERTY CALCULATIONS
------------------------------------------------------------------------------

GBWName                                 ... xtb_opt.gbw
Number of atoms                         ...     22
Number of basis functions               ...    260
Max core memory                         ...   1024 MB

Electric properties:
Dipole moment                           ... YES
Quadrupole moment                       ...  NO
Static polarizability (Dipole/Dipole)   ...  NO
Static polarizability (Dipole/Quad.)    ...  NO
Static polarizability (Quad./Quad.)     ...  NO
Static polarizability (Velocity)        ...  NO

Atomic electric properties:
Dipole moment                           ...  NO
Quadrupole moment                       ...  NO
Static polarizability                   ...  NO

Choice of electric origin               ... Center of mass
Position of electric origin             ...     0.009088     0.003136    -0.003554

General magnetic properties:
Magnetizability                         ...  NO

EPR properties:
g-Tensor (aka g-matrix)                 ...  NO
Zero-Field splitting spin-orbit         ...  NO
Zero-field splitting spin-spin          ...  NO
Hyperfine couplings                     ...  NO (   0 nuclei)
Quadrupole couplings                    ...  NO (   0 nuclei)
Contact density                         ...  NO (   0 nuclei)

NMR properties:
Chemical shifts                         ...  NO (   0 nuclei)
Spin-rotation constants                 ...  NO (   0 nuclei)
Spin-spin couplings                     ...  NO (   0 nuclei,    0 pairs)

Choice of magnetic origin               ... GIAO
Position of magnetic origin             ...     0.000000     0.000000     0.000000

Properties with geometric perturbations:
SCF Hessian                             ...  NO
IR spectrum                             ...  NO
VCD spectrum                            ...  NO
X-ray spectroscopy properties:
SCF XES/XAS/RIXS spectra                ...  NO


-------------
DIPOLE MOMENT
-------------

Method             : SCF
Type of density    : Electron Density
Multiplicity       :   1
Irrep              :   0
Energy             :  -421.4627392286227519 Eh
Relativity type    : 
Basis              : AO
                                X                 Y                 Z
Electronic contribution:     14.421437408       0.609789464      -1.174071422
Nuclear contribution   :    -14.839979313      -0.565520742       1.198540364
                        -----------------------------------------
Total Dipole Moment    :     -0.418541905       0.044268722       0.024468942
                        -----------------------------------------
Magnitude (a.u.)       :      0.421587210
Magnitude (Debye)      :      1.071589527



--------------------
Rotational spectrum 
--------------------
 
Rotational constants in cm-1:             0.103003             0.025222             0.021698 
Rotational constants in MHz :          3087.938179           756.131397           650.482152 

Dipole components along the rotational axes: 
x,y,z [a.u.] :    -0.418760     0.030985     0.037631 
x,y,z [Debye]:    -1.064402     0.078757     0.095650 

 

Dipole moment calculation done in   0.0 sec 

Maximum memory used throughout the entire PROP-calculation: 17.7 MB

--------------------------------
SUGGESTED CITATIONS FOR THIS RUN
--------------------------------

Below you find a list of papers that are relevant to this ORCA run
We neither can nor want to force you to cite these papers, but we appreciate if you do
You receive ORCA, which is the product of decades of hard work by many enthusiastic individuals, for free
The only thing we kindly ask in return is that you cite our papers,
We deeply appreciate it, if you show your appreciation for ORCA by not just citing the generic ORCA reference.

Please note that relegating all ORCA citations to the supporting information does *not* help us.
SI sections are not indexed - citations you put there will not count into any citation statistics
But we need these citations in order to attract the funding resources that allow us to do what we are doing

Therefore, if you are a happy ORCA user, please consider citing a few of the papers listed below in the main body of your paper

In addition to the list printed below, the program has created the file xtb_opt.bibtex that contains the list in bibtex format
You can import this file easily into all common literature databanks and citation aid programs


List of essential papers. We consider these as the minimum necessary citations

  1. Neese,F.
     Software update: the ORCA program system, version 5.0
     WIRES Comput. Molec. Sci., 2022 12(1)e1606
     doi.org/10.1002/wcms.1606
  2. Grimme,S.; Hansen,A.; Ehlert,S.; Mewes,J.
     r2SCAN-3c: A 'Swiss army knife' composite electronic-structure method
     J. Chem. Phys., 2021 154 064103
     doi.org/10.1063/5.0040021

List of papers to cite with high priority. The work reported in these papers was absolutely
necessary for this run to complete.
Our perspective: the developers of density functionals and basis sets usually get cited in chemistry papers
Good! But without the algorithms to do something with them, the functionals or basis sets would not do anything.
Hence, in our opinion, the algorithm design and method developments papers are equally worthy of getting cited

  1. Neese,F.
     An improvement of the resolution of the identity approximation for the formation of the Coulomb matrix
     J. Comp. Chem., 2003 24(14)1740-1747
     doi.org/10.1002/jcc.10318
  2. Garcia-Rates,M.; Neese,F.
     Effect of the Solute Cavity on the Solvation Energy and its Derivatives within the Framework of the Gaussian Charge Scheme
     J. Comput. Chem., 2020 41 922-939
     doi.org/10.1002/jcc.26139
  3. Neese,F.
     The SHARK Integral Generation and Digestion System
     J. Comp. Chem., 2022  1-16
     doi.org/10.1002/jcc.26942
  4. Lehtola,S.; Steigemann,C.; Oliveira,M.; Marques,M.
     Recent developments in Libxc - A comprehensive library of functionals for density functional theory
     Software X, 2018 7 
     doi.org/10.1016/j.softx.2017.11.002
  5. Caldeweyher,E.; Bannwarth,C.; Grimme,S.
     Extension of the D3 dispersion coefficient model
     J. Chem. Phys., 2017 147 034112-XXXX
     doi.org/10.1063/1.4993215
  6. Caldeweyher,E.; Ehlert,S.; Hansen,A.; Neugebauer,H.; Spicher,S.; Bannwarth,C.; Grimme,S.
     A generally applicable atomic-charge dependent London dispersion correction
     J. Chem. Phys., 2019 150 154122-XXXX
     doi.org/10.1063/1.5090222
  7. Caldeweyher,E.; Mewes,J.; Ehlert,S.; Grimme,S.
     Extension and evaluation of the D4 London-dispersion model for periodic systems
     Phys. Chem. Chem. Phys., 2020 22(16)8499-8512
     doi.org/10.1039/D0CP00502A

List of suggested additional citations. These are papers that are important in the 'surrounding' of 
of this run, or papers that preceded the highly important papers. If you like your results we are grateful for a citation.

  1. Neese,F.
     The ORCA program system
     WIRES Comput. Molec. Sci., 2012 2(1)73-78
     doi.org/10.1002/wcms.81
  2. Neese,F.
     Software update: the ORCA program system, version 4.0
     WIRES Comput. Molec. Sci., 2018 8(1)1-6
     doi.org/10.1002/wcms.1327
  3. Neese,F.; Wennmohs,F.; Becker,U.; Riplinger,C.
     The ORCA quantum chemistry program package
     J. Chem. Phys., 2020 152 Art. No. L224108
     doi.org/10.1063/5.0004608

List of optional additional citations

  1. Neese,F.
     Approximate second-order SCF convergence for spin unrestricted wavefunctions
     Chem. Phys. Lett., 2000 325(1-3)93-98
     doi.org/10.1016/s0009-2614(00)00662-x

Timings for individual modules:

Sum of individual times          ...       26.874 sec (=   0.448 min)
Startup calculation              ...        1.507 sec (=   0.025 min)   5.6 %
SCF iterations                   ...       10.554 sec (=   0.176 min)  39.3 %
Property calculations            ...        0.129 sec (=   0.002 min)   0.5 %
SCF Gradient evaluation          ...       14.684 sec (=   0.245 min)  54.6 %
                             ****ORCA TERMINATED NORMALLY****
TOTAL RUN TIME: 0 days 0 hours 0 minutes 27 seconds 800 msec
  ------------------------------------------------------------------------
          * successful ORCA run, taking over control again...

         :::::::::::::::::::::::::::::::::::::::::::::::::::::
         ::                  ORCA SUMMARY                   ::
         :::::::::::::::::::::::::::::::::::::::::::::::::::::
         :: total energy            -421.457553006166 Eh    ::
         :: gradient norm              0.000562208811 Eh/a0 ::
         :: HOMO-LUMO gap              0.000000000000 eV    ::
         :::::::::::::::::::::::::::::::::::::::::::::::::::::

           -------------------------------------------------
          |                Property Printout                |
           -------------------------------------------------
           -------------------------------------------------
          |                Geometry Summary                 |
           -------------------------------------------------

      molecular mass/u    :      136.1945826
   center of mass at/Å    :        0.0048139       0.0016596      -0.0018812
  moments of inertia/u·Å² :        0.1636576E+03   0.6683568E+03   0.7769093E+03
rotational constants/cm⁻¹ :        0.1030055E+00   0.2522250E-01   0.2169833E-01

 * 20 selected distances

     #   Z          #   Z                                           value/Å
     1   6 C        2   6 C                                       1.5291534 (max)
     2   6 C        3   6 C                                       1.5288935
     5   6 C        6   6 C                                       1.4014188
     6   6 C        7   7 N                                       1.3337383
     7   7 N        8   6 C                                       1.3410207
     8   6 C        9   6 C                                       1.3847463
     5   6 C       10   7 N                                       1.3422554
     9   6 C       10   7 N                                       1.3400086
     1   6 C       11   1 H                                       1.0951984
     1   6 C       12   1 H                                       1.0966368
     1   6 C       13   1 H                                       1.0944106
     2   6 C       14   1 H                                       1.0983091
     3   6 C       15   1 H                                       1.0949056
     3   6 C       16   1 H                                       1.0952826
     3   6 C       17   1 H                                       1.0965701
     4   6 C       18   1 H                                       1.0979312
     4   6 C       19   1 H                                       1.0930890
     6   6 C       20   1 H                                       1.0869375
     8   6 C       21   1 H                                       1.0865202 (min)
     9   6 C       22   1 H                                       1.0873034

 * 3 distinct bonds (by element types)

   Z      Z             #   av. dist./Å        max./Å        min./Å
   1 H    6 C          12     1.0935912     1.0983091     1.0865202
   6 C    6 C           4     1.4610530     1.5291534     1.3847463
   6 C    7 N           4     1.3392557     1.3422554     1.3337383


optimized geometry written to: xtbopt.coord


           -------------------------------------------------
          | TOTAL ENERGY             -421.457553006166 Eh   |
          | GRADIENT NORM               0.000562208811 Eh/α |
           -------------------------------------------------

------------------------------------------------------------------------
 * finished run on 2025/04/11 at 11:10:52.413     
------------------------------------------------------------------------
 total:
 * wall-time:     0 d,  0 h,  4 min, 30.320 sec
 *  cpu-time:     0 d,  0 h,  0 min,  1.321 sec
 * ratio c/w:     0.005 speedup
 SCF:
 * wall-time:     0 d,  0 h,  0 min, 33.279 sec
 *  cpu-time:     0 d,  0 h,  0 min,  0.418 sec
 * ratio c/w:     0.013 speedup
 ANC optimizer:
 * wall-time:     0 d,  0 h,  3 min, 57.016 sec
 *  cpu-time:     0 d,  0 h,  0 min,  0.824 sec
 * ratio c/w:     0.003 speedup

