17
 energy: -346.943754790653 gnorm: 0.000888062196 xtb: 6.7.1 (edcfbbe)
C           -2.05082878938947       -0.54205131943238        0.92766028193267
C           -2.06210519948336        0.56226669618888       -0.12494523512039
C           -0.86424713377960        0.53331723036296       -1.05304272912572
O            0.36033027663221        0.81661771484392       -0.30474115934174
C            1.17211559244107       -0.20830499461402        0.02186740356010
O            0.97249201864837       -1.36760900796249       -0.30163990848263
C            2.33454175558352        0.26324142734288        0.83666516485754
H           -1.17215921324998       -0.46618394131194        1.57735761610770
H           -2.93730000642312       -0.47472379564504        1.56560385558341
H           -2.04357202965591       -1.53252836118662        0.46067291821758
H           -2.11827791876832        1.54605468190388        0.35572666344012
H           -2.95225467288587        0.46864242708598       -0.75890422462252
H           -0.76251689924487       -0.43025761507150       -1.55795537528388
H           -0.92255955236526        1.32988453932091       -1.79828571920477
H            3.06474548213045       -0.53848376836483        0.94057687894569
H            1.97490351294298        0.55797009047011        1.82830128653167
H            2.79448273092952        1.14187046032642        0.37788078683348
17
 energy: -346.943757083248 gnorm: 0.000274271861 xtb: 6.7.1 (edcfbbe)
C           -2.05023050638402       -0.54158728257949        0.92794018906003
C           -2.06167840949931        0.56258474143709       -0.12457418365116
C           -0.86481437053138        0.53287483742271       -1.05353712737554
O            0.36074698351958        0.81658633795333       -0.30598158693054
C            1.17240170162302       -0.20878848742597        0.02122451067493
O            0.97316937594769       -1.36794477087567       -0.30340891568063
C            2.33397986232751        0.26292794770916        0.83678186864780
H           -1.17281891919027       -0.46462998160821        1.57921717045230
H           -2.93792073623854       -0.47571484957046        1.56428151853256
H           -2.04081138199756       -1.53195218237112        0.46093026351772
H           -2.11679100281814        1.54655767196255        0.35603820211033
H           -2.95275909122360        0.46968040224822       -0.75759961059686
H           -0.76286151426577       -0.43110586936774       -1.55781302000442
H           -0.92320692865910        1.32923313878106       -1.79911162948040
H            3.06487048114162       -0.53819178287496        0.94094659639167
H            1.97306771141547        0.55673278194771        1.82821641996163
H            2.79344678918961        1.14245970781272        0.37924753819924
17
 energy: -346.943757083248 gnorm: 0.000274271861 xtb: 6.7.1 (edcfbbe)
C           -2.05023050638402       -0.54158728257949        0.92794018906003
C           -2.06167840949931        0.56258474143709       -0.12457418365116
C           -0.86481437053138        0.53287483742271       -1.05353712737554
O            0.36074698351958        0.81658633795333       -0.30598158693054
C            1.17240170162302       -0.20878848742597        0.02122451067493
O            0.97316937594769       -1.36794477087567       -0.30340891568063
C            2.33397986232751        0.26292794770916        0.83678186864780
H           -1.17281891919027       -0.46462998160821        1.57921717045230
H           -2.93792073623854       -0.47571484957046        1.56428151853256
H           -2.04081138199756       -1.53195218237112        0.46093026351772
H           -2.11679100281814        1.54655767196255        0.35603820211033
H           -2.95275909122360        0.46968040224822       -0.75759961059686
H           -0.76286151426577       -0.43110586936774       -1.55781302000442
H           -0.92320692865910        1.32923313878106       -1.79911162948040
H            3.06487048114162       -0.53819178287496        0.94094659639167
H            1.97306771141547        0.55673278194771        1.82821641996163
H            2.79344678918961        1.14245970781272        0.37924753819924
