17
 energy: -23.953253215977 gnorm: 0.030383107395 xtb: 6.7.1 (edcfbbe)
C           -3.20552692802181        0.45846285957803        0.13691281405405
C           -1.84380126533820       -0.22025989606048        0.22635118006142
C           -0.73926942463013        0.65537184757401       -0.38727486079890
C            0.58537448218691       -0.04524756409341       -0.33050769521976
O            0.84006774436480       -1.09008358808054       -0.90891370350186
O            1.47541946026024        0.58965449208942        0.45785688215873
C            2.77182969952890       -0.04994802758253        0.58774116658322
H           -3.20411526640836        1.41628511519711        0.66809881068392
H           -3.47789980448865        0.65219692468987       -0.90619158073380
H           -3.98419330329728       -0.17069020028880        0.57880093435634
H           -1.86726628553852       -1.18237612070299       -0.29663719380993
H           -1.59513670562178       -0.42778526426811        1.27387234893992
H           -0.68098388756848        1.61659614471544        0.12893496319559
H           -0.96704748584602        0.84062880577683       -1.44346677428954
H            3.26189291652813       -0.11019690243376       -0.38716060056238
H            2.65776025089668       -1.04970234377897        1.01422670372534
H            3.34221426016014        0.58835583832943        1.26173117518256
17
 energy: -23.954195963724 gnorm: 0.011102334202 xtb: 6.7.1 (edcfbbe)
C           -3.19966709103906        0.46051325951129        0.13524751398643
C           -1.84096567396286       -0.21797650692247        0.22561841802685
C           -0.73755795376617        0.65615324292617       -0.38663792959359
C            0.58266972023926       -0.05556856794282       -0.32723424824299
O            0.83663387606514       -1.09165143824556       -0.90580100031293
O            1.46962230424702        0.57265972743939        0.45193850727516
C            2.76356605123261       -0.04370499438571        0.58880589802171
H           -3.19211072041904        1.41118761858426        0.66661628159273
H           -3.46686072364249        0.64979593456101       -0.90345507444876
H           -3.96792375110771       -0.17188114991178        0.57636950031239
H           -1.86419136947933       -1.17544278641325       -0.30058304185722
H           -1.59758088481293       -0.42020916535513        1.27207087226390
H           -0.66472713926670        1.60827306127684        0.13981292259552
H           -0.97118267999046        0.84114485590959       -1.43860840528318
H            3.24503856964527       -0.10807711504208       -0.38673603472058
H            2.64990086046681       -1.04411634119139        1.00593373536047
H            3.32465506275718        0.60016248586221        1.26101665504903
17
 energy: -23.954359686819 gnorm: 0.003917012964 xtb: 6.7.1 (edcfbbe)
C           -3.19696834656168        0.46136322236448        0.13504868998690
C           -1.83745181425735       -0.21679414530744        0.22733052942868
C           -0.73616360886972        0.65746469629750       -0.38697479177529
C            0.58367395386546       -0.05953053599590       -0.33515505245524
O            0.83423899508863       -1.09814652434636       -0.90791530307394
O            1.46316583110751        0.56266048055255        0.44481376544206
C            2.75420022121543       -0.04025606385558        0.58987165557420
H           -3.18588136881514        1.40951947919943        0.66519114393235
H           -3.46080256716750        0.64805742678009       -0.90211939659751
H           -3.96088598202613       -0.17200288433238        0.57627587366763
H           -1.85863178764221       -1.17247513862311       -0.29968777612786
H           -1.59588821874112       -0.41577770296031        1.27318395487851
H           -0.65138204713427        1.60323617244873        0.14669192895553
H           -0.97622021609666        0.84508709784892       -1.43484852774835
H            3.23979868547953       -0.10666866465491       -0.38311467720593
H            2.64789779521507       -1.04246933166560        1.00382997064561
H            3.30661893250670        0.60799453691045        1.26195258249759
17
 energy: -23.954380751708 gnorm: 0.001418706734 xtb: 6.7.1 (edcfbbe)
C           -3.19700096369678        0.46171774438723        0.13476037551810
C           -1.83676015716632       -0.21661897658151        0.22771120844675
C           -0.73599473766933        0.65775094296322       -0.38725871255725
C            0.58227103314279       -0.06407907818440       -0.33552788826273
O            0.83276072679054       -1.10104561223964       -0.91325783926725
O            1.46047306456983        0.55860829810202        0.44270800101860
C            2.75190084332593       -0.03887969711189        0.58984652407198
H           -3.18507218144154        1.41043497628779        0.66408092602251
H           -3.46014468352131        0.64729359561474       -0.90286867933118
H           -3.96072319975412       -0.17145366788632        0.57678173134895
H           -1.85704467839474       -1.17286761373533       -0.29826876567147
H           -1.59533537572838       -0.41414569305111        1.27379627254463
H           -0.64594791226086        1.60075590777190        0.15003991528994
H           -0.97774602635398        0.84977135098037       -1.43363137328879
H            3.24166189697069       -0.10583160472261       -0.38177268107387
H            2.65090861917112       -1.04182117372953        1.00508711482373
H            3.30111218918302        0.61167242179564        1.26214844039227
17
 energy: -23.954386421753 gnorm: 0.001368854847 xtb: 6.7.1 (edcfbbe)
C           -3.19762220266656        0.46143955387204        0.13487917585780
C           -1.83641499453411       -0.21620503690174        0.22889364441403
C           -0.73588644237839        0.65734499472748       -0.38782636156137
C            0.58302156589776       -0.06529391338547       -0.34182100200420
O            0.83084077628297       -1.10312771525434       -0.92099264739826
O            1.45920841191809        0.55539604880456        0.43933889674412
C            2.75097063381169       -0.03860031108705        0.59088444179566
H           -3.18569040052533        1.41193174603169        0.66217298985407
H           -3.46094905744248        0.64504532093008       -0.90364584451245
H           -3.96203102211594       -0.17062695901324        0.57846939338807
H           -1.85636413406548       -1.17390452653817       -0.29489562733360
H           -1.59463330903053       -0.41161014533085        1.27554479430852
H           -0.64123584363819        1.59826133826715        0.15216493843863
H           -0.98117726638776        0.85434517781375       -1.43241305993565
H            3.24645193913742       -0.10513562022913       -0.37871585406933
H            2.65401931238091       -1.04201205605311        1.00776110186967
H            3.29681049052249        0.61401422400690        1.26457559016924
17
 energy: -23.954388271259 gnorm: 0.000318510261 xtb: 6.7.1 (edcfbbe)
C           -3.19744176822470        0.46127937350699        0.13445400874533
C           -1.83659318620114       -0.21614525609019        0.22918963587837
C           -0.73604467554991        0.65732287730170       -0.38740151882520
C            0.58269767897175       -0.06531200332645       -0.34110863406613
O            0.83102012117848       -1.10143032460173       -0.92227005101894
O            1.45970112550262        0.55540450934413        0.43993799275779
C            2.75182400893659       -0.03913950511433        0.59074905685612
H           -3.18618828440760        1.41223472909534        0.66087893662180
H           -3.46130750125687        0.64393440397028       -0.90407193908682
H           -3.96174232888051       -0.17044885593618        0.57861682782576
H           -1.85656322731514       -1.17421073253634       -0.29399850735573
H           -1.59507825108024       -0.41100145324754        1.27605723988407
H           -0.64223101828492        1.59860014893780        0.15227444289369
H           -0.98101587046478        0.85418233141253       -1.43219851000811
H            3.24655299588066       -0.10518269639694       -0.37894535511664
H            2.65385852436698       -1.04214905614909        1.00766457736018
H            3.29787011399530        0.61332363049056        1.26454636667940
17
 energy: -23.954388910779 gnorm: 0.000218094537 xtb: 6.7.1 (edcfbbe)
C           -3.19736569400467        0.46090462292976        0.13407278313554
C           -1.83638402459055       -0.21574762379298        0.22993442270782
C           -0.73605534040359        0.65763504274240       -0.38704900997914
C            0.58277288645506       -0.06489048604898       -0.34175411335202
O            0.83132600615883       -1.09999791354752       -0.92418143203502
O            1.45958306677187        0.55490619038533        0.44031790756267
C            2.75180158192516       -0.03970132423519        0.59081052303736
H           -3.18649406909744        1.41263379254368        0.65892103227576
H           -3.46123609239311        0.64174869994564       -0.90467551133722
H           -3.96136446276372       -0.17041501246064        0.57918530919671
H           -1.85580638768751       -1.17424835489180       -0.29242172476657
H           -1.59521505038965       -0.40951233206450        1.27704095555243
H           -0.64221245361152        1.59891543050236        0.15264915307002
H           -0.98148964230372        0.85431127333696       -1.43175656665112
H            3.24629060321867       -0.10518214574214       -0.37885957652593
H            2.65358605921487       -1.04272890579695        1.00725979874753
H            3.29758147066757        0.61263116685510        1.26488061938614
17
 energy: -23.954389901708 gnorm: 0.000444721941 xtb: 6.7.1 (edcfbbe)
C           -3.19729988864233        0.46022298202109        0.13337832267199
C           -1.83586167904700       -0.21509585458977        0.23143290567336
C           -0.73613887341153        0.65823650900580       -0.38668848521671
C            0.58281812631731       -0.06418322908375       -0.34301660882925
O            0.83215328801399       -1.09715652077669       -0.92869158850292
O            1.45891232797938        0.55363264477954        0.44152506020881
C            2.75150129730972       -0.04071302471347        0.59111867238661
H           -3.18701796663123        1.41376538545969        0.65488833112221
H           -3.46140168583130        0.63725240913765       -0.90593552604556
H           -3.96078327118151       -0.17006506183472        0.58077212755578
H           -1.85415709775274       -1.17461937903021       -0.28909794359564
H           -1.59511970541659       -0.40652815182217        1.27904014041621
H           -0.64178822481406        1.59941034199314        0.15307953827575
H           -0.98270713522574        0.85484073267065       -1.43113776180782
H            3.24578279900360       -0.10481888735368       -0.37864159268956
H            2.65357148209097       -1.04413741867252        1.00647949766335
H            3.29685466440560        0.61121864346998        1.26586948073834
17
 energy: -23.954391374269 gnorm: 0.000470091674 xtb: 6.7.1 (edcfbbe)
C           -3.19724743558393        0.45894582552394        0.13252966897769
C           -1.83474152656268       -0.21385615705066        0.23382637313880
C           -0.73622661488875        0.65940034899198       -0.38670180048358
C            0.58307415458287       -0.06246267340676       -0.34518094380751
O            0.83397520797098       -1.09207287051521       -0.93611473861902
O            1.45758419641991        0.55157860291132        0.44414878609924
C            2.75061677240571       -0.04249181420647        0.59192825770924
H           -3.18789418269123        1.41560353758333        0.64836064348620
H           -3.46201011103015        0.62946975614237       -0.90771823272735
H           -3.95972000336839       -0.16967033153688        0.58400287734215
H           -1.85126138661567       -1.17513121512607       -0.28355848055430
H           -1.59430912418539       -0.40128636151425        1.28220787063749
H           -0.64123140903023        1.60068165954339        0.15267232101622
H           -0.98485480266658        0.85531804885726       -1.43076793708594
H            3.24440705173695       -0.10412716554909       -0.37824398942641
H            2.65335836883110       -1.04688781648506        1.00506076266396
H            3.29579930184206        0.60825074649740        1.26792313165807
17
 energy: -23.954392920182 gnorm: 0.000269141298 xtb: 6.7.1 (edcfbbe)
C           -3.19697463533515        0.45716827034497        0.13185736742172
C           -1.83284820689207       -0.21204371834256        0.23679896600649
C           -0.73636668418394        0.66124789247100       -0.38753747196122
C            0.58335765849854       -0.05987541003053       -0.34803903898521
O            0.83639139413092       -1.08519849929200       -0.94573960824065
O            1.45561513221049        0.54904088319513        0.44766076926174
C            2.74887246606849       -0.04492687560988        0.59326947579066
H           -3.18917572564807        1.41768906488378        0.64056465774653
H           -3.46306139809292        0.61937378862741       -0.90943536549823
H           -3.95768053316952       -0.16975037521067        0.58868534650786
H           -1.84707324848695       -1.17565034280377       -0.27636640968824
H           -1.59218942922225       -0.39408693505612        1.28607688285720
H           -0.64078845777811        1.60306511598817        0.15074655828074
H           -0.98766410263555        0.85554699154038       -1.43122873804666
H            3.24232077080110       -0.10362630685506       -0.37736120877415
H            2.65239707022001       -1.05065659198225        1.00346873763896
H            3.29418638668152        0.60394516879255        1.27095364970742
17
 energy: -23.954394324249 gnorm: 0.000228279274 xtb: 6.7.1 (edcfbbe)
C           -3.19655860267841        0.45483482255298        0.13183216078536
C           -1.83023669474534       -0.20959389155667        0.23989554011057
C           -0.73648477582989        0.66368728038950       -0.38959124551394
C            0.58379295288236       -0.05636484814314       -0.35175017195135
O            0.83917093125360       -1.07707623691471       -0.95658860997745
O            1.45340501458700        0.54663837221345        0.45127018760350
C            2.74645138010030       -0.04792744474117        0.59521897136271
H           -3.19078949832448        1.41934505958812        0.63303433855234
H           -3.46448631102340        0.60818318707612       -0.91038375847883
H           -3.95490006066651       -0.17072252138916        0.59453807199766
H           -1.84196784121419       -1.17591110084618       -0.26828545413814
H           -1.58853588416719       -0.38535572226790        1.29001499931178
H           -0.64066944539473        1.60663510767831        0.14661494059505
H           -0.99094235960560        0.85518392021690       -1.43300325588458
H            3.23995575426591       -0.10388444977133       -0.37567588278776
H            2.65000682108764       -1.05500067619911        1.00231116746107
H            3.29210707663946        0.59859126277452        1.27492257097700
17
 energy: -23.954395739758 gnorm: 0.000362898211 xtb: 6.7.1 (edcfbbe)
C           -3.19569366819460        0.45230462616249        0.13245621964271
C           -1.82693332525320       -0.20682326089120        0.24302905408763
C           -0.73670056592559        0.66653180722331       -0.39281430766114
C            0.58417530128006       -0.05238877945063       -0.35626694787947
O            0.84197053967968       -1.06839831232044       -0.96816432215510
O            1.45085751301671        0.54445019905977        0.45433324620509
C            2.74329214871687       -0.05123108715663        0.59765367709019
H           -3.19259273219356        1.42040528606269        0.62669026559748
H           -3.46590369776617        0.59713049747707       -0.91040702991399
H           -3.95103921560304       -0.17263917524005        0.60085556209484
H           -1.83611624453474       -1.17603791123067       -0.25973334313797
H           -1.58335502449394       -0.37570557751288        1.29386380431246
H           -0.64079408279392        1.61109523467415        0.14052842977322
H           -0.99466404355477        0.85420746978211       -1.43601786423273
H            3.23759129914625       -0.10498189414548       -0.37306683453230
H            2.64609524175977       -1.05947530676669        1.00184265340098
H            3.28912901388075        0.59281830493363        1.27959230733309
17
 energy: -23.954396889617 gnorm: 0.000280256260 xtb: 6.7.1 (edcfbbe)
C           -3.19515284761023        0.45120435997092        0.13350303479774
C           -1.82525521436253       -0.20545654657484        0.24394887396893
C           -0.73677199906860        0.66773671738028       -0.39518761525432
C            0.58436368451460       -0.05066037149940       -0.35851486309893
O            0.84312216264387       -1.06503660841601       -0.97261121836155
O            1.44976794219621        0.54398921313735        0.45486464773080
C            2.74164959264417       -0.05260133546130        0.59898225922852
H           -3.19336811824733        1.41995423950809        0.62625161221220
H           -3.46626675036124        0.59400342404145       -0.90930266022968
H           -3.94912174735816       -0.17428464732626        0.60331069349312
H           -1.83370317566634       -1.17579778684888       -0.25656959050615
H           -1.58019335875225       -0.37156664302791        1.29484159732222
H           -0.64112291316829        1.61339709359569        0.13626284238325
H           -0.99622772375090        0.85299918340942       -1.43841046849294
H            3.23688537128346       -0.10606413350543       -0.37128148551361
H            2.64335587393394       -1.06107000253904        1.00237418762242
H            3.28735767829618        0.59051596481641        1.28191272272296
17
 energy: -23.954398126328 gnorm: 0.000167841744 xtb: 6.7.1 (edcfbbe)
C           -3.19444284541300        0.45082730538677        0.13482114500146
C           -1.82404992953400       -0.20475016828958        0.24424113584830
C           -0.73691606179823        0.66816990213128       -0.39753963449747
C            0.58445994008339       -0.04979981012961       -0.36045286230503
O            0.84387587179049       -1.06338786992509       -0.97544361619897
O            1.44891964020270        0.54397517318798        0.45450316825785
C            2.74039468667166       -0.05328239615803        0.60013912137954
H           -3.19351913296055        1.41913509091195        0.62837613654395
H           -3.46614587751549        0.59412987244747       -0.90773124528486
H           -3.94751189069693       -0.17585983156409        0.60442605656369
H           -1.83260104854530       -1.17573399240572       -0.25500038304356
H           -1.57740816085287       -0.36928028107656        1.29500202934634
H           -0.64158035388317        1.61486019488728        0.13218093836319
H           -0.99730053510338        0.85126826225376       -1.44088656827296
H            3.23679539089122       -0.10688628439892       -0.36944248136131
H            2.64086019477354       -1.06165814867311        1.00334191902714
H            3.28548856905644        0.58953510207474        1.28383971065769
17
 energy: -23.954399662859 gnorm: 0.000159079342 xtb: 6.7.1 (edcfbbe)
C           -3.19357088307743        0.45056448225143        0.13682858145526
C           -1.82263769409702       -0.20402558365888        0.24443781700201
C           -0.73705333077484        0.66824143235552       -0.40087015417304
C            0.58466556976508       -0.04911422443997       -0.36319880861948
O            0.84530033629077       -1.06150213618815       -0.97956194750990
O            1.44759586132358        0.54372084815927        0.45405126608778
C            2.73877671453227       -0.05389562461331        0.60180815758695
H           -3.19316145365867        1.41809542122016        0.63190025553808
H           -3.46588803404493        0.59535202279411       -0.90534719139409
H           -3.94592007250299       -0.17746400106691        0.60580732609768
H           -1.83176772413295       -1.17581084840208       -0.25322925983607
H           -1.57385514240901       -0.36675650734288        1.29496915446558
H           -0.64191632308479        1.61618595472970        0.12664409502275
H           -0.99878847385166        0.84855107493809       -1.44434366163456
H            3.23686737176419       -0.10734315099702       -0.36683119520923
H            2.63806089998303       -1.06225646736645        1.00463399400669
H            3.28261083514189        0.58871942828789        1.28667614113858
17
 energy: -23.954401585453 gnorm: 0.000239449100 xtb: 6.7.1 (edcfbbe)
C           -3.19218714809493        0.45046434018956        0.13950331908798
C           -1.82072074954972       -0.20330729935039        0.24487596930283
C           -0.73736186454583        0.66810182935934       -0.40544956807970
C            0.58496130543613       -0.04812246694156       -0.36718280381530
O            0.84780021594526       -1.05843970841441       -0.98591194603094
O            1.44531813926157        0.54288903145708        0.45411858740898
C            2.73635386959187       -0.05469773632768        0.60424104024039
H           -3.19217060771243        1.41723451434302        0.63607599114003
H           -3.46562942314866        0.59660365975247       -0.90220919790943
H           -3.94352944031918       -0.17894793746620        0.60821616282873
H           -1.83076701774531       -1.17622045724621       -0.25057753960791
H           -1.56899078509013       -0.36347006770153        1.29510278387434
H           -0.64240838371912        1.61776891701456        0.11897825812380
H           -1.00109620496889        0.84452416866156       -1.44904647873751
H            3.23664245220031       -0.10714120474196       -0.36327343881631
H            2.63472123002890       -1.06339467668605        1.00592837508620
H            3.27838286959669        0.58741721475892        1.29098505592886
17
 energy: -23.954404259533 gnorm: 0.000256592312 xtb: 6.7.1 (edcfbbe)
C           -3.19032744298305        0.45027130639837        0.14319876047934
C           -1.81803575757267       -0.20221795244453        0.24564721063231
C           -0.73774713725810        0.66778550986921       -0.41186177277256
C            0.58547326721952       -0.04670634582188       -0.37287732169843
O            0.85211630695978       -1.05321282249217       -0.99626505451503
O            1.44170670777471        0.54098839831825        0.45520084330869
C            2.73279529374563       -0.05596066978956        0.60784984580777
H           -3.19028831934404        1.41676088606480        0.64037809248209
H           -3.46572861661361        0.59683014517183       -0.89797917172871
H           -3.94024096066176       -0.18019229929095        0.61285267554132
H           -1.82938487922621       -1.17684826829816       -0.24642423647241
H           -1.56223007601238       -0.35848157913308        1.29549083606183
H           -0.64309383120908        1.61982951023222        0.10828468058923
H           -1.00446652525619        0.83874768757321       -1.45556345398054
H            3.23592264842622       -0.10600944357140       -0.35829443977091
H            2.63064174580588       -1.06551642796622        1.00719178131555
H            3.27220603337188        0.58519448584061        1.29754529474548
17
 energy: -23.954408839476 gnorm: 0.000367707657 xtb: 6.7.1 (edcfbbe)
C           -3.18713384175381        0.45003520675400        0.14922276027072
C           -1.81355174924731       -0.20061557640756        0.24698399153140
C           -0.73846668856188        0.66717819534650       -0.42242792822642
C            0.58638447457529       -0.04407725276924       -0.38243310668253
O            0.85981389574930       -1.04366736043272       -1.01413040174841
O            1.43530418506772        0.53733046950162        0.45778509876431
C            2.72667116974029       -0.05814952868495        0.61398035155041
H           -3.18655967569795        1.41687144680359        0.64582413392820
H           -3.46656110707855        0.59564216702690       -0.89108973391776
H           -3.93450504630784       -0.18118020400807        0.62198610043947
H           -1.82706601649979       -1.17808977976323       -0.23945963724182
H           -1.55102848597342       -0.35042989814773        1.29615609178765
H           -0.64433775623698        1.62308709217424        0.09068484086516
H           -1.01014977268300        0.82916538373090       -1.46624505509782
H            3.23434731823496       -0.10340208967568       -0.35006295809316
H            2.62439598244399       -1.06950288797620        1.00874872965105
H            3.26176157139551        0.58106673718814        1.30885129224460
17
 energy: -23.954416234874 gnorm: 0.001270124404 xtb: 6.7.1 (edcfbbe)
C           -3.18150337608067        0.44964824289208        0.15971403204597
C           -1.80568074439680       -0.19783449412601        0.24922567526988
C           -0.73973942934669        0.66601621205207       -0.44080832437146
C            0.58805594641901       -0.03937991726198       -0.39913673009742
O            0.87398535036779       -1.02606284839186       -1.04621915756005
O            1.42365709948857        0.53031184114616        0.46299392454072
C            2.71568665200158       -0.06208231383337        0.62483666947320
H           -3.17918164295187        1.41807021331859        0.65343552047444
H           -3.46886972615460        0.59160169976919       -0.87912662107447
H           -3.92411106227715       -0.18180712985895        0.63988177544676
H           -1.82294439940521       -1.18019482355149       -0.22742480604295
H           -1.53139381481482       -0.33643182948552        1.29710654851952
H           -0.64674604966290        1.62852358997850        0.06014997667838
H           -1.02006889362018        0.81248422945470       -1.48466304430246
H            3.23120113895649       -0.09819833527095       -0.33561969851919
H            2.61385399809563       -1.07688089518322        1.01101233669500
H            3.24311741054833        0.57347867901259        1.32901649284924
17
 energy: -23.954422668755 gnorm: 0.001771887617 xtb: 6.7.1 (edcfbbe)
C           -3.17635154159587        0.44975380210455        0.16923539386679
C           -1.79887600057984       -0.19602454612318        0.25016438722255
C           -0.74089863804084        0.66458961676685       -0.45690747363276
C            0.58952141561539       -0.03539776904991       -0.41340175738401
O            0.88631999643042       -1.01156971520591       -1.07178713995033
O            1.41342808999799        0.52470953177787        0.46649281396864
C            2.70575961617022       -0.06501798347793        0.63419699949415
H           -3.17132828971199        1.41958937185014        0.66049401835692
H           -3.47167875205493        0.58875084134131       -0.86799867736645
H           -3.91472510889284       -0.18137735523250        0.65662371969469
H           -1.81983324020267       -1.18190644935353       -0.21916171404391
H           -1.51407879579112       -0.32645582700799        1.29637209899452
H           -0.64908261221556        1.63241845822533        0.03384020426926
H           -1.02821080017802        0.79813768447352       -1.50056360420170
H            3.22849201595173       -0.09377544725035       -0.32283477458747
H            2.60450577786540       -1.08262491207486        1.01333521633407
H            3.22635532439901        0.56746281889715        1.34627485899018
17
 energy: -23.954429473845 gnorm: 0.001361101524 xtb: 6.7.1 (edcfbbe)
C           -3.17270469681066        0.45021498057746        0.17580053523736
C           -1.79461342240241       -0.19542087818893        0.24951348685918
C           -0.74168222691156        0.66324678357755       -0.46725374189462
C            0.59046771643913       -0.03305271568829       -0.42202300468703
O            0.89440039771703       -1.00300144192768       -1.08600260128085
O            1.40677564328518        0.52160173681593        0.46783331327203
C            2.69905605418442       -0.06642438139530        0.64008585596802
H           -3.16444814592192        1.42117889164709        0.66492990051297
H           -3.47453365922807        0.58697228387032       -0.85991639594971
H           -3.90805212494798       -0.17979510242251        0.66925128233551
H           -1.81855067655920       -1.18272611690798       -0.21648542900526
H           -1.50282452541922       -0.32238701729149        1.29405785066661
H           -0.65120582109021        1.63412837212066        0.01733048717212
H           -1.03263024080194        0.78913983200819       -1.51056318014307
H            3.22676860373028       -0.09108568388593       -0.31437344914935
H            2.59804182290159       -1.08557169575135        1.01519589037252
H            3.21505375900203        0.56424427350281        1.35699376973876
17
 energy: -23.954433762353 gnorm: 0.000484321563 xtb: 6.7.1 (edcfbbe)
C           -3.17224562905845        0.44974571486060        0.17635893163843
C           -1.79426887696641       -0.19497920376699        0.24861689493655
C           -0.74169938385367        0.66359338020951       -0.46780744001789
C            0.59056270169585       -0.03244817898698       -0.42200592343268
O            0.89508795418395       -1.00077438650929       -1.08684404761824
O            1.40658559702838        0.52141940817835        0.46776229212517
C            2.69855687520027       -0.06704303720362        0.64043331876054