
                                 *****************
                                 * O   R   C   A *
                                 *****************

                                            #,                                       
                                            ###                                      
                                            ####                                     
                                            #####                                    
                                            ######                                   
                                           ########,                                 
                                     ,,################,,,,,                         
                               ,,#################################,,                 
                          ,,##########################################,,             
                       ,#########################################, ''#####,          
                    ,#############################################,,   '####,        
                  ,##################################################,,,,####,       
                ,###########''''           ''''###############################       
              ,#####''   ,,,,##########,,,,          '''####'''          '####       
            ,##' ,,,,###########################,,,                        '##       
           ' ,,###''''                  '''############,,,                           
         ,,##''                                '''############,,,,        ,,,,,,###''
      ,#''                                            '''#######################'''  
     '                                                          ''''####''''         
             ,#######,   #######,   ,#######,      ##                                
            ,#'     '#,  ##    ##  ,#'     '#,    #''#        ,####,   ,####,        
            ##       ##  ##   ,#'  ##            #'  '#       #'       #'  '#        
            ##       ##  #######   ##           ,######,      #####,   #    #        
            '#,     ,#'  ##    ##  '#,     ,#' ,#      #,     #,   #   #,  ,#        
             '#######'   ##     ##  '#######'  #'      '#     '####' # '####'        



                #########################################################
                #                        -***-                          #
                #          Department of theory and spectroscopy        #
                #                                                       #
                #                      Frank Neese                      #
                #                                                       #
                #     Directorship, Architecture, Infrastructure        #
                #                    SHARK, DRIVERS                     #
                #        Core code/Algorithms in most modules           #
                #                                                       #
                #        Max Planck Institute fuer Kohlenforschung      #
                #                Kaiser Wilhelm Platz 1                 #
                #                 D-45470 Muelheim/Ruhr                 #
                #                      Germany                          #
                #                                                       #
                #                  All rights reserved                  #
                #                        -***-                          #
                #########################################################


                         Program Version 6.0.0  -   RELEASE  -


 With contributions from (in alphabetic order):
   Daniel Aravena         : Magnetic Suceptibility
   Michael Atanasov       : Ab Initio Ligand Field Theory (pilot matlab implementation)
   Alexander A. Auer      : GIAO ZORA, VPT2 properties, NMR spectrum
   Ute Becker             : All parallelization in ORCA, NUMFREQ, NUMCALC
   Giovanni Bistoni       : ED, misc. LED, open-shell LED, HFLD
   Martin Brehm           : Molecular dynamics
   Dmytro Bykov           : pre 5.0 version of the SCF Hessian
   Marcos Casanova-Páez   : Triplet and SCS-CIS(D). UHF-(DLPNO)-IP/EA/STEOM-CCSD. UHF-CVS-IP/STEOM-CCSD
   Vijay G. Chilkuri      : MRCI spin determinant printing, contributions to CSF-ICE
   Pauline Colinet        : FMM embedding
   Dipayan Datta          : RHF DLPNO-CCSD density
   Achintya Kumar Dutta   : EOM-CC, STEOM-CC
   Nicolas Foglia         : Exact transition moments, OPA infrastructure, MCD improvements
   Dmitry Ganyushin       : Spin-Orbit,Spin-Spin,Magnetic field MRCI
   Miquel Garcia          : C-PCM and meta-GGA Hessian, CCSD/C-PCM, Gaussian charge scheme
   Tiago L. C. Gouveia    : GS-ROHF, GS-ROCIS
   Yang Guo               : DLPNO-NEVPT2, F12-NEVPT2, CIM, IAO-localization
   Andreas Hansen         : Spin unrestricted coupled pair/coupled cluster methods
   Ingolf Harden          : AUTO-CI MPn and infrastructure 
   Benjamin Helmich-Paris : MC-RPA, TRAH-(SCF,CASSCF), AVAS, COSX integrals, SCF dyn. polar.
   Lee Huntington         : MR-EOM, pCC
   Robert Izsak           : Overlap fitted RIJCOSX, COSX-SCS-MP3, EOM
   Riya Kayal             : Wick's Theorem for AUTO-CI, AUTO-CI UHF-CCSDT
   Emily Kempfer          : AUTO-CI, RHF CISDT and CCSDT
   Christian Kollmar      : KDIIS, OOCD, Brueckner-CCSD(T), CCSD density, CASPT2, CASPT2-K, improved NEVPT2
   Axel Koslowski         : Symmetry handling
   Simone Kossmann        : Meta GGA functionals, TD-DFT gradient, OOMP2, (MP2 Hessian; deprecated post 5.0)
   Lucas Lang             : DCDCAS
   Marvin Lechner         : AUTO-CI (C++ implementation), FIC-MRCC
   Spencer Leger          : CASSCF response
   Dagmar Lenk            : GEPOL surface, SMD, ORCA-2-JSON
   Dimitrios Liakos       : Extrapolation schemes; Compound Job, initial MDCI parallelization
   Dimitrios Manganas     : Further ROCIS development; embedding schemes. LFT, Crystal Embedding
   Dimitrios Pantazis     : SARC Basis sets
   Anastasios Papadopoulos: AUTO-CI, single reference methods and gradients
   Taras Petrenko         : pre 6.0 DFT Hessian and TD-DFT gradient, (ASA, deprecated), ECA, 1-Electron XAS/XES, NRVS
   Peter Pinski           : DLPNO-MP2, DLPNO-MP2 Gradient
   Christoph Reimann      : Effective Core Potentials
   Marius Retegan         : Local ZFS, SOC
   Christoph Riplinger    : Optimizer, TS searches, QM/MM, DLPNO-CCSD(T), (RO)-DLPNO pert. Triples
   Michael Roemelt        : Original ROCIS implementation
   Masaaki Saitow         : Open-shell DLPNO-CCSD energy and density
   Barbara Sandhoefer     : DKH picture change effects
   Kantharuban Sivalingam : CASSCF convergence/infrastructure, NEVPT2 and variants, FIC-MRCI
   Bernardo de Souza      : ESD, SOC TD-DFT
   Georgi Stoychev        : AutoAux, RI-MP2 NMR, DLPNO-MP2 response, X2C
   Van Anh Tran           : RI-MP2 g-tensors
   Willem Van den Heuvel  : Paramagnetic NMR
   Zikuan Wang            : NOTCH, Electric field optimization 
   Frank Wennmohs         : Technical directorship and infrastructure
   Hang Xu                : AUTO-CI-Response properties 


 We gratefully acknowledge several colleagues who have allowed us to
 interface, adapt or use parts of their codes:
   Stefan Grimme, W. Hujo, H. Kruse, P. Pracht,  : VdW corrections, initial TS optimization,
                  C. Bannwarth, S. Ehlert,         DFT functionals, gCP, sTDA/sTD-DF
                  L. Wittmann, M. Mueller
   Ed Valeev, F. Pavosevic, A. Kumar             : LibInt (2-el integral package), F12 methods
   Garnet Chan, S. Sharma, J. Yang, R. Olivares  : DMRG
   Ulf Ekstrom                                   : XCFun DFT Library
   Mihaly Kallay                                 : mrcc  (arbitrary order and MRCC methods)
   Frank Weinhold                                : gennbo (NPA and NBO analysis)
   Simon Mueller                                 : openCOSMO-RS
   Christopher J. Cramer and Donald G. Truhlar   : smd solvation model
   Lars Goerigk                                  : TD-DFT with DH, B97 family of functionals
   V. Asgeirsson, H. Jonsson                     : NEB implementation
   FAccTs GmbH                                   : IRC, NEB, NEB-TS, DLPNO-Multilevel, CI-OPT
                                                   MM, QMMM, 2- and 3-layer-ONIOM, Crystal-QMMM,
                                                   LR-CPCM, SF, NACMEs, symmetry and pop. for TD-DFT,
                                                   nearIR, NL-DFT gradient (VV10), updates on ESD,
                                                   ML-optimized integration grids, MBIS, APM,
                                                   GOAT, DOCKER, SOLVATOR, interface openCOSMO-RS
   S Lehtola, MJT Oliveira, MAL Marques          : LibXC Library
   Liviu Ungur et al                             : ANISO software


 Your calculation uses the libint2 library for the computation of 2-el integrals
 For citations please refer to: http://libint.valeyev.net

 Your ORCA version has been built with support for libXC version: 6.2.2
 For citations please refer to: https://libxc.gitlab.io

 This ORCA versions uses:
   CBLAS   interface :  Fast vector & matrix operations
   LAPACKE interface :  Fast linear algebra routines
   SCALAPACK package :  Parallel linear algebra routines
   Shared memory     :  Shared parallel matrices
   BLAS/LAPACK       :  OpenBLAS 0.3.27  USE64BITINT DYNAMIC_ARCH NO_AFFINITY SkylakeX SINGLE_THREADED
        Core in use  :  SkylakeX
   Copyright (c) 2011-2014, The OpenBLAS Project


Your calculation utilizes the geometrical counterpoise correction gCP
Please cite in your paper:
H.Kruse, S. Grimme J.Chem.Phys., 136, (2012), 154101 
   

Your calculation utilizes the atom-pairwise dispersion correction
based on EEQ partial charges (D4)


================================================================================

----- Orbital basis set information -----
Your calculation utilizes the basis: def2-SV(P)
   F. Weigend and R. Ahlrichs, Phys. Chem. Chem. Phys. 7, 3297 (2005).

----- AuxJ basis set information -----
Your calculation utilizes the auxiliary basis: def2/J
   F. Weigend, Phys. Chem. Chem. Phys. 8, 1057 (2006).

================================================================================
                                        WARNINGS
                       Please study these warnings very carefully!
================================================================================


================================================================================
                                       INPUT FILE
================================================================================
NAME = sp.inp
|  1> ! pbe def2-sv(p) def2/J RI DEFGRID1 loosescf d4 GCP(DFT/SV(P)) printgap
|  2> %output
|  3>     printlevel normal
|  4> end
|  5> * xyz 0 1
|  6> C 2.0395968017 -0.3403348592 0.5234467971
|  7> O 1.3075683342 0.1990371238 -0.5593863043
|  8> C 0.0058396022 0.642306262 -0.2312834381
|  9> C -0.9935628287 -0.4953973022 0.0615997434
| 10> N -2.3727787052 -0.0547198586 0.167035391
| 11> H 1.6258096528 -1.2972933563 0.8526504977
| 12> H 2.0559390005 0.358098409 1.3669113945
| 13> H 3.0505538824 -0.4906558285 0.1521701988
| 14> H 0.049765763 1.3315001642 0.6267207587
| 15> H -0.3249626446 1.1987286704 -1.113686139
| 16> H -0.9275478641 -1.2317127364 -0.7437472749
| 17> H -0.7318714616 -0.9885562389 1.0009842972
| 18> H -2.659538595 0.3854226295 -0.7007813124
| 19> H -2.4549161976 0.6403721566 0.9014526306
| 20> *
| 21> 
| 22>                          ****END OF INPUT****
================================================================================

                       ****************************
                       * Single Point Calculation *
                       ****************************

---------------------------------
CARTESIAN COORDINATES (ANGSTROEM)
---------------------------------
  C      2.039597   -0.340335    0.523447
  O      1.307568    0.199037   -0.559386
  C      0.005840    0.642306   -0.231283
  C     -0.993563   -0.495397    0.061600
  N     -2.372779   -0.054720    0.167035
  H      1.625810   -1.297293    0.852650
  H      2.055939    0.358098    1.366911
  H      3.050554   -0.490656    0.152170
  H      0.049766    1.331500    0.626721
  H     -0.324963    1.198729   -1.113686
  H     -0.927548   -1.231713   -0.743747
  H     -0.731871   -0.988556    1.000984
  H     -2.659539    0.385423   -0.700781
  H     -2.454916    0.640372    0.901453

----------------------------
CARTESIAN COORDINATES (A.U.)
----------------------------
  NO LB      ZA    FRAG     MASS         X           Y           Z
   0 C     6.0000    0    12.011    3.854279   -0.643140    0.989171
   1 O     8.0000    0    15.999    2.470946    0.376126   -1.057087
   2 C     6.0000    0    12.011    0.011035    1.213783   -0.437062
   3 C     6.0000    0    12.011   -1.877562   -0.936165    0.116407
   4 N     7.0000    0    14.007   -4.483902   -0.103406    0.315651
   5 H     1.0000    0     1.008    3.072335   -2.451529    1.611276
   6 H     1.0000    0     1.008    3.885162    0.676708    2.583088
   7 H     1.0000    0     1.008    5.764711   -0.927205    0.287560
   8 H     1.0000    0     1.008    0.094044    2.516171    1.184331
   9 H     1.0000    0     1.008   -0.614090    2.265269   -2.104562
  10 H     1.0000    0     1.008   -1.752811   -2.327600   -1.405479
  11 H     1.0000    0     1.008   -1.383037   -1.868101    1.891586
  12 H     1.0000    0     1.008   -5.025800    0.728343   -1.324285
  13 H     1.0000    0     1.008   -4.639119    1.210128    1.703499

--------------------------------
INTERNAL COORDINATES (ANGSTROEM)
--------------------------------
 C      0   0   0     0.000000000000     0.00000000     0.00000000
 O      1   0   0     1.413971477351     0.00000000     0.00000000
 C      2   1   0     1.413731484902   114.74425693     0.00000000
 C      3   2   1     1.542386195765   114.16809783   288.48495414
 N      4   3   2     1.451740238153   113.92075022   190.20054307
 H      1   2   3     1.093327236584   111.62508322    69.31774391
 H      1   2   3     1.095220810913   110.74683524   307.17778252
 H      1   2   3     1.087417548724   105.81726275   188.35396267
 H      3   2   1     1.101403170578   109.89338849    52.40895601
 H      3   2   1     1.094381354745   104.51386817   168.98764537
 H      4   3   2     1.093207306085   108.53003031   311.03050683
 H      4   3   2     1.092763216978   109.93494646    69.37706739
 H      5   4   3     1.014427165906   109.76327192    59.51467145
 H      5   4   3     1.014528540296   109.72255465   301.71002431

---------------------------
INTERNAL COORDINATES (A.U.)
---------------------------
 C      0   0   0     0.000000000000     0.00000000     0.00000000
 O      1   0   0     2.672018853370     0.00000000     0.00000000
 C      2   1   0     2.671565333367   114.74425693     0.00000000
 C      3   2   1     2.914687502737   114.16809783   288.48495414
 N      4   3   2     2.743391467703   113.92075022   190.20054307
 H      1   2   3     2.066089051900   111.62508322    69.31774391
 H      1   2   3     2.069667388797   110.74683524   307.17778252
 H      1   2   3     2.054921360309   105.81726275   188.35396267
 H      3   2   1     2.081350355424   109.89338849    52.40895601
 H      3   2   1     2.068081046538   104.51386817   168.98764537
 H      4   3   2     2.065862416102   108.53003031   311.03050683
 H      4   3   2     2.065023209311   109.93494646    69.37706739
 H      5   4   3     1.916989526373   109.76327192    59.51467145
 H      5   4   3     1.917181096206   109.72255465   301.71002431

---------------------
BASIS SET INFORMATION
---------------------
There are 4 groups of distinct atoms

 Group   1 Type C   : 7s4p1d contracted to 3s2p1d pattern {511/31/1}
 Group   2 Type O   : 7s4p1d contracted to 3s2p1d pattern {511/31/1}
 Group   3 Type N   : 7s4p1d contracted to 3s2p1d pattern {511/31/1}
 Group   4 Type H   : 4s contracted to 2s pattern {31}

Atom   0C    basis set group =>   1
Atom   1O    basis set group =>   2
Atom   2C    basis set group =>   1
Atom   3C    basis set group =>   1
Atom   4N    basis set group =>   3
Atom   5H    basis set group =>   4
Atom   6H    basis set group =>   4
Atom   7H    basis set group =>   4
Atom   8H    basis set group =>   4
Atom   9H    basis set group =>   4
Atom  10H    basis set group =>   4
Atom  11H    basis set group =>   4
Atom  12H    basis set group =>   4
Atom  13H    basis set group =>   4
---------------------------------
AUXILIARY/J BASIS SET INFORMATION
---------------------------------
There are 4 groups of distinct atoms

 Group   1 Type C   : 12s5p4d2f1g contracted to 6s4p3d1f1g pattern {711111/2111/211/2/1}
 Group   2 Type O   : 12s5p4d2f1g contracted to 6s4p3d1f1g pattern {711111/2111/211/2/1}
 Group   3 Type N   : 12s5p4d2f1g contracted to 6s4p3d1f1g pattern {711111/2111/211/2/1}
 Group   4 Type H   : 5s2p1d contracted to 3s1p1d pattern {311/2/1}

Atom   0C    basis set group =>   1
Atom   1O    basis set group =>   2
Atom   2C    basis set group =>   1
Atom   3C    basis set group =>   1
Atom   4N    basis set group =>   3
Atom   5H    basis set group =>   4
Atom   6H    basis set group =>   4
Atom   7H    basis set group =>   4
Atom   8H    basis set group =>   4
Atom   9H    basis set group =>   4
Atom  10H    basis set group =>   4
Atom  11H    basis set group =>   4
Atom  12H    basis set group =>   4
Atom  13H    basis set group =>   4
------------------------------------------------------------------------------
                             ORCA STARTUP CALCULATIONS
                           -- RI-GTO INTEGRALS CHOSEN --
------------------------------------------------------------------------------
------------------------------------------------------------------------------
                   ___                                                        
                  /   \      - P O W E R E D   B Y -                         
                 /     \                                                     
                 |  |  |   _    _      __       _____    __    __             
                 |  |  |  | |  | |    /  \     |  _  \  |  |  /  |          
                  \  \/   | |  | |   /    \    | | | |  |  | /  /          
                 / \  \   | |__| |  /  /\  \   | |_| |  |  |/  /          
                |  |  |   |  __  | /  /__\  \  |    /   |      \           
                |  |  |   | |  | | |   __   |  |    \   |  |\   \          
                \     /   | |  | | |  |  |  |  | |\  \  |  | \   \       
                 \___/    |_|  |_| |__|  |__|  |_| \__\ |__|  \__/        
                                                                              
                      - O R C A' S   B I G   F R I E N D -                    
                                      &                                       
                       - I N T E G R A L  F E E D E R -                       
                                                                              
 v1 FN, 2020, v2 2021, v3 2022-2024                                           
------------------------------------------------------------------------------


----------------------
SHARK INTEGRAL PACKAGE
----------------------

Number of atoms                             ...     14
Number of basis functions                   ...     88
Number of shells                            ...     48
Maximum angular momentum                    ...      2
Integral batch strategy                     ... SHARK/LIBINT Hybrid
RI-J (if used) integral strategy            ... SPLIT-RIJ (Revised 2003 algorithm where possible)
Printlevel                                  ...      1
Contraction scheme used                     ... SEGMENTED contraction
Prescreening option                         ... SCHWARTZ
   Thresh                                   ... 1.000e-09
   Tcut                                     ... 1.000e-10
   Tpresel                                  ... 1.000e-10 
Coulomb Range Separation                    ... NOT USED
Exchange Range Separation                   ... NOT USED
Multipole approximations                    ... NOT USED
Finite Nucleus Model                        ... NOT USED
CABS basis                                  ... NOT available
Auxiliary Coulomb fitting basis             ... AVAILABLE
   # of basis functions in Aux-J            ...    344
   # of shells in Aux-J                     ...    120
   Maximum angular momentum in Aux-J        ...      4
Auxiliary J/K fitting basis                 ... NOT available
Auxiliary Correlation fitting basis         ... NOT available
Auxiliary 'external' fitting basis          ... NOT available

Checking pre-screening integrals            ... done (  0.0 sec) Dimension = 48
Check shell pair data                       ... done (  0.0 sec)
Shell pair information
Shell pair cut-off parameter TPreSel        ...   1.0e-10
Total number of shell pairs                 ...      1176
Shell pairs after pre-screening             ...      1143
Total number of primitive shell pairs       ...      4748
Primitive shell pairs kept                  ...      3468
          la=0 lb=0:    540 shell pairs
          la=1 lb=0:    325 shell pairs
          la=1 lb=1:     55 shell pairs
          la=2 lb=0:    160 shell pairs
          la=2 lb=1:     49 shell pairs
          la=2 lb=2:     14 shell pairs

Calculating one electron integrals          ... done (  0.0 sec)
Calculating RI/J V-Matrix + Cholesky decomp.... done (  0.0 sec)
Calculating Nuclear repulsion               ... done (  0.0 sec) ENN=    191.322912827020 Eh

Diagonalization of the overlap matrix:
Smallest eigenvalue                        ... 2.661e-03
Time for diagonalization                   ...    0.001 sec
Threshold for overlap eigenvalues          ... 1.000e-07
Number of eigenvalues below threshold      ... 0
Time for construction of square roots      ...    0.016 sec
Total time needed                          ...    0.025 sec

-------------------
DFT GRID GENERATION
-------------------

General Integration Accuracy     IntAcc      ... 4.159
Radial Grid Type                 RadialGrid  ... OptM3 with GC (2021)
Angular Grid (max. ang.)         AngularGrid ... 3 (Lebedev-194)
Angular grid pruning method      GridPruning ... 4 (adaptive)
Weight generation scheme         WeightScheme... mBecke (2022)
Basis function cutoff            BFCut       ... 1.0000e-10
Integration weight cutoff        WCut        ... 1.0000e-14
Partially contracted basis set               ... off
Rotationally invariant grid construction     ... off
Angular grids for H and He will be reduced by one unit

Total number of grid points                  ...    29186
Total number of batches                      ...      464
Average number of points per batch           ...       62
Average number of grid points per atom       ...     2085
Initializing property integral containers    ... done (  0.0 sec)

SHARK setup successfully completed in   0.5 seconds

Maximum memory used throughout the entire STARTUP-calculation: 14.6 MB
-------------------------------------------------------------------------------
                                 ORCA GUESS
                   Start orbitals & Density for SCF / CASSCF
-------------------------------------------------------------------------------

------------
SCF SETTINGS
------------
Hamiltonian:
 Density Functional     Method          .... DFT(GTOs)
 Exchange Functional    Exchange        .... PBE
   PBE kappa parameter   XKappa         ....  0.804000
   PBE mue parameter    XMuePBE         ....  0.219520
 Correlation Functional Correlation     .... PBE
   PBE beta parameter  CBetaPBE         ....  0.066725
 LDA part of GGA corr.  LDAOpt          .... PW91-LDA
 Gradients option       PostSCFGGA      .... off
   NL short-range parameter             ....  6.400000
 RI-approximation to the Coulomb term is turned on
   Number of AuxJ basis functions       .... 344


General Settings:
 Integral files         IntName         .... sp
 Hartree-Fock type      HFTyp           .... RHF
 Total Charge           Charge          ....    0
 Multiplicity           Mult            ....    1
 Number of Electrons    NEL             ....   42
 Basis Dimension        Dim             ....   88
 Nuclear Repulsion      ENuc            ....    191.3229128270 Eh

Convergence Acceleration:
 AO-DIIS                CNVDIIS         .... on
   Start iteration      DIISMaxIt       ....    12
   Startup error        DIISStart       ....  0.200000
   # of expansion vecs  DIISMaxEq       ....     5
   Bias factor          DIISBfac        ....   1.050
   Max. coefficient     DIISMaxC        ....  10.000
 MO-DIIS                CNVKDIIS        .... off
 Trust-Rad. Augm. Hess. CNVTRAH         .... auto
   Auto Start mean grad. ratio tolernc. ....  1.125000
   Auto Start start iteration           ....    50
   Auto Start num. interpolation iter.  ....    10
   Max. Number of Micro iterations      ....    24
   Max. Number of Macro iterations      .... Maxiter - #DIIS iter
   Number of Davidson start vectors     ....     2
   Converg. threshold    (grad. norm)   ....   1.000e-04
   Grad. Scal. Fac. for Micro threshold ....   0.100
   Minimum threshold for Micro iter.    ....   1.000e-02
   NR start threshold (gradient norm)   ....   1.000e-04
   Initial trust radius                 ....   0.400
   Minimum AH scaling param. (alpha)    ....   1.000
   Maximum AH scaling param. (alpha)    .... 1000.000
   Quad. conv. algorithm                .... NR
   White noise on init. David. guess    .... on
   Maximum white noise                  ....   0.010
   Pseudo random numbers                .... off
   Inactive MOs                         .... canonical
   Orbital update algorithm             .... Taylor
   Preconditioner                       .... Diag
   Full preconditioner red. dimension   ....   250
 SOSCF                  CNVSOSCF        .... on
   Start iteration      SOSCFMaxIt      ....   150
   Startup grad/error   SOSCFStart      ....  0.003300
   Hessian update       SOSCFHessUp     .... L-BFGS
 Level Shifting         CNVShift        .... on
   Level shift para.    LevelShift      ....    0.2500
   Turn off err/grad.   ShiftErr        ....    0.0010
 Zerner damping         CNVZerner       .... off
 Static damping         CNVDamp         .... on
   Fraction old density DampFac         ....    0.7000
   Max. Damping (<1)    DampMax         ....    0.9800
   Min. Damping (>=0)   DampMin         ....    0.0000
   Turn off err/grad.   DampErr         ....    0.1000

SCF Procedure:
 Maximum # iterations   MaxIter         ....   125
 SCF integral mode      SCFMode         .... Direct
   Integral package                     .... SHARK and LIBINT hybrid scheme
 Reset frequency        DirectResetFreq ....    20
 Integral Threshold     Thresh          ....  1.000e-09 Eh
 Primitive CutOff       TCut            ....  1.000e-10 Eh

Convergence Tolerance:
 Convergence Check Mode ConvCheckMode   .... Total+1el-Energy
 Convergence forced     ConvForced      .... 0
 Energy Change          TolE            ....  1.000e-05 Eh
 1-El. energy change                    ....  1.000e-02 Eh
 Orbital Gradient       TolG            ....  1.000e-04
 Orbital Rotation angle TolX            ....  1.000e-04
 DIIS Error             TolErr          ....  5.000e-04

------------------------------
INITIAL GUESS: MODEL POTENTIAL
------------------------------
Loading Hartree-Fock densities                     ... done
Calculating cut-offs                               ... done
Initializing the effective Hamiltonian             ... done
Setting up the integral package (SHARK)            ... done
Starting the Coulomb interaction                   ... done (   0.1 sec)
Making the grid                                    ... done (   0.1 sec)
Mapping shells                                     ... done
Starting the XC term evaluation                    ... done (   0.1 sec)
  promolecular density results
     # of electrons  =     41.995610707
     EX              =    -32.683416387
     EC              =     -1.372629100
     EX+EC           =    -34.056045487
Transforming the Hamiltonian                       ... done (   0.0 sec)
Diagonalizing the Hamiltonian                      ... done (   0.0 sec)
Back transforming the eigenvectors                 ... done (   0.0 sec)
Now organizing SCF variables                       ... done
                      ------------------
                      INITIAL GUESS DONE (   0.3 sec)
                      ------------------
             **** ENERGY FILE WAS UPDATED (sp.en.tmp) ****
Finished Guess after   0.4 sec
Maximum memory used throughout the entire GUESS-calculation: 11.1 MB

-------------------------------------------------------------------------------------------
                                      ORCA LEAN-SCF
                              memory conserving SCF solver
-------------------------------------------------------------------------------------------

----------------------------------------D-I-I-S--------------------------------------------
Iteration    Energy (Eh)           Delta-E    RMSDP     MaxDP     DIISErr   Damp  Time(sec)
-------------------------------------------------------------------------------------------
               ***  Starting incremental Fock matrix formation  ***
    1    -249.0004394399085186     0.00e+00  5.96e-03  9.02e-02  2.34e-01  0.700   0.5
    2    -249.0755550859947789    -7.51e-02  4.23e-03  4.97e-02  9.46e-02  0.700   0.5
                               ***Turning on AO-DIIS***
    3    -249.1009504229662639    -2.54e-02  1.70e-03  1.45e-02  1.93e-02  0.700   0.5
    4    -249.1163966221468513    -1.54e-02  2.41e-03  2.03e-02  1.20e-02  0.000   0.4
    5    -249.1518073623003602    -3.54e-02  7.15e-04  7.37e-03  6.55e-03  0.000   0.5
                              *** Initializing SOSCF ***
---------------------------------------S-O-S-C-F--------------------------------------
Iteration    Energy (Eh)           Delta-E    RMSDP     MaxDP     MaxGrad    Time(sec)
--------------------------------------------------------------------------------------
    6    -249.1521129256526024    -3.06e-04  2.69e-04  3.15e-03  2.24e-03     0.5
               *** Restarting incremental Fock matrix formation ***
    7    -249.1521448685327300    -3.19e-05  2.15e-04  2.27e-03  3.23e-04     0.4
    8    -249.1521444735716955     3.95e-07  7.71e-05  1.01e-03  4.76e-04     0.4
                 **** Energy Check signals convergence ****

               *****************************************************
               *                     SUCCESS                       *
               *           SCF CONVERGED AFTER   8 CYCLES          *
               *****************************************************

             **** ENERGY FILE WAS UPDATED (sp.en.tmp) ****

----------------
TOTAL SCF ENERGY
----------------

Total Energy       :       -249.15214447357170 Eh           -6779.77453 eV

Components:
Nuclear Repulsion  :        191.32291282701988 Eh            5206.16113 eV
Electronic Energy  :       -440.47505730059157 Eh          -11985.93566 eV
One Electron Energy:       -716.60416806090632 Eh          -19499.79076 eV
Two Electron Energy:        276.12911076031475 Eh            7513.85510 eV

Virial components:
Potential Energy   :       -496.36797561005392 Eh          -13506.85929 eV
Kinetic Energy     :        247.21583113648225 Eh            6727.08476 eV
Virial Ratio       :          2.00783248114891

DFT components:
N(Alpha)           :       21.000054705497 electrons
N(Beta)            :       21.000054705497 electrons
N(Total)           :       42.000109410995 electrons
E(X)               :      -33.434542110131 Eh       
E(C)               :       -1.385698489356 Eh       
E(XC)              :      -34.820240599488 Eh       

---------------
SCF CONVERGENCE
---------------

  Last Energy change         ...   -3.9496e-07  Tolerance :   1.0000e-05
  Last MAX-Density change    ...    1.0081e-03  Tolerance :   1.0000e-03
  Last RMS-Density change    ...    7.7088e-05  Tolerance :   1.0000e-04
  Last DIIS Error            ...    2.2368e-03  Tolerance :   5.0000e-04
  Last Orbital Gradient      ...    4.7604e-04  Tolerance :   1.0000e-04
  Last Orbital Rotation      ...    3.2813e-04  Tolerance :   1.0000e-04


----------------
ORBITAL ENERGIES
----------------

  NO   OCC          E(Eh)            E(eV) 
   0   2.0000     -18.748053      -510.1604 
   1   2.0000     -13.967393      -380.0721 
   2   2.0000      -9.926386      -270.1107 
   3   2.0000      -9.923685      -270.0372 
   4   2.0000      -9.906218      -269.5619 
   5   2.0000      -0.928460       -25.2647 
   6   2.0000      -0.799674       -21.7602 
   7   2.0000      -0.658834       -17.9278 
   8   2.0000      -0.598029       -16.2732 
   9   2.0000      -0.533550       -14.5186 
  10   2.0000      -0.459745       -12.5103 
  11   2.0000      -0.433351       -11.7921 
  12   2.0000      -0.415927       -11.3180 
  13   2.0000      -0.411930       -11.2092 
  14   2.0000      -0.369736       -10.0610 
  15   2.0000      -0.353505        -9.6194 
  16   2.0000      -0.333009        -9.0616 
  17   2.0000      -0.309831        -8.4309 
  18   2.0000      -0.262081        -7.1316 
  19   2.0000      -0.218130        -5.9356 
  20   2.0000      -0.178599        -4.8599 
  21   0.0000       0.030088         0.8187 
  22   0.0000       0.043982         1.1968 
  23   0.0000       0.070201         1.9103 
  24   0.0000       0.076278         2.0756 
  25   0.0000       0.097669         2.6577 
  26   0.0000       0.107478         2.9246 
  27   0.0000       0.119929         3.2634 
  28   0.0000       0.128743         3.5033 
  29   0.0000       0.141911         3.8616 
  30   0.0000       0.147160         4.0044 
  31   0.0000       0.203224         5.5300 
*Only the first 10 virtual orbitals were printed.

                    ********************************
                    * MULLIKEN POPULATION ANALYSIS *
                    ********************************

-----------------------
MULLIKEN ATOMIC CHARGES
-----------------------
   0 C :   -0.107635
   1 O :   -0.336487
   2 C :   -0.011954
   3 C :   -0.119656
   4 N :   -0.443948
   5 H :    0.097679
   6 H :    0.081500
   7 H :    0.114948
   8 H :    0.056125
   9 H :    0.077879
  10 H :    0.095803
  11 H :    0.092944
  12 H :    0.202266
  13 H :    0.200536
Sum of atomic charges:   -0.0000000

--------------------------------
MULLIKEN REDUCED ORBITAL CHARGES
--------------------------------
  0 C s       :     3.117616  s :     3.117616
      pz      :     0.893591  p :     2.934241
      px      :     1.008084
      py      :     1.032566
      dz2     :     0.011365  d :     0.055778
      dxz     :     0.011216
      dyz     :     0.016010
      dx2y2   :     0.011081
      dxy     :     0.006106

  1 O s       :     3.774016  s :     3.774016
      pz      :     1.523664  p :     4.546730
      px      :     1.308690
      py      :     1.714376
      dz2     :     0.003563  d :     0.015741
      dxz     :     0.004410
      dyz     :     0.002785
      dx2y2   :     0.002759
      dxy     :     0.002223

  2 C s       :     3.072517  s :     3.072517
      pz      :     1.039359  p :     2.877229
      px      :     0.800519
      py      :     1.037351
      dz2     :     0.007807  d :     0.062208
      dxz     :     0.010910
      dyz     :     0.013313
      dx2y2   :     0.014730
      dxy     :     0.015448

  3 C s       :     3.065215  s :     3.065215
      pz      :     1.093704  p :     3.004131
      px      :     0.871749
      py      :     1.038678
      dz2     :     0.007277  d :     0.050310
      dxz     :     0.006937
      dyz     :     0.011188
      dx2y2   :     0.011494
      dxy     :     0.013414

  4 N s       :     3.497885  s :     3.497885
      pz      :     1.122208  p :     3.922418
      px      :     1.335153
      py      :     1.465057
      dz2     :     0.002625  d :     0.023645
      dxz     :     0.002610
      dyz     :     0.009865
      dx2y2   :     0.006241
      dxy     :     0.002303

  5 H s       :     0.902321  s :     0.902321

  6 H s       :     0.918500  s :     0.918500

  7 H s       :     0.885052  s :     0.885052

  8 H s       :     0.943875  s :     0.943875

  9 H s       :     0.922121  s :     0.922121

 10 H s       :     0.904197  s :     0.904197

 11 H s       :     0.907056  s :     0.907056

 12 H s       :     0.797734  s :     0.797734

 13 H s       :     0.799464  s :     0.799464


------------------------
MULLIKEN OVERLAP CHARGES
------------------------
B(  0-C ,  1-O ) :   0.6592 B(  0-C ,  2-C ) :  -0.1189 B(  0-C ,  5-H ) :   0.7375 
B(  0-C ,  6-H ) :   0.7311 B(  0-C ,  7-H ) :   0.7727 B(  1-O ,  2-C ) :   0.6056 
B(  1-O ,  3-C ) :  -0.1083 B(  1-O ,  5-H ) :  -0.0808 B(  1-O ,  6-H ) :  -0.0697 
B(  1-O ,  7-H ) :  -0.0562 B(  1-O ,  8-H ) :  -0.0563 B(  2-C ,  3-C ) :   0.7849 
B(  2-C ,  4-N ) :  -0.1122 B(  2-C ,  8-H ) :   0.6652 B(  2-C ,  9-H ) :   0.6816 
B(  2-C , 10-H ) :  -0.0582 B(  2-C , 11-H ) :  -0.0707 B(  3-C ,  4-N ) :   0.7679 
B(  3-C ,  8-H ) :  -0.1261 B(  3-C ,  9-H ) :  -0.0691 B(  3-C , 10-H ) :   0.6518 
B(  3-C , 11-H ) :   0.7016 B(  3-C , 12-H ) :  -0.1082 B(  3-C , 13-H ) :  -0.1129 
B(  4-N , 12-H ) :   0.6726 B(  4-N , 13-H ) :   0.6723 B(  5-H ,  6-H ) :  -0.1030 
B(  5-H ,  7-H ) :  -0.0615 B(  8-H ,  9-H ) :  -0.0697 B( 10-H , 11-H ) :  -0.0609 
B( 12-H , 13-H ) :  -0.0695 


                     *******************************
                     * LOEWDIN POPULATION ANALYSIS *
                     *******************************

----------------------
LOEWDIN ATOMIC CHARGES
----------------------
   0 C :   -0.207924
   1 O :   -0.182674
   2 C :   -0.141708
   3 C :   -0.204749
   4 N :   -0.400170
   5 H :    0.097577
   6 H :    0.096204
   7 H :    0.116206
   8 H :    0.088015
   9 H :    0.105651
  10 H :    0.116364
  11 H :    0.111659
  12 H :    0.203202
  13 H :    0.202345

-------------------------------
LOEWDIN REDUCED ORBITAL CHARGES
-------------------------------
  0 C s       :     2.961746  s :     2.961746
      pz      :     0.975557  p :     3.123835
      px      :     1.054686
      py      :     1.093593
      dz2     :     0.024193  d :     0.122342
      dxz     :     0.023955
      dyz     :     0.036960
      dx2y2   :     0.024912
      dxy     :     0.012322

  1 O s       :     3.475757  s :     3.475757
      pz      :     1.578837  p :     4.677072
      px      :     1.363809
      py      :     1.734425
      dz2     :     0.006105  d :     0.029846
      dxz     :     0.008704
      dyz     :     0.004560
      dx2y2   :     0.005775
      dxy     :     0.004702

  2 C s       :     2.938856  s :     2.938856
      pz      :     1.103603  p :     3.061643
      px      :     0.886717
      py      :     1.071322
      dz2     :     0.018239  d :     0.141209
      dxz     :     0.022195
      dyz     :     0.031336
      dx2y2   :     0.030845
      dxy     :     0.038595

  3 C s       :     2.916755  s :     2.916755
      pz      :     1.121927  p :     3.171284
      px      :     0.965427
      py      :     1.083930
      dz2     :     0.017488  d :     0.116709
      dxz     :     0.012752
      dyz     :     0.025817
      dx2y2   :     0.025932
      dxy     :     0.034721

  4 N s       :     3.253187  s :     3.253187
      pz      :     1.211167  p :     4.099471
      px      :     1.378183
      py      :     1.510121
      dz2     :     0.007012  d :     0.047512
      dxz     :     0.005726
      dyz     :     0.018567
      dx2y2   :     0.011831
      dxy     :     0.004376

  5 H s       :     0.902423  s :     0.902423

  6 H s       :     0.903796  s :     0.903796

  7 H s       :     0.883794  s :     0.883794

  8 H s       :     0.911985  s :     0.911985

  9 H s       :     0.894349  s :     0.894349

 10 H s       :     0.883636  s :     0.883636

 11 H s       :     0.888341  s :     0.888341

 12 H s       :     0.796798  s :     0.796798

 13 H s       :     0.797655  s :     0.797655


---------------------------------
LOEWDIN BOND ORDERS (THRESH 0.050000)
---------------------------------
B(  0-C ,  1-O ) :   1.1958 B(  0-C ,  2-C ) :   0.0666 B(  0-C ,  5-H ) :   0.9438 
B(  0-C ,  6-H ) :   0.9398 B(  0-C ,  7-H ) :   0.9525 B(  1-O ,  2-C ) :   1.1872 
B(  1-O ,  3-C ) :   0.0710 B(  2-C ,  3-C ) :   1.0853 B(  2-C ,  4-N ) :   0.1000 
B(  2-C ,  8-H ) :   0.9043 B(  2-C ,  9-H ) :   0.9155 B(  3-C ,  4-N ) :   1.2177 
B(  3-C , 10-H ) :   0.9106 B(  3-C , 11-H ) :   0.9112 B(  4-N , 12-H ) :   0.9206 
B(  4-N , 13-H ) :   0.9213 

------------------------------------------
LOEWDIN REDUCED ORBITAL POPULATIONS PER MO
-------------------------------------------
THRESHOLD FOR PRINTING IS 0.1%%
                      0         1         2         3         4         5   
                 -18.74805 -13.96739  -9.92639  -9.92368  -9.90622  -0.92846
                   2.00000   2.00000   2.00000   2.00000   2.00000   2.00000
                  --------  --------  --------  --------  --------  --------
 0 C  s               0.0       0.0       0.0      99.7       0.0       8.7
 0 C  pz              0.0       0.0       0.0       0.0       0.0       4.1
 0 C  px              0.0       0.0       0.0       0.0       0.0       2.5
 0 C  py              0.0       0.0       0.0       0.0       0.0       1.2
 0 C  dxz             0.0       0.0       0.0       0.0       0.0       0.4
 0 C  dyz             0.0       0.0       0.0       0.0       0.0       0.2
 0 C  dxy             0.0       0.0       0.0       0.0       0.0       0.1
 1 O  s              99.9       0.0       0.0       0.0       0.0      54.6
 1 O  pz              0.0       0.0       0.0       0.1       0.0       2.6
 1 O  px              0.0       0.0       0.1       0.0       0.0       0.4
 2 C  s               0.0       0.0      99.6       0.0       0.0       9.2
 2 C  pz              0.0       0.0       0.0       0.0       0.0       0.2
 2 C  px              0.0       0.0       0.0       0.0       0.0       6.5
 2 C  py              0.0       0.0       0.0       0.0       0.1       1.0
 2 C  dz2             0.0       0.0       0.0       0.0       0.0       0.2
 2 C  dx2y2           0.0       0.0       0.0       0.0       0.0       0.3
 2 C  dxy             0.0       0.0       0.0       0.0       0.0       0.2
 3 C  s               0.0       0.0       0.0       0.0      99.6       0.7
 3 C  px              0.0       0.1       0.0       0.0       0.0       0.5
 3 C  py              0.0       0.0       0.1       0.0       0.0       0.3
 4 N  s               0.0      99.8       0.0       0.0       0.0       0.1
 4 N  px              0.0       0.0       0.0       0.0       0.1       0.0
 5 H  s               0.0       0.0       0.0       0.1       0.0       1.0
 6 H  s               0.0       0.0       0.0       0.1       0.0       1.0
 7 H  s               0.0       0.0       0.0       0.1       0.0       1.0
 8 H  s               0.0       0.0       0.1       0.0       0.0       1.1
 9 H  s               0.0       0.0       0.1       0.0       0.0       1.1
10 H  s               0.0       0.0       0.0       0.0       0.1       0.1
11 H  s               0.0       0.0       0.0       0.0       0.1       0.1

                      6         7         8         9        10        11   
                  -0.79967  -0.65883  -0.59803  -0.53355  -0.45974  -0.43335
                   2.00000   2.00000   2.00000   2.00000   2.00000   2.00000
                  --------  --------  --------  --------  --------  --------
 0 C  s               0.2      16.3      15.7       5.4       0.4       0.5
 0 C  pz              0.1       0.3       1.8       5.4       0.1      17.8
 0 C  px              0.0       0.3       0.5       1.0       1.5       1.7
 0 C  py              0.0       0.0       0.6       0.2       0.9       3.5
 0 C  dz2             0.0       0.0       0.0       0.1       0.0       0.2
 0 C  dxz             0.0       0.0       0.1       0.2       0.0       0.0
 0 C  dyz             0.0       0.0       0.0       0.1       0.0       0.1
 1 O  s               0.5       0.2       5.6       4.3       0.0       0.3
 1 O  pz              0.0       1.7       1.9       0.6       2.3       0.2
 1 O  px              0.2      13.4       1.7       1.6       0.3      26.2
 1 O  py              0.0       2.8       1.4       1.5       0.0       0.8
 1 O  dxz             0.0       0.1       0.0       0.0       0.0       0.1
 2 C  s               1.6      20.8       1.2      10.7       0.0       0.9
 2 C  pz              0.1       0.1       1.9       0.1      11.3       0.8
 2 C  px              2.3       0.5       5.8       0.2       0.2      10.9
 2 C  py              0.4       0.0       1.3       8.3       0.2       6.7
 2 C  dz2             0.0       0.0       0.0       0.2       0.0       0.1
 2 C  dxz             0.0       0.0       0.0       0.0       0.0       0.1
 2 C  dx2y2           0.0       0.0       0.2       0.0       0.0       0.1
 2 C  dxy             0.1       0.0       0.2       0.0       0.0       0.1
 3 C  s              15.5       5.3      14.3       8.3       0.0       0.0
 3 C  pz              0.0       0.3       0.0       0.1      19.9       0.3
 3 C  px              5.4       5.0       2.3       0.5       0.3       0.8
 3 C  py              1.4       0.6       0.3       8.0       0.5       4.9
 3 C  dz2             0.1       0.0       0.0       0.1       0.0       0.0
 3 C  dx2y2           0.2       0.0       0.1       0.0       0.0       0.0
 3 C  dxy             0.1       0.2       0.0       0.1       0.0       0.0
 4 N  s              44.6       4.8       4.3       0.2       0.0       0.4
 4 N  pz              0.1       0.0       0.0       0.0      29.5       0.9
 4 N  px              2.1       1.0       4.2       3.3       0.4       2.2
 4 N  py              0.8       0.7       2.8       4.6       0.8       0.1
 4 N  dyz             0.0       0.0       0.0       0.0       0.3       0.0
 5 H  s               0.0       3.1       6.1       2.4       0.4       6.7
 6 H  s               0.0       3.0       5.2       4.6       0.0       2.8
 7 H  s               0.0       4.5       5.0       2.1       1.1       0.8
 8 H  s               0.3       3.9       0.6       7.8       2.9       3.6
 9 H  s               0.4       5.3       0.1       6.2       2.3       2.5
10 H  s               2.1       1.3       4.1       5.2       3.9       0.4
11 H  s               2.2       1.1       5.4       4.3       3.7       1.2
12 H  s               9.6       1.6       2.6       1.1       8.1       0.0
13 H  s               9.6       1.6       2.4       1.3       8.3       1.0

                     12        13        14        15        16        17   
                  -0.41593  -0.41193  -0.36974  -0.35351  -0.33301  -0.30983
                   2.00000   2.00000   2.00000   2.00000   2.00000   2.00000
                  --------  --------  --------  --------  --------  --------
 0 C  s               0.4       0.1       0.0       0.1       0.1       0.0
 0 C  pz              1.2       5.2       0.0       4.1       0.0       2.3
 0 C  px             11.5       3.5      10.2       6.1      10.6       2.6
 0 C  py              5.3      12.5      17.1       8.7       0.1       1.6
 0 C  dz2             0.0       0.0       0.0       0.1       0.0       0.2
 0 C  dxz             0.1       0.0       0.0       0.1       0.0       0.0
 0 C  dyz             0.0       0.1       0.1       0.1       0.1       0.0
 0 C  dx2y2           0.0       0.0       0.1       0.1       0.2       0.1
 1 O  s               1.1       0.1       0.0       0.0       0.2       0.8
 1 O  pz             16.0       0.0       0.1       2.1       1.1       4.2
 1 O  px              0.1       0.1       0.8       0.0       4.9       2.7
 1 O  py              0.0      17.2       1.9       1.1       0.0       0.0
 1 O  dz2             0.1       0.0       0.0       0.1       0.0       0.0
 2 C  s               0.0       0.3       0.0       0.1       0.2       0.2
 2 C  pz             17.5       0.2       0.0       4.8       4.0       6.8
 2 C  px              0.4       5.5       0.1       4.4       0.2       3.4
 2 C  py              0.1       7.4       3.1       5.2      15.5       0.0
 2 C  dz2             0.0       0.0       0.0       0.1       0.1       0.1
 2 C  dxz             0.1       0.0       0.0       0.0       0.3       0.0
 2 C  dyz             0.1       0.0       0.0       0.1       0.0       0.6
 2 C  dx2y2           0.0       0.2       0.0       0.1       0.2       0.0
 3 C  s               0.0       0.1       0.5       0.1       0.2       0.0
 3 C  pz              0.2       0.5       0.7       8.8       2.1      20.7
 3 C  px              0.5      14.2      14.1       0.3       0.0       1.1
 3 C  py              0.0       2.4       2.8       8.7      19.5       0.7
 3 C  dz2             0.0       0.0       0.1       0.1       0.2       0.1
 3 C  dxz             0.2       0.0       0.0       0.2       0.0       0.1
 3 C  dyz             0.0       0.0       0.0       0.0       0.1       0.9
 3 C  dx2y2           0.0       0.1       0.3       0.0       0.2       0.0
 4 N  s               0.0       0.2       0.3       0.1       0.0       0.2
 4 N  pz             15.6       0.0       0.5       3.9       3.1       4.0
 4 N  px              1.5       5.4      11.7       5.3       5.0       0.2
 4 N  py              0.0       9.6       7.7       0.5       0.1       0.3
 4 N  dxz             0.0       0.0       0.0       0.1       0.0       0.1
 4 N  dyz             0.2       0.0       0.0       0.1       0.1       0.2
 4 N  dx2y2           0.0       0.1       0.1       0.0       0.1       0.0
 5 H  s               0.5       3.2      11.1       0.9       1.7       0.1
 6 H  s               1.1       7.7       3.4       6.5       0.0       2.6
 7 H  s               7.4       0.2       2.9       6.4       5.9       3.6
 8 H  s               3.8       0.5       0.5       6.0       0.8       4.2
 9 H  s               5.0       0.1       0.2       0.5       9.4       5.8
10 H  s               0.0       0.0       3.6       0.0       9.9      10.3
11 H  s               0.0       0.1       1.1       8.9       0.6      13.4
12 H  s               6.3       1.1       1.0       3.9       0.3       3.4
13 H  s               3.6       1.8       3.4       1.1       2.5       2.0

                     18        19        20        21        22        23   
                  -0.26208  -0.21813  -0.17860   0.03009   0.04398   0.07020
                   2.00000   2.00000   2.00000   0.00000   0.00000   0.00000
                  --------  --------  --------  --------  --------  --------
 0 C  s               0.5       0.0       0.0       1.2       9.7       0.3
 0 C  pz              6.3       0.2       0.0       0.2       7.4       1.2
 0 C  px              0.5       0.2       0.2       0.0       1.8       2.3
 0 C  py              0.7       1.8       0.4       0.0       1.2       0.4
 0 C  dz2             0.2       0.3       0.0       0.0       0.1       0.0
 0 C  dxz             0.0       0.1       0.1       0.0       0.4       0.3
 0 C  dyz             0.0       0.7       0.3       0.0       0.1       0.2
 0 C  dx2y2           0.4       0.2       0.2       0.0       0.0       0.0
 0 C  dxy             0.2       0.0       0.0       0.0       0.1       0.0
 1 O  s               6.1       0.0       0.0       0.3       3.5       2.5
 1 O  pz             39.7       6.4       0.0       0.4       0.5       1.1
 1 O  px              6.4       3.2       6.0       0.3       0.3       0.6
 1 O  py              0.8      43.1      16.1       0.4       0.0       0.1
 2 C  s               0.7       0.4       1.2       4.2       0.7       2.6
 2 C  pz              7.0       0.3       0.1       0.0       2.1       3.9
 2 C  px              1.1       0.3       2.3       0.6       3.3       7.3
 2 C  py              0.2       0.1       3.9       3.2       1.2       2.3
 2 C  dz2             0.0       0.2       0.0       0.0       0.1       0.4
 2 C  dxz             0.3       0.0       0.0       0.0       0.2       0.0
 2 C  dyz             0.5       0.2       0.1       0.0       0.0       0.6
 2 C  dx2y2           0.0       0.5       0.0       0.3       0.2       0.3
 2 C  dxy             0.2       0.4       0.5       0.1       0.3       0.2
 3 C  s               0.1       0.8       0.2       3.1       1.0       0.2
 3 C  pz              2.1       0.1       0.4       0.1       1.7       4.1
 3 C  px              0.1       0.3       2.6       1.8       1.5       1.8
 3 C  py              0.3       0.5       3.1       1.7       0.5       0.0
 3 C  dz2             0.0       0.0       0.1       0.4       0.0       0.0
 3 C  dyz             0.2       0.0       0.0       0.0       0.1       0.6
 3 C  dx2y2           0.1       0.1       0.1       0.0       0.5       0.5
 3 C  dxy             0.0       0.2       0.8       0.3       0.4       0.1
 4 N  s               0.4       2.6       4.6      11.8       4.6       0.5
 4 N  pz              0.1       0.8       2.1       0.1       0.3       4.6
 4 N  px              0.5       6.9      19.1       0.1       0.3       1.0
 4 N  py              2.4      17.0      28.3       5.5       0.4       0.0
 4 N  dz2             0.0       0.0       0.0       0.1       0.0       0.0
 4 N  dxz             0.0       0.0       0.0       0.0       0.0       0.1
 5 H  s               2.2       4.0       1.7       0.7      11.5       2.4
 6 H  s               2.3       4.2       0.7       1.3      13.9       0.1
 7 H  s               3.0       0.0       0.2       0.8       6.1       0.7
 8 H  s               5.4       2.9       1.3       7.6       6.3       0.1
 9 H  s               5.5       0.1       0.3       5.2       0.0      26.1
10 H  s               1.9       0.2       0.9       2.7       0.3       2.6
11 H  s               1.1       0.2       1.0       5.3       6.1      11.2
12 H  s               0.0       0.2       0.6      18.6       7.9       7.0
13 H  s               0.3       0.3       0.5      21.3       3.1       9.3

                     24        25        26        27        28        29   
                   0.07628   0.09767   0.10748   0.11993   0.12874   0.14191
                   0.00000   0.00000   0.00000   0.00000   0.00000   0.00000
                  --------  --------  --------  --------  --------  --------
 0 C  s               3.6      13.6       0.6       0.4       0.2       0.8
 0 C  pz              1.9       3.2       5.2       5.6       6.1       1.4
 0 C  px              0.5       4.1      11.9      12.1       0.9       0.7
 0 C  py              3.3       3.4       5.4       2.0       5.6       1.5
 0 C  dz2             0.0       0.2       0.2       0.0       0.1       0.0
 0 C  dxz             0.1       0.5       1.1       1.0       0.4       0.0
 0 C  dyz             0.2       0.1       0.0       0.9       0.2       0.0
 0 C  dx2y2           0.1       0.1       0.7       0.0       0.3       0.3
 0 C  dxy             0.0       0.4       0.0       0.0       0.8       0.1
 1 O  s               1.2       3.3       0.8       2.1       3.6       0.1
 1 O  pz              0.4       2.0       2.7       1.2       2.7       0.1
 1 O  px              0.1       0.2       0.0       0.3       0.2       0.1
 1 O  py              0.3       0.2       0.0       1.1       0.3       0.0
 1 O  dz2             0.0       0.0       0.3       0.0       0.1       0.0
 1 O  dxz             0.1       0.3       0.0       0.1       0.0       0.0
 1 O  dyz             0.1       0.0       0.0       0.1       0.0       0.0
 1 O  dx2y2           0.0       0.1       0.0       0.0       0.2       0.0
 1 O  dxy             0.1       0.0       0.0       0.2       0.1       0.0
 2 C  s               1.6       0.0       0.2       3.2       6.1       0.0
 2 C  pz              4.4       0.8       1.2       4.0       0.1       0.1
 2 C  px              1.9       2.0       0.2       0.7       2.8       0.0
 2 C  py              2.0       0.8       0.2       2.0       0.4       0.4
 2 C  dz2             0.0       0.4       0.1       0.0       0.0       0.0
 2 C  dxz             0.0       0.0       0.1       0.1       0.1       0.4
 2 C  dyz             0.0       0.1       0.0       0.0       0.0       0.5
 2 C  dx2y2           0.3       0.0       0.1       0.1       0.6       0.1
 2 C  dxy             0.5       0.1       0.0       0.1       0.2       0.0
 3 C  s               5.9       5.8       0.1       0.2       1.1       0.3
 3 C  pz              0.8       0.0       1.4       2.5       1.2      11.4
 3 C  px              0.6       0.0       0.4       1.1       1.2       3.0
 3 C  py              2.5       3.2       0.4       1.5       2.6       0.3
 3 C  dz2             0.0       0.1       0.1       0.2       0.3       0.6
 3 C  dxz             0.0       0.0       0.2       0.1       0.1       0.1
 3 C  dyz             0.2       0.0       0.0       0.0       0.1       0.5
 3 C  dx2y2           0.2       0.1       0.1       0.3       0.3       0.1
 3 C  dxy             0.0       0.0       0.0       0.1       0.0       0.0
 4 N  s               0.1       0.5       0.0       1.6       1.8       0.0
 4 N  pz              2.2       0.3       3.0       0.1       2.1       8.9
 4 N  px              0.1       0.2       0.1       0.2       3.5       0.2
 4 N  py              0.3       0.1       0.3       0.1       1.0       1.7
 4 N  dxz             0.0       0.0       0.1       0.1       0.0       0.2
 4 N  dyz             0.0       0.0       0.1       0.0       0.0       0.1
 4 N  dxy             0.1       0.1       0.0       0.0       0.1       0.0
 5 H  s              10.8       0.1       0.5      11.0      10.9       7.4
 6 H  s               1.0       9.9      21.5       3.8       0.2       0.4
 7 H  s               3.6      21.4      24.7       7.0       1.7       0.7
 8 H  s              17.3       1.3       1.2       0.3       6.3       1.1
 9 H  s               0.0       0.2       2.0      20.8       3.6       0.3
10 H  s              19.4      12.0       2.2       8.8      10.2       9.0
11 H  s               3.7       7.0       1.2       0.5       0.4      23.0
12 H  s               1.6       1.7       3.5       1.8      18.3       6.3
13 H  s               6.8       0.0       5.9       0.1       0.9      17.8

                     30        31        32        33        34        35   
                   0.14716   0.20322   0.21773   0.23641   0.39752   0.41687
                   0.00000   0.00000   0.00000   0.00000   0.00000   0.00000
                  --------  --------  --------  --------  --------  --------
 0 C  s               0.1       0.5       0.0       0.3       0.2       2.4
 0 C  pz              1.5      14.6       0.1       0.2      16.6       6.4
 0 C  px              0.4       2.6       0.1       1.5       4.6       7.8
 0 C  py              6.5       1.8       0.2       2.3       1.2       0.9
 0 C  dz2             0.3       1.2       0.0       0.0       0.3       0.2
 0 C  dxz             0.0       1.2       0.1       0.0       0.7       0.1
 0 C  dyz             0.3       1.5       0.1       0.1       0.4       0.3
 0 C  dx2y2           0.0       0.1       0.0       0.2       2.8       0.1
 0 C  dxy             0.1       0.4       0.0       0.0       0.3       0.1
 1 O  s               0.5       0.1       0.2       1.1       0.2       0.0
 1 O  pz              0.2       1.6       0.0       0.2       1.8       0.2
 1 O  px              1.9      16.7       2.5       0.2       0.2       3.0
 1 O  py              0.1       3.7       1.8       2.0       0.3       0.7
 1 O  dz2             0.0       0.3       0.0       0.0       0.4       0.3
 1 O  dxz             0.3       0.3       0.0       0.0       0.1       1.0
 1 O  dyz             0.0       0.1       0.0       0.0       0.1       0.2
 1 O  dx2y2           0.0       0.2       0.5       0.2       0.0       0.0
 1 O  dxy             0.2       0.0       0.1       0.1       0.0       0.0
 2 C  s               3.3       1.7       7.1       0.8       1.4       0.9
 2 C  pz              8.2       4.5       0.4       0.3       4.3       5.2
 2 C  px              5.5      16.2       6.6       4.4       0.3       2.7
 2 C  py              0.5       1.1      21.0       5.1      10.7       6.5
 2 C  dz2             0.2       0.5       2.4       1.5       1.8       0.4
 2 C  dxz             0.3       0.8       0.6       0.1       0.0       0.1
 2 C  dyz             0.6       0.0       0.2       0.1       1.3       3.8
 2 C  dx2y2           0.0       2.1       0.0       0.1       0.1       0.0
 2 C  dxy             0.2       1.5       2.7       0.5       0.5       0.0
 3 C  s               0.5       0.3       8.8       5.2       0.0       2.0
 3 C  pz              1.5       0.3       1.5       1.0       2.6       3.8
 3 C  px              0.8       2.2       3.5      29.1       1.1       8.2
 3 C  py              0.4       0.8      22.5       1.9       8.9       7.6
 3 C  dz2             0.0       0.1       3.2       2.1       0.2       1.1
 3 C  dxz             0.6       0.2       0.5       0.0       0.0       0.0
 3 C  dyz             0.0       0.0       0.4       0.0       3.7       1.1
 3 C  dx2y2           0.0       1.4       0.0       1.5       0.0       0.3
 3 C  dxy             0.2       0.2       2.1       3.4       0.1       0.1
 4 N  s               0.5       0.3       0.3       5.1       0.1       0.5
 4 N  pz              3.2       0.1       0.1       0.1       0.1       0.2
 4 N  px              0.1       3.7       2.9      10.5       0.0       2.5
 4 N  py              0.0       0.5       0.5       5.5       0.1       1.7
 4 N  dz2             0.0       0.3       0.0       0.6       0.0       1.0
 4 N  dxz             0.2       0.1       0.1       0.0       0.2       0.0
 4 N  dyz             0.1       0.0       0.0       0.0       0.1       0.2
 4 N  dx2y2           0.0       0.0       1.2       0.8       0.1       0.7
 4 N  dxy             0.0       0.0       0.1       1.3       0.0       0.3
 5 H  s               5.1       0.9       0.3       4.3       1.2       0.4
 6 H  s              11.4       2.9       0.4       0.9       5.2       1.7
 7 H  s               1.8       1.4       0.0       0.6       7.2       0.6
 8 H  s              22.5       1.6       1.1       0.6       0.6      10.2
 9 H  s               5.1       4.3       1.0       0.6       6.9       3.2
10 H  s               0.0       1.7       0.9       0.1       7.0       1.1
11 H  s               5.9       0.0       1.1       1.7       2.9       6.2
12 H  s               3.3       1.1       0.3       1.3       0.6       0.1
13 H  s               5.9       0.6       0.3       0.3       0.3       2.5

                     36        37        38        39        40        41   
                   0.43603   0.44025   0.45347   0.47928   0.49603   0.55940
                   0.00000   0.00000   0.00000   0.00000   0.00000   0.00000
                  --------  --------  --------  --------  --------  --------
 0 C  s               2.2       6.3       0.6       0.9       0.4       0.3
 0 C  pz              4.0       8.7      10.6       2.7       5.0       3.1
 0 C  px              3.1      10.9       0.8       2.2       0.2       0.1
 0 C  py             33.4       2.8      11.1       2.1       0.7       0.2
 0 C  dz2             1.1       0.1       0.9       0.0       0.0       0.2
 0 C  dxz             0.0       0.1       0.1       0.0       0.3       0.0
 0 C  dyz             2.4       0.0       2.4       0.8       0.1       0.0
 0 C  dx2y2           0.7       0.1       1.7       0.4       0.0       0.1
 0 C  dxy             3.1       0.0       0.1       1.3       0.1       0.0
 1 O  s               0.2       0.4       0.1       0.4       0.1       0.9
 1 O  pz              0.4       2.0       0.4       0.8       4.9       0.3
 1 O  px              0.7       0.5       0.5       1.6       0.3       0.4
 1 O  py              4.1       0.1       0.6       0.5       1.3       0.0
 1 O  dz2             0.0       0.0       0.2       0.1       0.0       0.0
 1 O  dxz             0.1       0.5       0.2       0.0       0.1       0.0
 1 O  dyz             0.3       0.3       0.0       0.0       0.0       0.0
 1 O  dx2y2           0.0       0.0       0.0       1.1       0.2       0.0
 1 O  dxy             0.2       0.5       0.1       0.1       0.4       0.0
 2 C  s               0.4       1.5       1.9       0.7       3.4       4.3
 2 C  pz              0.3       0.2       0.8       0.7       9.3       0.6
 2 C  px              0.7       0.3       6.5      41.4       7.1       5.4
 2 C  py              0.4       7.9       2.8       1.4       5.5      11.5
 2 C  dz2             0.0       0.3       0.3       0.1       0.5       0.7
 2 C  dxz             0.0       1.6       0.0       0.0       0.0       0.1
 2 C  dyz             0.2       0.1       0.1       1.0       1.5       0.2
 2 C  dx2y2           0.0       0.2       0.3       0.0       0.1       0.0
 2 C  dxy             0.2       0.6       0.3       0.4       0.0       0.2
 3 C  s               2.4       0.2       5.6       1.5       1.5       6.0
 3 C  pz              0.8       6.2       0.6       0.3       0.2       1.1
 3 C  px              1.1       8.2       4.5       7.0       8.4      25.8
 3 C  py              2.0       3.5      14.6       0.9       0.0       8.3
 3 C  dz2             0.1       0.9       1.7       0.2       0.0       0.4
 3 C  dxz             0.1       1.3       0.0       0.0       2.3       0.0
 3 C  dyz             1.0       1.7       1.0       0.0       0.1       0.0
 3 C  dx2y2           0.1       0.2       0.0       0.0       0.0       0.1
 3 C  dxy             0.0       0.4       0.0       1.9       0.2       0.0
 4 N  s               0.0       0.0       0.3       1.4       0.1       0.1
 4 N  pz              0.5       2.1       0.3       0.2       6.4       0.3
 4 N  px              1.1       1.1       2.1       1.8       1.1       1.5
 4 N  py              0.4       0.1       1.0       2.5       0.9       2.1
 4 N  dz2             0.6       0.2       1.0       1.0       0.0       0.2
 4 N  dxz             0.3       0.7       0.2       0.1       0.4       0.0
 4 N  dyz             0.2       1.6       0.1       0.4       4.0       0.0
 4 N  dx2y2           0.1       0.1       0.1       0.8       0.9       0.1
 4 N  dxy             0.1       0.0       0.4       0.1       0.4       0.0
 5 H  s              17.1       0.2       0.5       2.6       0.3       0.7
 6 H  s               3.3       0.1      11.1       0.4       0.4       0.1
 7 H  s               0.6       1.5       2.9       3.0       0.1       0.0
 8 H  s               1.4       0.6       0.5       2.0       5.7       4.5
 9 H  s               0.8       1.5       0.4       0.4       0.0       9.6
10 H  s               3.9       3.3       4.9       0.5       0.2       3.2
11 H  s               0.7       7.9       0.2       0.5       2.0       5.2
12 H  s               2.9       6.7       2.1       2.1       8.5       1.6
13 H  s               0.1       3.4       0.2       7.6      14.3       0.1

                     42        43        44        45        46        47   
                   0.59104   0.59684   0.62840   0.63333   0.64023   0.64824
                   0.00000   0.00000   0.00000   0.00000   0.00000   0.00000
                  --------  --------  --------  --------  --------  --------
 0 C  s               6.6      18.2       1.8       5.6       2.0      18.0
 0 C  pz              1.2       2.2       2.4       2.0      15.6       0.7
 0 C  px              4.2       4.9       1.0       2.6      16.5       4.8
 0 C  py              0.2       0.2       9.7       6.5       7.1       0.2
 0 C  dz2             0.0       0.0       0.2       0.3       0.1       0.0
 0 C  dxz             1.3       0.8       0.0       0.1       0.1       0.0
 0 C  dyz             0.0       0.1       1.5       0.2       0.1       0.0
 0 C  dx2y2           1.6       0.2       0.0       0.1       1.1       0.0
 0 C  dxy             0.1       0.0       0.1       0.1       0.7       0.1
 1 O  s               0.1       3.2       1.2       0.7       1.0       0.0
 1 O  pz              0.1       0.0       0.2       0.0       0.2       0.4
 1 O  px              2.6       0.7       0.2       0.1       0.2       0.2
 1 O  py              0.3       0.2       0.4       0.6       0.0       0.2
 1 O  dxz             0.1       0.0       0.0       0.0       0.1       0.0
 1 O  dx2y2           0.0       0.1       0.0       0.0       0.0       0.0
 1 O  dxy             0.0       0.1       0.0       0.0       0.0       0.0
 2 C  s               6.0      28.2       0.7       2.6       0.4       3.5
 2 C  pz              2.0       0.4       7.4       0.5       1.5      16.7
 2 C  px              6.4       0.1       3.5       0.7       1.3       0.4
 2 C  py              0.3       4.7       4.7       2.3       0.1       3.5
 2 C  dz2             0.5       0.4       0.1       0.3       0.0       0.0
 2 C  dxz             0.1       0.1       0.0       0.0       0.0       0.5
 2 C  dyz             1.3       0.2       0.2       0.0       0.0       0.2
 2 C  dx2y2           0.0       0.0       0.0       0.1       0.0       0.0
 2 C  dxy             0.1       0.3       0.0       0.0       0.0       0.0
 3 C  s               6.4      10.0       1.4       1.3       1.0       3.8
 3 C  pz              5.3       4.1       5.5       0.3       1.3      18.5
 3 C  px              4.3       0.1       1.2       3.3       0.1       1.8
 3 C  py              1.9       0.9       1.5       1.8       3.4       0.2
 3 C  dz2             0.2       0.0       0.0       0.0       0.0       0.2
 3 C  dxz             0.3       0.1       0.0       0.0       0.0       0.0
 3 C  dyz             0.5       0.1       0.5       0.1       0.1       0.0
 3 C  dx2y2           0.4       0.1       0.1       0.0       0.0       0.1
 4 N  s               3.7       1.6       3.2       3.4       0.0       0.3
 4 N  pz              1.7       0.2       0.8       0.2       0.1       0.1
 4 N  px              4.6       0.1       5.0       2.5       2.2       1.1
 4 N  py              0.2       0.0       1.6       6.4       1.7       0.4
 4 N  dz2             0.4       0.3       0.3       1.1       0.0       0.1
 4 N  dxz             0.0       0.0       0.1       0.1       0.0       0.1
 4 N  dyz             1.5       0.0       0.0       0.3       0.0       0.2
 4 N  dx2y2           0.2       0.0       0.2       0.0       0.0       0.0
 4 N  dxy             0.1       0.3       0.0       0.4       0.0       0.2
 5 H  s               0.5       1.0       1.4       0.6      28.8       1.7
 6 H  s               0.9       0.3      17.2       3.7       7.3       0.8
 7 H  s              15.4       4.3       2.2       4.7       3.0       1.1
 8 H  s               1.4       1.3       7.8       9.0       0.1       1.6
 9 H  s               5.2       6.0       0.2       4.8       0.2       7.9
10 H  s               0.3       0.4       5.4       0.0       0.1       5.1
11 H  s               0.5       1.4       0.7       1.0       2.0       0.4
12 H  s               7.3       1.9       5.9      12.4       0.1       1.5
13 H  s               1.1       0.2       2.6      16.7       0.3       3.1

                     48        49        50        51        52        53   
                   0.65090   0.66412   0.68336   0.69167   0.73117   0.74875
                   0.00000   0.00000   0.00000   0.00000   0.00000   0.00000
                  --------  --------  --------  --------  --------  --------
 0 C  s               0.6       3.0       0.9      14.3       5.2       0.4
 0 C  pz              7.9       0.1       2.8       0.9       0.6       0.0
 0 C  px              0.2      21.5       0.7       0.8       0.7       1.7
 0 C  py              8.3       0.9      12.3       5.2       0.0       0.3
 0 C  dz2             0.3       0.2       0.1       0.0       0.0       0.0
 0 C  dxz             0.0       0.2       0.2       0.1       0.0       0.1
 0 C  dyz             0.3       0.1       0.3       0.0       0.0       0.0
 0 C  dx2y2           0.0       0.0       0.0       0.5       0.0       0.0
 0 C  dxy             0.0       0.0       0.0       0.1       0.0       0.6
 1 O  s               0.3       1.1       0.2       0.8       0.1       0.3
 1 O  pz              0.4       1.8       0.0       0.0       7.6       2.2
 1 O  px              0.0       0.2       0.1       0.8       3.2       1.2
 1 O  py              0.1       0.4       0.1       0.7       0.4       2.8
 1 O  dz2             0.0       0.0       0.0       0.0       0.0       0.1
 1 O  dxz             0.0       0.0       0.0       0.0       0.3       0.0
 2 C  s               2.1       3.4       3.0       0.1       4.7       3.4
 2 C  pz              8.9      12.8       0.9       0.6       7.8       0.1
 2 C  px              1.2       0.8       0.2       0.0       0.3       1.0
 2 C  py              0.6       0.9      26.4       0.7       0.3       0.0
 2 C  dz2             0.2       0.1       0.0       0.2       0.2       0.1
 2 C  dxz             0.0       0.2       0.0       0.0       1.5       0.1
 2 C  dyz             0.4       0.4       0.1       0.1       0.4       0.1
 2 C  dx2y2           0.1       0.1       0.3       0.0       0.1       0.5
 2 C  dxy             0.0       0.0       0.0       0.0       0.0       0.2
 3 C  s               5.8       1.2       4.8       2.6       1.1      11.2
 3 C  pz              1.7       0.5       0.3      32.7       9.3       0.1
 3 C  px              0.8       0.9       0.1       0.1       0.6       4.5
 3 C  py             16.8       2.0      18.4       0.2       0.2       1.7
 3 C  dz2             0.0       0.2       0.0       0.4       0.2       0.0
 3 C  dxz             0.0       0.0       0.0       0.0       0.5       0.0
 3 C  dyz             0.5       0.1       0.0       0.4       2.6       0.1
 3 C  dx2y2           0.1       0.1       0.1       0.1       0.2       0.2
 3 C  dxy             0.0       0.0       0.0       0.0       0.0       0.2
 4 N  s               0.0       0.4       0.0       0.1       0.1      15.8
 4 N  pz              0.8       0.1       0.1       0.7       9.7       3.4
 4 N  px              0.8       0.1       0.0       1.0       1.5       5.8
 4 N  py              0.1       0.7       0.0       0.2       3.3      32.2
 4 N  dz2             0.0       0.2       0.0       0.0       0.6       0.2
 4 N  dxz             0.0       0.0       0.0       0.1       0.1       0.0
 4 N  dyz             0.1       0.0       0.0       0.4       1.5       0.1
 4 N  dx2y2           0.0       0.0       0.0       0.0       0.1       0.1
 4 N  dxy             0.0       0.1       0.1       0.1       0.1       0.3
 5 H  s               0.6       1.8       6.3       3.5       1.5       0.2
 6 H  s               9.2       2.5       4.6       0.2       2.7       0.0
 7 H  s               0.3      17.8       1.5       1.9       3.8       0.2
 8 H  s               8.7       1.2       8.7       1.1       0.2       0.0
 9 H  s               1.5      14.5       1.4       0.2       2.5       0.0
10 H  s              16.9       0.5       3.7       1.8       2.3       3.2
11 H  s               1.4       3.9       0.9      22.3       3.2       4.5
12 H  s               0.1       1.5       0.0       0.4      11.1       0.0
13 H  s               1.3       1.2       0.1       3.5       7.4       0.7

                     54        55        56        57        58        59   
                   0.81815   0.87177   0.90665   1.01971   1.10120   1.11430
                   0.00000   0.00000   0.00000   0.00000   0.00000   0.00000
                  --------  --------  --------  --------  --------  --------
 0 C  s               1.2       4.4       1.6       1.2       3.3       5.5
 0 C  pz              0.0       0.6       0.3       0.6       0.1       0.2
 0 C  px              0.3       4.1       1.7       0.8       1.8       1.8
 0 C  py              0.0       0.2       0.2       0.0       1.2       0.7
 0 C  dz2             0.1       0.3       1.4       3.2       0.3       0.3
 0 C  dxz             0.2       0.8       0.5       1.0       0.3       0.0
 0 C  dyz             0.0       0.0       0.5       0.3       0.2       0.0
 0 C  dx2y2           0.0       0.4       0.9       0.7       1.1       0.3
 0 C  dxy             0.1       0.0       0.2       0.7       1.7       0.9
 1 O  s               0.4       0.1       2.4       0.2       3.0       4.1
 1 O  pz              2.8       0.3      22.5       1.3       3.5      19.3
 1 O  px              0.9       2.5       2.5      11.8      17.2       1.8
 1 O  py              0.3       0.5       0.7       0.1      38.2      30.1
 1 O  dz2             0.0       0.0       0.0       0.5       0.0       0.1
 1 O  dxz             0.0       0.2       0.0       0.1       0.2       0.7
 1 O  dyz             0.0       0.1       0.0       0.0       0.2       0.3
 1 O  dx2y2           0.1       0.0       0.3       0.1       0.2       0.0
 1 O  dxy             0.0       0.0       0.1       0.3       0.0       0.1
 2 C  s               0.9       1.9       0.7      16.4       0.2       0.7
 2 C  pz              0.1       2.0       3.6       3.4       2.7       7.3
 2 C  px              1.0       0.4       1.5       0.2       0.2       1.3
 2 C  py              0.0       0.9       1.5       0.8       0.7       0.2
 2 C  dz2             0.0       0.7       0.0       0.0       0.4       0.5
 2 C  dxz             0.0       0.6       1.7       0.3       0.0       0.0
 2 C  dyz             0.0       0.4       0.3       0.5       0.5       2.4
 2 C  dx2y2           0.4       0.1       0.0       0.1       0.9       0.2
 2 C  dxy             0.1       0.0       0.2       0.3       0.1       0.7
 3 C  s               4.7       2.7       4.4      21.3       0.2       2.0
 3 C  pz              0.0       0.5       1.0       0.7       2.2       3.2
 3 C  px              2.3       0.6       0.3       0.8       4.7       0.1
 3 C  py              0.9       0.3       0.9       0.9       0.5       0.0
 3 C  dz2             0.0       0.7       0.1       0.5       0.4       0.0
 3 C  dxz             0.0       1.9       0.1       0.1       0.7       1.2
 3 C  dyz             0.0       0.6       0.6       0.0       0.4       0.1
 3 C  dx2y2           0.0       0.2       0.2       0.3       0.0       0.7
 3 C  dxy             0.2       0.0       0.2       0.3       0.7       0.1
 4 N  s              18.6       0.5       0.3       0.0       0.6       0.9
 4 N  pz              0.3      52.9      13.0       1.6       3.5       4.4
 4 N  px             43.5       2.8       0.9       0.2       0.6       0.1
 4 N  py              6.1       0.8      23.1      13.5       1.8       1.0
 4 N  dz2             0.2       0.6       0.3       0.5       0.4       0.1
 4 N  dxz             0.0       0.0       0.3       0.0       0.5       1.0
 4 N  dyz             0.0       0.8       1.0       0.0       0.3       0.4
 4 N  dx2y2           0.0       0.0       0.3       0.7       0.0       0.1
 4 N  dxy             0.1       0.0       0.4       0.1       0.1       0.7
 5 H  s               0.2       2.7       0.7       0.8       0.5       1.3
 6 H  s               0.1       1.6       0.6       0.4       1.0       0.2
[...]
 6 H  s               1.4       2.6       1.5       1.9       0.0       0.0
 7 H  s               0.9       0.5       2.5       6.6       0.0       0.0
 8 H  s               2.7       0.8       0.1       1.3       2.5       0.0
 9 H  s               0.0       3.4       1.0       1.2       2.1       0.7
10 H  s               1.6       0.5       0.8       0.8       2.5       0.1
11 H  s               0.0       2.1       0.0       0.2       2.9       0.0
12 H  s               0.1       0.0       0.0       0.0       0.2       1.1
13 H  s               0.1       0.0       0.0       0.0       0.1       1.3

                     78        79        80        81        82        83   
                   2.35407   2.35729   2.55725   2.57621   2.74787   2.82813
                   0.00000   0.00000   0.00000   0.00000   0.00000   0.00000
                  --------  --------  --------  --------  --------  --------
 0 C  py              0.0       0.0       0.0       0.0       0.2       0.1
 0 C  dz2             0.0       0.4       0.0       0.0       0.3       0.9
 0 C  dxz             0.0       0.0       0.0       0.0       0.6       0.9
 0 C  dyz             0.0       0.4       0.0       0.0       0.9       3.3
 0 C  dx2y2           0.1       0.0       0.0       0.1       2.2       1.4
 0 C  dxy             0.0       0.0       0.1       0.0       1.3       0.3
 1 O  s               0.0       0.0       0.2       0.0       0.0       0.0
 1 O  pz              0.0       0.0       0.0       0.0       0.1       0.0
 1 O  px              0.0       0.0       0.1       0.0       0.2       0.0
 1 O  py              0.0       0.0       0.0       0.0       1.1       0.1
 1 O  dz2             0.2       0.1       0.5       0.0       9.6       2.5
 1 O  dxz             0.1       0.0       0.4       0.0       5.3       5.0
 1 O  dyz             0.0       1.5       0.4       0.1      49.2       9.6
 1 O  dx2y2           0.2       1.9       1.9       0.1       0.3      22.4
 1 O  dxy             0.2       4.9       1.7       0.0       6.3      12.9
 2 C  s               0.0       1.0       1.0       0.0       0.0       0.0
 2 C  px              0.0       1.0       0.3       0.0       0.0       0.0
 2 C  py              0.0       1.6       1.2       0.0       0.2       0.0
 2 C  dz2             0.0       8.2       2.7       0.0       0.0       0.2
 2 C  dxz             0.1       2.2       0.1       0.1       0.2       0.0
 2 C  dyz             1.4       0.3       1.0       0.5       0.0       1.2
 2 C  dx2y2           0.0       0.1       3.3       0.1       2.5       0.4
 2 C  dxy             0.0       6.6       6.1       0.0       2.3       1.6
 3 C  s               0.0       0.5       1.0       0.0       0.5       1.4
 3 C  pz              0.5       0.1       0.0       0.0       0.0       0.0
 3 C  px              0.0       0.9       0.3       0.0       0.6       1.3
 3 C  py              0.0       2.2       0.2       0.0       0.2       0.4
 3 C  dz2             0.3       8.7       2.1       0.4       0.8       3.0
 3 C  dxz            17.8       2.0       2.5       1.9       0.0       0.0
 3 C  dyz             8.7       1.3       0.6       0.0       0.1       0.0
 3 C  dx2y2           0.5       4.9       6.9       0.3       0.0       1.7
 3 C  dxy             0.3       6.3      23.3       0.8       0.9       0.9
 4 N  s               0.1       1.6       0.1       0.0       0.1       0.7
 4 N  pz              2.2       0.1       0.0       2.7       0.0       0.0
 4 N  px              0.0       0.1       0.0       0.0       0.5       1.4
 4 N  py              0.1       0.1       0.3       0.0       0.1       0.4
 4 N  dz2             2.9      15.9       0.2       2.9       3.9       7.8
 4 N  dxz            54.4       0.5       2.6       7.4       0.4       0.8
 4 N  dyz             6.5       1.6       0.6      66.8       0.0       0.0
 4 N  dx2y2           0.2       0.5       7.5       4.0       7.9      12.5
 4 N  dxy             0.7      18.1      29.7       0.0       0.4       3.6
 5 H  s               0.0       0.0       0.0       0.0       0.0       0.1
 8 H  s               0.1       0.3       0.0       0.0       0.0       0.1
 9 H  s               0.1       0.5       0.0       0.0       0.0       0.0
10 H  s               0.7       0.3       0.2       0.0       0.0       0.1
11 H  s               0.5       0.4       0.2       0.0       0.0       0.1
12 H  s               0.1       1.5       0.6       5.5       0.2       0.3
13 H  s               0.5       1.2       0.0       5.9       0.2       0.3

                     84        85        86        87   
                   2.84450   2.95806   3.15717   3.36119
                   0.00000   0.00000   0.00000   0.00000
                  --------  --------  --------  --------
 0 C  s               0.3       0.1       1.1       1.5
 0 C  pz              0.1       0.0       1.3       1.0
 0 C  px              0.3       0.0       0.3       0.8
 0 C  py              0.1       0.0       0.2       0.3
 0 C  dz2             2.6       0.1       3.6       0.1
 0 C  dxz             0.7       0.0       1.4       3.1
 0 C  dyz             0.0       1.0       1.5       1.0
 0 C  dx2y2           2.2       0.0       0.0       0.1
 0 C  dxy             1.9       0.0       0.1       0.7
 1 O  s               1.2       0.2       6.3       0.1
 1 O  pz              1.8       0.0       0.5       0.5
 1 O  px              0.2       0.0       0.0       4.7
 1 O  py              0.0       0.3       0.0       0.9
 1 O  dz2            46.5       0.4       1.0      18.8
 1 O  dxz            23.0       1.1      13.0      29.6
 1 O  dyz             2.9       2.4       6.6       9.9
 1 O  dx2y2           2.9      17.6      19.4      12.1
 1 O  dxy             2.9      15.1      34.0       1.4
 2 C  s               0.2       0.1       0.7       1.8
 2 C  pz              0.1       0.0       0.2       0.1
 2 C  px              0.3       0.1       0.8       2.4
 2 C  py              0.0       0.2       0.0       0.3
 2 C  dz2             0.4       0.1       0.0       1.9
 2 C  dxz             4.1       0.0       3.6       0.4
 2 C  dyz             0.8       0.6       0.2       0.2
 2 C  dx2y2           1.0       3.9       2.4       2.9
 2 C  dxy             1.8       5.7       0.3       2.3
 3 C  s               0.1       1.3       0.0       0.0
 3 C  px              0.0       2.4       0.0       0.1
 3 C  dz2             0.1       1.2       0.0       0.0
 3 C  dxz             0.2       0.2       0.0       0.0
 3 C  dyz             0.0       0.2       0.1       0.0
 3 C  dx2y2           0.1       9.7       0.6       0.0
 3 C  dxy             0.3       4.1       0.0       0.3
 4 N  s               0.0       1.9       0.0       0.1
 4 N  px              0.0       2.1       0.0       0.0
 4 N  py              0.0       0.5       0.0       0.0
 4 N  dz2             0.1       6.4       0.0       0.0
 4 N  dxz             0.1       0.2       0.0       0.0
 4 N  dx2y2           0.0      12.9       0.0       0.3
 4 N  dxy             0.4       7.3       0.3       0.0
 5 H  s               0.1       0.0       0.0       0.0
 9 H  s               0.1       0.0       0.0       0.1
12 H  s               0.0       0.1       0.0       0.0
13 H  s               0.0       0.2       0.0       0.0


                      *****************************
                      * MAYER POPULATION ANALYSIS *
                      *****************************

  NA   - Mulliken gross atomic population
  ZA   - Total nuclear charge
  QA   - Mulliken gross atomic charge
  VA   - Mayer's total valence
  BVA  - Mayer's bonded valence
  FA   - Mayer's free valence

  ATOM       NA         ZA         QA         VA         BVA        FA
  0 C      6.1076     6.0000    -0.1076     3.9091     3.9091    -0.0000
  1 O      8.3365     8.0000    -0.3365     2.1453     2.1453    -0.0000
  2 C      6.0120     6.0000    -0.0120     4.0309     4.0309    -0.0000
  3 C      6.1197     6.0000    -0.1197     4.0544     4.0544     0.0000
  4 N      7.4439     7.0000    -0.4439     3.0164     3.0164    -0.0000
  5 H      0.9023     1.0000     0.0977     0.9465     0.9465     0.0000
  6 H      0.9185     1.0000     0.0815     0.9589     0.9589     0.0000
  7 H      0.8851     1.0000     0.1149     0.9559     0.9559    -0.0000
  8 H      0.9439     1.0000     0.0561     0.9657     0.9657     0.0000
  9 H      0.9221     1.0000     0.0779     0.9666     0.9666    -0.0000
 10 H      0.9042     1.0000     0.0958     0.9597     0.9597     0.0000
 11 H      0.9071     1.0000     0.0929     0.9534     0.9534     0.0000
 12 H      0.7977     1.0000     0.2023     0.9174     0.9174    -0.0000
 13 H      0.7995     1.0000     0.2005     0.9167     0.9167    -0.0000

  Mayer bond orders larger than 0.100000
B(  0-C ,  1-O ) :   1.0199 B(  0-C ,  5-H ) :   0.9406 B(  0-C ,  6-H ) :   0.9394 
B(  0-C ,  7-H ) :   0.9642 B(  1-O ,  2-C ) :   1.0356 B(  2-C ,  3-C ) :   1.0677 
B(  2-C ,  8-H ) :   0.9121 B(  2-C ,  9-H ) :   0.9321 B(  3-C ,  4-N ) :   1.1294 
B(  3-C , 10-H ) :   0.9256 B(  3-C , 11-H ) :   0.9279 B(  4-N , 12-H ) :   0.9092 
B(  4-N , 13-H ) :   0.9104 

-------
TIMINGS
-------

Total SCF time: 0 days 0 hours 0 min 4 sec 

Total time                  ....       4.023 sec
Sum of individual times     ....       3.712 sec  ( 92.3%)

SCF preparation             ....       0.152 sec  (  3.8%)
Fock matrix formation       ....       2.954 sec  ( 73.4%)
  Startup                   ....       0.058 sec  (  2.0% of F)
  Split-RI-J                ....       0.700 sec  ( 23.7% of F)
  XC integration            ....       1.703 sec  ( 57.6% of F)
    Basis function eval.    ....       0.585 sec  ( 34.4% of XC)
    Density eval.           ....       0.163 sec  (  9.6% of XC)
    XC-Functional eval.     ....       0.187 sec  ( 11.0% of XC)
    XC-Potential eval.      ....       0.311 sec  ( 18.3% of XC)
Diagonalization             ....       0.000 sec  (  0.0%)
Density matrix formation    ....       0.152 sec  (  3.8%)
Total Energy calculation    ....       0.035 sec  (  0.9%)
Population analysis         ....       0.052 sec  (  1.3%)
Orbital Transformation      ....       0.059 sec  (  1.5%)
Orbital Orthonormalization  ....       0.000 sec  (  0.0%)
DIIS solution               ....       0.239 sec  (  5.9%)
  MO trafo                  ....       0.000 sec  (  0.0 % of DIIS)
  Orb grad                  ....       0.000 sec  (  0.0 % of DIIS)
  Energy W gradient         ....       0.000 sec  (  0.0 % of DIIS)
  DIIS error                ....       0.001 sec  (  0.4 % of DIIS)
  DIIS work                 ....       0.175 sec  ( 73.3 % of DIIS)
  Form Q                    ....       0.000 sec  (  0.0 % of DIIS)
  Form QpQm                 ....       0.000 sec  (  0.0 % of DIIS)
  Exp/Cayley                ....       0.000 sec  (  0.0 % of DIIS)
  Orb update                ....       0.000 sec  (  0.0 % of DIIS)
  Wake-sleep                ....       0.026 sec  ( 10.8 % of DIIS)
SOSCF solution              ....       0.071 sec  (  1.8%)
  MO trafo                  ....       0.042 sec  ( 59.3 % of SOSCF)
  Orb grad                  ....       0.001 sec  (  1.5 % of SOSCF)
  Rot update                ....       0.015 sec  ( 20.4 % of SOSCF)
  Step                      ....       0.013 sec  ( 18.8 % of SOSCF)
Finished LeanSCF after   4.1 sec

Maximum memory used throughout the entire LEANSCF-calculation: 8.7 MB


-------------------------------------------------------------------------------
                          DFT DISPERSION CORRECTION                            
                                                                               
                                DFTD4 V3.4.0                                   
-------------------------------------------------------------------------------
The PBE functional is recognized
Active option DFTDOPT                   ...         5   

-------------------------   ----------------
Dispersion correction           -0.008236766
-------------------------   ----------------

------------------   -----------------
gCP correction             0.069200436
------------------   -----------------

-------------------------   --------------------
FINAL SINGLE POINT ENERGY      -249.091180802708
-------------------------   --------------------


------------------------------------------------------------------------------
                              ORCA PROPERTY CALCULATIONS
------------------------------------------------------------------------------

GBWName                                 ... sp.gbw
Number of atoms                         ...     14
Number of basis functions               ...     88
Max core memory                         ...   1024 MB

Electric properties:
Dipole moment                           ... YES
Quadrupole moment                       ...  NO
Static polarizability (Dipole/Dipole)   ...  NO
Static polarizability (Dipole/Quad.)    ...  NO
Static polarizability (Quad./Quad.)     ...  NO
Static polarizability (Velocity)        ...  NO

Atomic electric properties:
Dipole moment                           ...  NO
Quadrupole moment                       ...  NO
Static polarizability                   ...  NO

Choice of electric origin               ... Center of mass
Position of electric origin             ...    -0.000025    -0.000004     0.000013

General magnetic properties:
Magnetizability                         ...  NO

EPR properties:
g-Tensor (aka g-matrix)                 ...  NO
Zero-Field splitting spin-orbit         ...  NO
Zero-field splitting spin-spin          ...  NO
Hyperfine couplings                     ...  NO (   0 nuclei)
Quadrupole couplings                    ...  NO (   0 nuclei)
Contact density                         ...  NO (   0 nuclei)

NMR properties:
Chemical shifts                         ...  NO (   0 nuclei)
Spin-rotation constants                 ...  NO (   0 nuclei)
Spin-spin couplings                     ...  NO (   0 nuclei,    0 pairs)

Choice of magnetic origin               ... GIAO
Position of magnetic origin             ...     0.000000     0.000000     0.000000

Properties with geometric perturbations:
SCF Hessian                             ...  NO
IR spectrum                             ...  NO
VCD spectrum                            ...  NO
X-ray spectroscopy properties:
SCF XES/XAS/RIXS spectra                ...  NO


-------------
DIPOLE MOMENT
-------------

Method             : SCF
Type of density    : Electron Density
Multiplicity       :   1
Irrep              :   0
Energy             :  -249.1521444735716955 Eh
Relativity type    : 
Basis              : AO
                                X                 Y                 Z
Electronic contribution:      0.341397568       0.447501826      -1.858890415
Nuclear contribution   :     -0.290802927      -0.085619178       2.190432080
                        -----------------------------------------
Total Dipole Moment    :      0.050594641       0.361882648       0.331541665
                        -----------------------------------------
Magnitude (a.u.)       :      0.493395120
Magnitude (Debye)      :      1.254110728



--------------------
Rotational spectrum 
--------------------
 
Rotational constants in cm-1:             0.483126             0.080548             0.075347 
Rotational constants in MHz :         14483.747229          2414.755067          2258.832291 

Dipole components along the rotational axes: 
x,y,z [a.u.] :     0.049071     0.052143     0.488172 
x,y,z [Debye]:     0.124728     0.132537     1.240835 

 

Dipole moment calculation done in   0.0 sec 

Maximum memory used throughout the entire PROP-calculation: 5.5 MB

--------------------------------
SUGGESTED CITATIONS FOR THIS RUN
--------------------------------

Below you find a list of papers that are relevant to this ORCA run
We neither can nor want to force you to cite these papers, but we appreciate if you do
You receive ORCA, which is the product of decades of hard work by many enthusiastic individuals, for free
The only thing we kindly ask in return is that you cite our papers,
We deeply appreciate it, if you show your appreciation for ORCA by not just citing the generic ORCA reference.

Please note that relegating all ORCA citations to the supporting information does *not* help us.
SI sections are not indexed - citations you put there will not count into any citation statistics
But we need these citations in order to attract the funding resources that allow us to do what we are doing

Therefore, if you are a happy ORCA user, please consider citing a few of the papers listed below in the main body of your paper

In addition to the list printed below, the program has created the file sp.bibtex that contains the list in bibtex format
You can import this file easily into all common literature databanks and citation aid programs


List of essential papers. We consider these as the minimum necessary citations

  1. Neese,F.
     Software update: the ORCA program system, version 5.0
     WIRES Comput. Molec. Sci., 2022 12(1)e1606
     doi.org/10.1002/wcms.1606

List of papers to cite with high priority. The work reported in these papers was absolutely
necessary for this run to complete.
Our perspective: the developers of density functionals and basis sets usually get cited in chemistry papers
Good! But without the algorithms to do something with them, the functionals or basis sets would not do anything.
Hence, in our opinion, the algorithm design and method developments papers are equally worthy of getting cited

  1. Neese,F.
     An improvement of the resolution of the identity approximation for the formation of the Coulomb matrix
     J. Comp. Chem., 2003 24(14)1740-1747
     doi.org/10.1002/jcc.10318
  2. Neese,F.
     The SHARK Integral Generation and Digestion System
     J. Comp. Chem., 2022  1-16
     doi.org/10.1002/jcc.26942
  3. Caldeweyher,E.; Bannwarth,C.; Grimme,S.
     Extension of the D3 dispersion coefficient model
     J. Chem. Phys., 2017 147 034112-XXXX
     doi.org/10.1063/1.4993215
  4. Caldeweyher,E.; Ehlert,S.; Hansen,A.; Neugebauer,H.; Spicher,S.; Bannwarth,C.; Grimme,S.
     A generally applicable atomic-charge dependent London dispersion correction
     J. Chem. Phys., 2019 150 154122-XXXX
     doi.org/10.1063/1.5090222
  5. Caldeweyher,E.; Mewes,J.; Ehlert,S.; Grimme,S.
     Extension and evaluation of the D4 London-dispersion model for periodic systems
     Phys. Chem. Chem. Phys., 2020 22(16)8499-8512
     doi.org/10.1039/D0CP00502A

List of suggested additional citations. These are papers that are important in the 'surrounding' of 
of this run, or papers that preceded the highly important papers. If you like your results we are grateful for a citation.

  1. Neese,F.
     The ORCA program system
     WIRES Comput. Molec. Sci., 2012 2(1)73-78
     doi.org/10.1002/wcms.81
  2. Neese,F.
     Software update: the ORCA program system, version 4.0
     WIRES Comput. Molec. Sci., 2018 8(1)1-6
     doi.org/10.1002/wcms.1327
  3. Neese,F.; Wennmohs,F.; Becker,U.; Riplinger,C.
     The ORCA quantum chemistry program package
     J. Chem. Phys., 2020 152 Art. No. L224108
     doi.org/10.1063/5.0004608

List of optional additional citations

  1. Neese,F.
     Approximate second-order SCF convergence for spin unrestricted wavefunctions
     Chem. Phys. Lett., 2000 325(1-3)93-98
     doi.org/10.1016/s0009-2614(00)00662-x

Timings for individual modules:

Sum of individual times          ...        5.213 sec (=   0.087 min)
Startup calculation              ...        0.524 sec (=   0.009 min)  10.1 %
SCF iterations                   ...        4.584 sec (=   0.076 min)  87.9 %
Property calculations            ...        0.105 sec (=   0.002 min)   2.0 %
                             ****ORCA TERMINATED NORMALLY****
TOTAL RUN TIME: 0 days 0 hours 0 minutes 5 seconds 907 msec
