21
 energy: -24.063769184802 gnorm: 0.032903456458 xtb: 6.7.1 (edcfbbe)
C           -3.01025718128654        0.24701908618915       -0.06991345561970
C           -1.64384958890576       -0.42034287106171        0.06898887581099
C           -0.51003594818793        0.55592903384150       -0.24361782574292
C            0.91300098187948        0.03134851525935       -0.03195877076973
C            1.92548632880488        1.10892746601833       -0.41307247253728
C            1.18590269500802       -1.25294994491649       -0.81108685663857
O            1.03256984665520       -0.24094605783321        1.39506886865917
H           -3.82217615664154       -0.45521117842973        0.14521439217008
H           -3.15846549462071        0.62950061601073       -1.08630039777453
H           -3.10664116266122        1.09264081402114        0.62047860947215
H           -1.52919956135250       -0.81149758276316        1.08666117561943
H           -1.59245578925643       -1.28116536771169       -0.60767172796209
H           -0.59262934766357        0.88220558606089       -1.28802187914439
H           -0.62807183311862        1.45496096038343        0.37645598644656
H            1.73070634681781        2.03277603373756        0.14114891711567
H            1.87140445550752        1.32869454947594       -1.48424009725851
H            2.94367465241534        0.77315029705298       -0.18589105397204
H            2.22685842361898       -1.56455863714199       -0.66943115577487
H            1.01942067189719       -1.09796342690168       -1.88224350660085
H            0.53649075902395       -2.06531239758271       -0.47380092894220
H            1.93753444214923       -0.54533301729022        1.54687790541257
21
 energy: -24.064867683135 gnorm: 0.015692972651 xtb: 6.7.1 (edcfbbe)
C           -3.00033921190617        0.24783399840207       -0.06888935107215
C           -1.63719497895480       -0.41843490492510        0.06573680763805
C           -0.51387568689771        0.56318877256783       -0.25589601926495
C            0.90575532004902        0.02775606753951       -0.02404683689635
C            1.92167176575452        1.10368424586349       -0.41290762862619
C            1.18524906238866       -1.25168927191069       -0.81167080790159
O            1.01730141119949       -0.24185417766697        1.39043636274171
H           -3.79786773734236       -0.46051012633526        0.15127028356800
H           -3.14673233795816        0.62287021213573       -1.08199701428234
H           -3.09014329918288        1.08717611726655        0.62056687465675
H           -1.50840220552035       -0.79281704872445        1.08504907881659
H           -1.59053422485046       -1.27305801567892       -0.61373457702711
H           -0.59899033715080        0.88326735334701       -1.29860352570197
H           -0.63533419087220        1.44887126486952        0.37569055695241
H            1.73087597102879        2.02071135352355        0.14234381724121
H            1.85880566499861        1.32161175194157       -1.47755404438959
H            2.93580827829250        0.77123058902195       -0.19126314000395
H            2.22230234213842       -1.55978387961544       -0.67675544897040
H            1.01098620000547       -1.08930312551686       -1.87393642065247
H            0.54208120319446       -2.05905717754702       -0.46876023737845
H            1.91784453166874       -0.54982152213969        1.55856587252173
21
 energy: -24.065178236530 gnorm: 0.004115907863 xtb: 6.7.1 (edcfbbe)
C           -2.99752723579804        0.24519080264445       -0.06535507025819
C           -1.63183647033118       -0.41721167339185        0.06204524937536
C           -0.51228077233211        0.56730065641782       -0.26547091459261
C            0.90604832227535        0.02723065782163       -0.01908274318694
C            1.92538831609955        1.10422962476931       -0.41163261452945
C            1.18222507740560       -1.25227231776111       -0.81373735564391
O            0.99805611970487       -0.23789800517023        1.38294803545723
H           -3.78740690547120       -0.46600221961559        0.15892457935621
H           -3.14394143913680        0.61648103991890       -1.07616624886973
H           -3.08178915135144        1.08172892996927        0.62290093606591
H           -1.49007072890459       -0.78075054898297        1.08124174297797
H           -1.58755337516797       -1.26994974312183       -0.61607870767522
H           -0.59328130794656        0.88005767197582       -1.30719345313284
H           -0.63550413478339        1.44804195271579        0.36786008826054
H            1.73776226057235        2.01645588784715        0.14771611532380
H            1.85106228548603        1.32086497876047       -1.47229344408054
H            2.93677813342625        0.76847186565005       -0.19682552220466
H            2.21914988369750       -1.55395470432086       -0.68752305252256
H            0.99664326618609       -1.08418546221148       -1.86955048516799
H            0.54565176920275       -2.05860265717814       -0.46338534831930
H            1.89169362724974       -0.55335426031825        1.57430281533589
21
 energy: -24.065228637756 gnorm: 0.001959282954 xtb: 6.7.1 (edcfbbe)
C           -2.99780833070367        0.24382147393119       -0.06305546561057
C           -1.62988779245983       -0.41667259471821        0.06060512857752
C           -0.51180122139142        0.56948868594449       -0.27056968593327
C            0.90581881914432        0.02804063801482       -0.01703585379268
C            1.92832054197428        1.10382561319010       -0.41014066665858
C            1.18223326865311       -1.25163754337140       -0.81438205539736
O            0.99052199707083       -0.23516593254679        1.38146253914181
H           -3.78567790977381       -0.46918256612328        0.16385168877497
H           -3.14801963544290        0.61480547324002       -1.07384663411696
H           -3.08133467922540        1.08043793299078        0.62574245553518
H           -1.48412610841846       -0.77914434019382        1.07940564169591
H           -1.58592542189219       -1.27009589535317       -0.61658410275402
H           -0.58992785738332        0.87779053875710       -1.31356451911928
H           -0.63632222959141        1.45285793641572        0.35869476539328
H            1.74428177394389        2.01469179530796        0.15344568493559
H            1.84982689037157        1.32351536779627       -1.47007752564534
H            2.93956687934490        0.76363296334261       -0.19972331392673
H            2.22160553803782       -1.54966286037370       -0.69567816630316
H            0.98746833200739       -1.08389550869496       -1.86885680871596
H            0.55024519945453       -2.05984219371239       -0.45877714588923
H            1.88020948636255       -0.55573650742497        1.58272864177784
21
 energy: -24.065260828266 gnorm: 0.003012062418 xtb: 6.7.1 (edcfbbe)
C           -2.99956162735507        0.24161578553362       -0.05805880790070
C           -1.62802484947469       -0.41452459066249        0.05755658635871
C           -0.51074888510295        0.57123245825258       -0.28042696795530
C            0.90590790113938        0.03030514264793       -0.01601949522122
C            1.93381426519973        1.10383597875982       -0.40593115247725
C            1.18281654729788       -1.25051714985633       -0.81460425640518
O            0.97924658470051       -0.23063575993393        1.37988916507833
H           -3.78482563129040       -0.47407572706248        0.17412586735068
H           -3.15883713449824        0.61274416328667       -1.06867510771276
H           -3.08226657068578        1.07890415045951        0.63175804576885
H           -1.47665536022039       -0.77697492470599        1.07577267789985
H           -1.58525270663492       -1.26965532059158       -0.61842788331372
H           -0.58455608595092        0.86920326604322       -1.32717552103223
H           -0.63821160118768        1.46293641456739        0.33763562894562
H            1.75891188534654        2.01202122022883        0.16699074720317
H            1.85090847224074        1.33332949511538       -1.46431771692751
H            2.94474609672110        0.75432519040816       -0.20413216830924
H            2.22759958039253       -1.53950912835230       -0.71167181010207
H            0.96982805910573       -1.08751245802289       -1.86737884976020
H            0.56242076693214       -2.06440133908607       -0.44796256643575
H            1.86200783340754       -0.56077439061068        1.59469818691690
21
 energy: -24.065270879940 gnorm: 0.001872133242 xtb: 6.7.1 (edcfbbe)
C           -2.99918052814744        0.24204729053977       -0.05722828286891
C           -1.62807367970872       -0.41428039504002        0.05710200150749
C           -0.51093739810220        0.57080844243481       -0.28224924454602
C            0.90544498664063        0.03049030171251       -0.01712484226114
C            1.93351386925666        1.10382842755605       -0.40493149585922
C            1.18331649669172       -1.25038714989265       -0.81437579415461
O            0.97841748053609       -0.23061163567482        1.38007754856514
H           -3.78418017423735       -0.47352514062672        0.17582882597261
H           -3.15987394022968        0.61311037816305       -1.06752543339740
H           -3.08147502865125        1.07933641943068        0.63253235814176
H           -1.47614306987818       -0.77673725914291        1.07535602490748
H           -1.58618126062788       -1.26961893169486       -0.61883034281900
H           -0.58466419878936        0.86667366220805       -1.32971590534531
H           -0.63860080705844        1.46398294926807        0.33374973645071
H            1.75958953238451        2.01086946917202        0.16975211412409
H            1.85124948203319        1.33597155702083       -1.46273807556800
H            2.94414870737129        0.75346788078441       -0.20387784635180
H            2.22849418594030       -1.53748383585471       -0.71316059682735
H            0.96834040575723       -1.08956247460930       -1.86689291473450
H            0.56522301105173       -2.06487714137537       -0.44580972600050
H            1.86083946784993       -0.56163033796050        1.59370649303344
21
 energy: -24.065281214831 gnorm: 0.001408374965 xtb: 6.7.1 (edcfbbe)
C           -2.99799181610715        0.24361774588898       -0.05352497180075
C           -1.62780470205223       -0.41319790689591        0.05462871851016
C           -0.51129287431729        0.56929177001911       -0.29139818753626
C            0.90393267717266        0.03116272866199       -0.02094008222691
C            1.93291362983191        1.10436745429330       -0.40040600778279
C            1.18525394010232       -1.25031480191185       -0.81339557234784
O            0.97301699647266       -0.23049070454833        1.37999752978991
H           -3.78172868724698       -0.47131407444158        0.18406179378936
H           -3.16393882019606        0.61399530488386       -1.06268495152043
H           -3.07659653600919        1.08100694974368        0.63592453229404
H           -1.47139806665821       -0.77422983285581        1.07288983399240
H           -1.58972869485193       -1.26945157896555       -0.62048954531745
H           -0.58426652225095        0.85564050675271       -1.34172487077068
H           -0.64029695655176        1.46778644634403        0.31641491409241
H            1.76253841594513        2.00592143951468        0.18289433555257
H            1.85070665194393        1.34741049335916       -1.45555592588381
H            2.94260616597844        0.75013321528814       -0.20391925304072
H            2.23286703706781       -1.52850549119557       -0.72061244295584
H            0.95963647333990       -1.09743021140082       -1.86442650286643
H            0.57706781117542       -2.06713860214719       -0.43507540177122
H            1.85377141729437       -0.56638837396865        1.59098665976927
21
 energy: -24.065283264801 gnorm: 0.000206729696 xtb: 6.7.1 (edcfbbe)
C           -2.99818466736279        0.24370058347667       -0.05382428372346
C           -1.62773520767837       -0.41364334418761        0.05486693245402
C           -0.51116874638411        0.56940030012314       -0.29091916707007
C            0.90419782208042        0.03086157792129       -0.02012120448456
C            1.93301377014980        1.10465906934425       -0.40069995586104
C            1.18533189161661       -1.25062873054575       -0.81368520396683
O            0.97277557445196       -0.23059120246107        1.37970150571696
H           -3.78227424029055       -0.47090861783629        0.18386156000433
H           -3.16342486493728        0.61374615299127       -1.06336076710641
H           -3.07628239791210        1.08145305315170        0.63538823514941
H           -1.47129772251960       -0.77412947387028        1.07312598111925
H           -1.58947456421643       -1.27009380309576       -0.61983719912939
H           -0.58375506564591        0.85641725655434       -1.34089012388121
H           -0.64018467938540        1.46727517303164        0.31758661255231
H            1.76183836578054        2.00640810107043        0.18232945467693
H            1.84967358658288        1.34670994927938       -1.45596552857113
H            2.94311900245586        0.75106714358659       -0.20446941342786
H            2.23288326541042       -1.52962177634194       -0.72040355224244
H            0.96028770670450       -1.09679112505333       -1.86474805140288
H            0.57624574990435       -2.06719925025654       -0.43605617772553
H            1.85368296127798       -0.56621856046376        1.59176494888857
21
 energy: -24.065283487963 gnorm: 0.000050764220 xtb: 6.7.1 (edcfbbe)
C           -2.99824268445832        0.24403967704549       -0.05379684956476
C           -1.62791264514664       -0.41377611819017        0.05503558578432
C           -0.51111872433619        0.56892509695782       -0.29126742768135
C            0.90430166759453        0.03062821391763       -0.02004068448432
C            1.93283795005365        1.10492823627080       -0.40047441186701
C            1.18572286466119       -1.25081267683485       -0.81376344005155
O            0.97269719168414       -0.23099924296915        1.37958365290476
H           -3.78271450693609       -0.47000422258319        0.18441089771567
H           -3.16337413716637        0.61366788633059       -1.06353572925633
H           -3.07566585650386        1.08222133884695        0.63499180151444
H           -1.47143886604015       -0.77384624909552        1.07338220673717
H           -1.58996212794888       -1.27046864900377       -0.61934138333927
H           -0.58359909185777        0.85539197804173       -1.34137231677783
H           -0.64023174474904        1.46705708397025        0.31681378028455
H            1.76146149261055        2.00627633481245        0.18320298663479
H            1.84889526024520        1.34752586927273       -1.45558236217180
H            2.94316198227847        0.75158548199779       -0.20481048995521
H            2.23341311231353       -1.52950648581588       -0.72053934769329
H            0.96048654630820       -1.09698724640243       -1.86481863606686
H            0.57681913425543       -2.06752212069829       -0.43599752674307
H            1.85373072322121       -0.56645170945261        1.59156429604593
21
 energy: -24.065283619455 gnorm: 0.000106196362 xtb: 6.7.1 (edcfbbe)
C           -2.99813276822660        0.24445138891952       -0.05382596488329
C           -1.62806190461098       -0.41394972745323        0.05535971216784
C           -0.51115457972914        0.56847706400272       -0.29148391952608
C            0.90428466601925        0.03035146656119       -0.02002358301086
C            1.93249669067922        1.10512041753228       -0.40022310334676
C            1.18614013159190       -1.25093144818238       -0.81392339715281
O            0.97265301574333       -0.23143431875155        1.37949230493356
H           -3.78294164091732       -0.46903052472588        0.18496071575462
H           -3.16315716268439        0.61342358020785       -1.06383413850548
H           -3.07509195721311        1.08318797067341        0.63434954890911
H           -1.47168795669983       -0.77350509855526        1.07388491894501
H           -1.59038100446332       -1.27102829239245       -0.61854721873807
H           -0.58358326542211        0.85422910431593       -1.34177191380083
H           -0.64027108375268        1.46703531922968        0.31597838510180
H            1.76107854969580        2.00603551872520        0.18413876024745
H            1.84797461750409        1.34839663235928       -1.45511736673609
H            2.94301635271206        0.75194513747401       -0.20524814549364
H            2.23384578916841       -1.52951277658651       -0.72051185218385
H            0.96109928156412       -1.09708044015515       -1.86500405593353
H            0.57725896574407       -2.06774493889321       -0.43635142164101
H            1.85388280338004       -0.56656355788707        1.59134633686188
21
 energy: -24.065283644996 gnorm: 0.000219099838 xtb: 6.7.1 (edcfbbe)
C           -2.99802285199488        0.24486310079354       -0.05385508020182
C           -1.62821116407532       -0.41412333671630        0.05568383855136
C           -0.51119043512209        0.56802903104761       -0.29170041137080
C            0.90426766444396        0.03007471920475       -0.02000648153740
C            1.93215543130478        1.10531259879376       -0.39997179482651
C            1.18655739852261       -1.25105021952991       -0.81408335425408
O            0.97260883980251       -0.23186939453395        1.37940095696236
H           -3.78316877489856       -0.46805682686856        0.18551053379356
H           -3.16294018820241        0.61317927408511       -1.06413254775463
H           -3.07451805792236        1.08415460249988        0.63370729630379
H           -1.47193704735950       -0.77316394801500        1.07438763115285
H           -1.59079988097776       -1.27158793578113       -0.61775305413687
H           -0.58356743898644        0.85306623059012       -1.34217151082383
H           -0.64031042275632        1.46701355448910        0.31514298991905
H            1.76069560678105        2.00579470263796        0.18507453386011
H            1.84705397476298        1.34926739544584       -1.45465237130037
H            2.94287072314564        0.75230479295024       -0.20568580103206
H            2.23427846602328       -1.52951906735714       -0.72048435667442
H            0.96171201682004       -1.09717363390787       -1.86518947580020
H            0.57769879723271       -2.06796775708813       -0.43670531653896
H            1.85403488353888       -0.56667540632154        1.59112837767783
21
 energy: -24.065283738906 gnorm: 0.000112395120 xtb: 6.7.1 (edcfbbe)
C           -2.99809989131798        0.24484185269959       -0.05388485144684
C           -1.62828818730155       -0.41398601098828        0.05593018384565
C           -0.51117879718295        0.56786348060037       -0.29182396400733
C            0.90430445289951        0.03005161379992       -0.02007272887190
C            1.93216450174095        1.10530105665449       -0.39991640627422
C            1.18663805987826       -1.25098282721611       -0.81418294032539
O            0.97258191912338       -0.23205255108960        1.37937401339968
H           -3.78328305846391       -0.46794689660846        0.18574828230300
H           -3.16297787885055        0.61279230268307       -1.06428793463962
H           -3.07455756272164        1.08439125618926        0.63334671269609
H           -1.47204300264819       -0.77276690233671        1.07475483831924
H           -1.59086418059544       -1.27164446051534       -0.61725009725670
H           -0.58367490390435        0.85266649749893       -1.34236227370216
H           -0.64023624931165        1.46698146080036        0.31480922528165
H            1.76087417831613        2.00562163564369        0.18539139242513
H            1.84693375394079        1.34957592583678       -1.45451115146657
H            2.94287248446898        0.75217878752734       -0.20588270252008
H            2.23430567551891       -1.52950801268705       -0.72030412653526
H            0.96212538175990       -1.09691913060586       -1.86533372864737
H            0.57763130436610       -2.06792999235486       -0.43711133064970
H            1.85403954036809       -0.56665660911316        1.59121419004166
