22
 energy: -29.090092665961 gnorm: 0.032153615024 xtb: 6.7.1 (edcfbbe)
C           -1.99709646456198        0.90204612990079        1.25185971319511
C           -2.10745150864040       -0.25590560798670        0.26195890445790
C           -3.53200824959455       -0.38276541787421       -0.27406534843216
C           -1.12426378733339       -0.08710060789028       -0.91626643394481
C            0.30937915648442       -0.03634046795897       -0.48717636265280
C            0.93916732454905       -1.18524598703056        0.00894958331543
N            2.20545277611265       -1.19689065138092        0.42671909667299
C            2.86122480476259       -0.02982617662407        0.34423644663955
C            2.25373563008931        1.11172996838820       -0.15345688527464
N            0.98055970107814        1.12210490106835       -0.57222474588214
H           -2.20658034257413        1.85700249620168        0.75406788148315
H           -0.99733231303282        0.96379563363065        1.69497983894918
H           -2.71689720593018        0.78156962980157        2.06848159038286
H           -1.84750140703876       -1.18646773262795        0.78550039343221
H           -3.62284105935300       -1.22555177624945       -0.96764553853141
H           -4.24409212855382       -0.53596905914536        0.54359638991929
H           -3.82414756197856        0.52924444349414       -0.80863025200597
H           -1.36817292428277        0.83131716036431       -1.46122932381688
H           -1.25779936234745       -0.93146428627930       -1.60352502674543
H            0.39179839797271       -2.12434703033015        0.05943303564861
H            3.89532714741593       -0.00989156642631        0.67746352080757
H            2.80683567923670        2.04557024696713       -0.22121058538457
22
 energy: -29.091461822404 gnorm: 0.009929351385 xtb: 6.7.1 (edcfbbe)
C           -1.99594251256952        0.90166620202467        1.24425264935477
C           -2.10096090699035       -0.25924809142313        0.26144749293001
C           -3.52491510492701       -0.37843592557047       -0.27309145385556
C           -1.12285286911223       -0.07861894311504       -0.91604894873383
C            0.30552085821172       -0.03873563159800       -0.47608903208148
C            0.93937422356005       -1.18525463518700        0.01420638015177
N            2.19804875740314       -1.19134144669863        0.42424944399091
C            2.84829811019587       -0.03196593513341        0.34108413748038
C            2.23758617783841        1.10757791884033       -0.15522423603290
N            0.97190979579705        1.11228336918230       -0.56376559068838
H           -2.20448814699921        1.84795462647235        0.74548477514075
H           -0.99725521828308        0.95888377750610        1.67647222428642
H           -2.71074431702938        0.77732272919542        2.05703894223560
H           -1.84396418135196       -1.18674380098959        0.78789783843873
H           -3.61267996027865       -1.21876987516049       -0.96024608310391
H           -4.22763140672626       -0.53209384796155        0.54446186132712
H           -3.81277468682134        0.52921095713164       -0.80342867523726
H           -1.35761707971429        0.84628053376950       -1.44730752124311
H           -1.25214952520112       -0.91894512459553       -1.60397974025228
H            0.40749905690618       -2.12671202217899        0.06797665814922
H            3.87692702548222       -0.02135718882984        0.67507018473301
H            2.77610821308946        2.04365659633194       -0.22864541475694
22
 energy: -29.091672981909 gnorm: 0.002970619067 xtb: 6.7.1 (edcfbbe)
C           -1.99114032704321        0.90260670061034        1.24104486671079
C           -2.09957285993794       -0.25911240970373        0.25898986386721
C           -3.52464772847483       -0.37905509984928       -0.27298907598648
C           -1.12380364894145       -0.07565248010614       -0.91763119744393
C            0.30321706359963       -0.04532700975837       -0.47541916275397
C            0.93842302455896       -1.18965236117649        0.01656604374695
N            2.19409388812145       -1.18665193482400        0.42560952224238
C            2.84299814286670       -0.03048102899756        0.34402217639355
C            2.22895637686302        1.10807257958210       -0.15297319316363
N            0.96771042980982        1.10318825637988       -0.56073380161926
H           -2.20286267101451        1.84322940158015        0.73973060127963
H           -0.99107489019636        0.96030135276635        1.66530156586285
H           -2.70119196046756        0.77664212506015        2.05443662361873
H           -1.84098212837467       -1.18528687777001        0.78413783250953
H           -3.61172164109864       -1.21799355710008       -0.95844797808895
H           -4.22172906012164       -0.53173739810395        0.54655188315126
H           -3.80768700084432        0.52829663455783       -0.80007653462527
H           -1.35034258223555        0.85755441349902       -1.43375495878272
H           -1.25498749769008       -0.90785438007087       -1.61252807392294
H            0.41713568872135       -2.13473056834239        0.07610781428403
H            3.86993781085834       -0.02747702950789        0.67719639744925
H            2.75656787352119        2.04773491328753       -0.23332532249598
22
 energy: -29.091716762387 gnorm: 0.002198635848 xtb: 6.7.1 (edcfbbe)
C           -1.98851725012200        0.90277280874431        1.23864382288046
C           -2.09878680808231       -0.26056580990090        0.25752978389782
C           -3.52544754710506       -0.37926985050475       -0.27199975028583
C           -1.12516325122104       -0.07437129145908       -0.91986099694269
C            0.30156872922964       -0.05011776780089       -0.47618086300627
C            0.93709541561218       -1.19314392354901        0.01840693783693
N            2.19315400310846       -1.18446144400300        0.42747539533003
C            2.84285540710925       -0.02906579288431        0.34557164390178
C            2.22726947948091        1.10868336066729       -0.15319077469352
N            0.96653355102798        1.09808901509554       -0.56082071812576
H           -2.20373133425741        1.84215665482012        0.73660012485044
H           -0.98633980323584        0.96185522257327        1.65752378144771
H           -2.69430558304346        0.77626129270712        2.05539122255903
H           -1.83877008272963       -1.18652341395648        0.78215898827013
H           -3.61318893083377       -1.21838710604709       -0.95688785348602
H           -4.22056421279358       -0.53147302910463        0.54912017105351
H           -3.80794771256616        0.52828230189123       -0.79873315791330
H           -1.34660086791545        0.86419544221381       -1.42797681624550
H           -1.25981369743990       -0.90057038108385       -1.62076754645621
H            0.42137045258926       -2.14111164672030        0.08045829554926
H            3.86851851668946       -0.02866049750861        0.68236152158281
H            2.74810782897817        2.05204009782277       -0.23300731977175
22
 energy: -29.091733521965 gnorm: 0.001040129564 xtb: 6.7.1 (edcfbbe)
C           -1.98589749891519        0.90248487038189        1.23679192391528
C           -2.09839782843548       -0.26115816019210        0.25555255300422
C           -3.52656720080443       -0.38020679290190       -0.27069960977259
C           -1.12609547280914       -0.07295007181976       -0.92247970862039
C            0.30102106931687       -0.05440308621133       -0.47901406327040
C            0.93622905724189       -1.19604039352298        0.01888490910015
N            2.19243284829564       -1.18302103562150        0.43032150840159
C            2.84254549765156       -0.02750648851729        0.34924847380153
C            2.22664124107605        1.10918489578318       -0.15226262408747
N            0.96669736887458        1.09407681173257       -0.56303633976062
H           -2.20638410886739        1.84149432605842        0.73532101050949
H           -0.98115701206642        0.96448078413270        1.64996912791742
H           -2.68668825091138        0.77482018566370        2.05804944055379
H           -1.83682444264370       -1.18711831529551        0.77950929956860
H           -3.61625518799832       -1.21991781061806       -0.95514871799214
H           -4.22030105601380       -0.53159470905389        0.55215109641532
H           -3.81007679169184        0.52739420540703       -0.79760652161721
H           -1.34372141772523        0.86996138200310       -1.42430475035835
H           -1.26504537318534       -0.89348054108828       -1.62924709309136
H            0.42402837758763       -2.14585046531395        0.08443423998790
H            3.86764552741138       -0.02882849060502        0.68850602999366
H            2.74346695709178        2.05479314161155       -0.23312429236539
22
 energy: -29.091737628349 gnorm: 0.000514421253 xtb: 6.7.1 (edcfbbe)
C           -1.98469766236468        0.90206952103671        1.23596587469794
C           -2.09785230138345       -0.26104975366943        0.25434398792638
C           -3.52651956618925       -0.38100425224738       -0.26980896530364
C           -1.12630736877920       -0.07158441682001       -0.92426171835271
C            0.30089012836127       -0.05528100144734       -0.48062161134546
C            0.93514169516272       -1.19621802218942        0.01950750600048
N            2.19119880118262       -1.18293677700844        0.43265871840620
C            2.84174188999454       -0.02747952037909        0.35125007147472
C            2.22712284789901        1.10844657479669       -0.15310133709893
N            0.96755206887999        1.09303841496246       -0.56587636220831
H           -2.21041869844108        1.84127953898540        0.73647503876767
H           -0.97821084704166        0.96716336483337        1.64487510739354
H           -2.68133387323523        0.77204949946662        2.06068494559354
H           -1.83507843320500       -1.18720328728942        0.77762463221193
H           -3.61769599076184       -1.22156140591801       -0.95343622664731
H           -4.21927069714715       -0.53179069325423        0.55430682182455
H           -3.81195431675141        0.52603568347417       -0.79734542784824
H           -1.34273170017034        0.87278769757199       -1.42400312969939
H           -1.26739817285380       -0.88977414950486       -1.63344043915355
H            0.42380058528385       -2.14649453554545        0.08509471723529
H            3.86583485173763       -0.02830210674531        0.69413790735799
H            2.74348306230217        2.05442386890356       -0.23321421899965
22
 energy: -29.091741479964 gnorm: 0.000780502094 xtb: 6.7.1 (edcfbbe)
C           -1.98392509738055        0.90158862870006        1.23551644000956
C           -2.09701113213266       -0.26074628376516        0.25335366613123
C           -3.52595296269353       -0.38191081763113       -0.26892381528076
C           -1.12626258385849       -0.06982409588755       -0.92584118530242
C            0.30106357193423       -0.05477392318777       -0.48271196267928
C            0.93389256268984       -1.19552224794704        0.01905972319502
N            2.18899801349810       -1.18321029839590        0.43527931362998
C            2.83979133745394       -0.02782867375665        0.35453772528612
C            2.22744858853819        1.10747390130679       -0.15347133591241
N            0.96874176375178        1.09307701787900       -0.56910909314022
H           -2.21630891192680        1.84065426439296        0.73861321767756
H           -0.97566000601807        0.97068932420388        1.63940151515086
H           -2.67570536360622        0.76772945817020        2.06377697197574
H           -1.83281043748863       -1.18705259895362        0.77578865614988
H           -3.61799959044876       -1.22354118737822       -0.95119320348156
H           -4.21768205025184       -0.53180005980017        0.55631725225311
H           -3.81299379768422        0.52413639317541       -0.79749407224508
H           -1.34250001057201        0.87533714889671       -1.42420309827602
H           -1.26842232029017       -0.88676436016020       -1.63623653956100
H            0.42173628033971       -2.14531282527717        0.08478936693938
H            3.86317725583757       -0.02807432925418        0.69964273137005
H            2.74568119278833        2.05228980668235       -0.23507638165669
22
 energy: -29.091744697175 gnorm: 0.000674547022 xtb: 6.7.1 (edcfbbe)
C           -1.98330405669655        0.90135299253512        1.23545367063724
C           -2.09596693337113       -0.26034627754116        0.25261817985139
C           -3.52517188816567       -0.38314399455244       -0.26822451025060
C           -1.12634379688386       -0.06775454604869       -0.92726162466543
C            0.30095118364992       -0.05339441506681       -0.48423686708230
C            0.93199395408775       -1.19444133732062        0.01895409109281
N            2.18604336911361       -1.18346669870921        0.43797730273643
C            2.83781361471529       -0.02875021291630        0.35717134085575
C            2.22819083616103        1.10618587537428       -0.15494413276883
N            0.97010407454071        1.09342203915842       -0.57212091640081
H           -2.22406844205671        1.83951272933121        0.74107776283519
H           -0.97302375970689        0.97566154175299        1.63315708357534
H           -2.66922517047520        0.76248542368377        2.06764583987861
H           -1.83005387684893       -1.18659138747961        0.77421868031283
H           -3.61750954246357       -1.22613071253024       -0.94862155468069
H           -4.21589226233933       -0.53150718805594        0.55802146054878
H           -3.81283565873509        0.52170019210304       -0.79823701159484
H           -1.34285565372302        0.87805316244212       -1.42417209119060
H           -1.26876107254489       -0.88393906362119       -1.63840178831877
H            0.41886769136199       -2.14385624103637        0.08266692965050
H            3.85978198193149       -0.02821618720059        0.70629903087215
H            2.74856171092880        2.04977854771079       -0.23722498366110
22
 energy: -29.091746373414 gnorm: 0.000284734498 xtb: 6.7.1 (edcfbbe)
C           -1.98307369799399        0.90137965215011        1.23538365018948
C           -2.09493845218358       -0.26027885956106        0.25214094295550
C           -3.52460641871373       -0.38442614026309       -0.26758103999628
C           -1.12656576705860       -0.06560498866402       -0.92837440314013
C            0.30099437996177       -0.05240593629810       -0.48613509021954
C            0.93043840779516       -1.19404960766360        0.01801207289921
N            2.18336308794971       -1.18340165524169        0.44025775286961
C            2.83625893327591       -0.02932543149176        0.36029598229764
C            2.22904143132063        1.10545078818994       -0.15546624285517
N            0.97160139260822        1.09340614030186       -0.57438350992516
H           -2.23161524370759        1.83851318240524        0.74307468926251
H           -0.97097368524824        0.98057593199776        1.62731623773600
H           -2.66344435679174        0.75798859120155        2.07126673422446
H           -1.82734251541351       -1.18634108746628        0.77312482170505
H           -3.61671978073247       -1.22872511072293       -0.94625135236253
H           -4.21463864627877       -0.53147730279436        0.55937360214206
H           -3.81257608318346        0.51932578178997       -0.79912611670824
H           -1.34335827987176        0.88104676811576       -1.42347864938932
H           -1.26936655717067       -0.88067910382617       -1.64067529469993
H            0.41614961823247       -2.14290215895063        0.08130514007179
H            3.85738609821011       -0.02929201554894        0.71166987982340
H            2.75128243747390        2.04783680435299       -0.23993391464736
22
 energy: -29.091746808673 gnorm: 0.000135373228 xtb: 6.7.1 (edcfbbe)
C           -1.98348074655704        0.90163277616393        1.23562799184171
C           -2.09463842520627       -0.25987908178110        0.25205332761485
C           -3.52432241623334       -0.38534769178549       -0.26748962666277
C           -1.12657820777852       -0.06442704416196       -0.92851235324446
C            0.30105877216307       -0.05161692337842       -0.48643921419852
C            0.92970587295547       -1.19369497959462        0.01799514722660
N            2.18236238221825       -1.18348947224586        0.44079332371891
C            2.83613709373649       -0.02992264597235        0.36068008752355
C            2.23000677652649        1.10497182802032       -0.15611889619328
N            0.97254672425618        1.09355639679035       -0.57504460523079
H           -2.23500904854858        1.83828208273137        0.74410681266202
H           -0.97089859291708        0.98293139732613        1.62570597147108
H           -2.66195619716443        0.75644948740661        2.07264126994128
H           -1.82628197824472       -1.18574780689843        0.77290760300665
H           -3.61597072205909       -1.23018875936751       -0.94556586113125
H           -4.21421750519905       -0.53216665608931        0.55960992572796
H           -3.81273482802753        0.51787906159597       -0.79966312227047
H           -1.34366555030362        0.88238017314566       -1.42316822768711
H           -1.26939925159604       -0.87916974666888       -1.64121399060947
H            0.41489960728514       -2.14228907230831        0.08055651915019
H            3.85682711391580       -0.03046025533626        0.71330551951184
H            2.75290542925816        2.04693117442074       -0.24095170993547
22
 energy: -29.091747034516 gnorm: 0.000116894111 xtb: 6.7.1 (edcfbbe)
C           -1.98415523794457        0.90191336172545        1.23576313943469
C           -2.09449364302149       -0.25966226929076        0.25214576483971
C           -3.52407796524672       -0.38598902110949       -0.26749904472829
C           -1.12654429262863       -0.06351937718193       -0.92836709810660
C            0.30112194980534       -0.05107371564832       -0.48637995007300
C            0.92930831271064       -1.19347587608732        0.01810098773712
N            2.18193104990093       -1.18366115353821        0.44086957050436
C            2.83632812681375       -0.03042187091643        0.36056068561937
C            2.23078890543388        1.10460797353483       -0.15655401800359
N            0.97319768369229        1.09365905828064       -0.57526065469211
H           -2.23716142743801        1.83834565097635        0.74458416765906
H           -0.97139769162627        0.98431624754675        1.62513917516640
H           -2.66187776708017        0.75571770714132        2.07320724151468
H           -1.82557835799960       -1.18539448592084        0.77297621207867
H           -3.61512735933345       -1.23107718036733       -0.94535247575135
H           -4.21395750873117       -0.53302742197212        0.55957621290927
H           -3.81303008466354        0.51691229557815       -0.79995681980189
H           -1.34366005121710        0.88351639264039       -1.42264114315520
H           -1.26935157600392       -0.87795273919768       -1.64146641584162
H            0.41410938017502       -2.14185509634741        0.08061507689212
H            3.85692750924203       -0.03163094239438        0.71342703238646
H            2.75399634764052        2.04636670456090       -0.24167175435526
22
 energy: -29.091747255695 gnorm: 0.000124005417 xtb: 6.7.1 (edcfbbe)
C           -1.98493514468002        0.90214022723542        1.23596138074177
C           -2.09448378970795       -0.25939042223244        0.25220628927834
C           -3.52391706547168       -0.38668464088249       -0.26760052786131
C           -1.12645136196625       -0.06262570525281       -0.92811864759135
C            0.30125074451854       -0.05061618698960       -0.48623128797229
C            0.92901493880415       -1.19323992100568        0.01841874524907
N            2.18171206327669       -1.18387612484029        0.44089416539274
C            2.83669025854953       -0.03093369877472        0.36019437610476
C            2.23156991640255        1.10424220328993       -0.15694519761616
N            0.97383318769647        1.09374274174795       -0.57541990198750
H           -2.23885096558822        1.83839735271426        0.74492868853139
H           -0.97216392433507        0.98539088945669        1.62514998464212
H           -2.66237909229175        0.75530328678682        2.07352746706191
H           -1.82507205626569       -1.18497075269469        0.77304577707404
H           -3.61434079896090       -1.23182600410881       -0.94548625670123
H           -4.21383551880663       -0.53415924983184        0.55937948836006
H           -3.81338283054562        0.51603486474802       -0.80009260969475
H           -1.34348637667810        0.88469283364996       -1.42189822024402
H           -1.26929455958232       -0.87662675573787       -1.64172736758640
H            0.41340064016796       -2.14137325761460        0.08128821241252
H            3.85736684381670       -0.03282174952397        0.71282132073935
H            2.75505119412737        2.04581431187330       -0.24247998610003
22
 energy: -29.091747522683 gnorm: 0.000141012215 xtb: 6.7.1 (edcfbbe)
C           -1.98603852753987        0.90240969595898        1.23615985031593
C           -2.09446582694048       -0.25915543580039        0.25233966254862
C           -3.52367962005240       -0.38752081702930       -0.26776711795166
C           -1.12631838939535       -0.06147817623864       -0.92773652043936
C            0.30140760017165       -0.05005912110645       -0.48588125363588
C            0.92865330446672       -1.19288410697770        0.01900274808311
N            2.18153206246873       -1.18421571202893        0.44090482709339
C            2.83721054704559       -0.03166385461145        0.35952961448595
C            2.23254889938557        1.10371318216689       -0.15755240626633
N            0.97461413654345        1.09387897138464       -0.57559288934781
H           -2.24078631447873        1.83852607546877        0.74524375510092
H           -0.97335613698068        0.98652631594228        1.62540867552200
H           -2.66338627089815        0.75490792437583        2.07370323420034
H           -1.82444787965015       -1.18457990376404        0.77316035414212
H           -3.61327792768053       -1.23264433118733       -0.94579450821772
H           -4.21362940837505       -0.53574903338331        0.55906210569704
H           -3.81388122399446        0.51502726006301       -0.80017814730801
H           -1.34317307149433        0.88626085455869       -1.42078720839692
H           -1.26922264066592       -0.87484070058406       -1.64206469532431
H            0.41245992372038       -2.14066114743852        0.08251947376544
H            3.85808815204325       -0.03420356141431        0.71158824191561
H            2.75644491478050        2.04501986365790       -0.24345190374941
22
 energy: -29.091747779160 gnorm: 0.000126324552 xtb: 6.7.1 (edcfbbe)
C           -1.98740245935560        0.90270522317484        1.23645801438520
C           -2.09448678564138       -0.25883690743091        0.25249137241436
C           -3.52343160574199       -0.38854282770838       -0.26799640533100
C           -1.12614195164419       -0.06009878913679       -0.92723288568310
C            0.30160719399456       -0.04941204093233       -0.48540589748597
C            0.92821430144028       -1.19242699646658        0.01979838127328
N            2.18135560215708       -1.18461917814963        0.44094104752774
C            2.83786129540146       -0.03260170577888        0.35864909607369
C            2.23368370084734        1.10308283023361       -0.15829593892188
N            0.97555110106049        1.09405693484586       -0.57577205865843
H           -2.24297812679967        1.83860678692313        0.74554188050399
H           -0.97485706992947        0.98777257093777        1.62588860219742
H           -2.66480169033754        0.75448189434887        2.07384756818770
H           -1.82377744531166       -1.18405669083944        0.77330128154702
H           -3.61198956923197       -1.23358772343211       -0.94626198571200
H           -4.21342932658103       -0.53771159542340        0.55862436295508
H           -3.81444232876588        0.51383045271487       -0.80024847466543
H           -1.34274510970159        0.88818106753043       -1.41935292186081
H           -1.26907409371013       -0.87267510029350       -1.64245005144688
H            0.41130439696112       -2.13976083416696        0.08413949907104
H            3.85903927548807       -0.03575576400305        0.70983532153510
H            2.75823699788146        2.04398263506511       -0.24468391567307
22
 energy: -29.091747922277 gnorm: 0.000064728273 xtb: 6.7.1 (edcfbbe)
C           -1.98866572787326        0.90298225652946        1.23673536542996
C           -2.09452184781607       -0.25859067953945        0.25266281275687
C           -3.52320986374684       -0.38946597316840       -0.26824909000024
C           -1.12599032610768       -0.05885589053877       -0.92671428276007
C            0.30178917956322       -0.04882074653401       -0.48492677483490
C            0.92783181464548       -1.19201524697627        0.02049330353052
N            2.18123268457463       -1.18497560148464        0.44093346972683
C            2.83847759200509       -0.03347511006740        0.35781323662428
C            2.23471765645944        1.10252347745439       -0.15901668057389
N            0.97640695460263        1.09423630410167       -0.57588195844455
H           -2.24493329755532        1.83870947421411        0.74585475514508
H           -0.97630418037140        0.98888721947847        1.62643119114722
H           -2.66614826117306        0.75413882221727        2.07393564390053
H           -1.82320779194078       -1.18363263962839        0.77346213845646
H           -3.61081506685207       -1.23444944619657       -0.94671292592000
H           -4.21327573664588       -0.53944996844796        0.55816071486098
H           -3.81489764889037        0.51275318896604       -0.80038063982272
H           -1.34239167234755        0.88987964754208       -1.41801755749824
H           -1.26893445797793       -0.87072513687868       -1.64272607124132
H            0.41025749913821       -2.13893229325579        0.08562828088547
H            3.85994762147383       -0.03712471175440        0.70815261844141
H            2.75993117931547        2.04301729597976       -0.24582165757662
22
 energy: -29.091747959550 gnorm: 0.000047871900 xtb: 6.7.1 (edcfbbe)
C           -1.98992899639091        0.90325928988407        1.23701271647472
C           -2.09455690999076       -0.25834445164799        0.25283425309937
C           -3.52298812175168       -0.39038911862841       -0.26850177466948
C           -1.12583870057118       -0.05761299194075       -0.92619567983705
C            0.30197116513187       -0.04822945213569       -0.48444765218384
C            0.92744932785069       -1.19160349748595        0.02118822578776
N            2.18110976699218       -1.18533202481964        0.44092589192591
C            2.83909388860872       -0.03434851435593        0.35697737717486
C            2.23575161207154        1.10196412467517       -0.15973742222590
N            0.97726280814477        1.09441567335748       -0.57599185823067
H           -2.24688846831097        1.83881216150509        0.74616762978616
H           -0.97775129081333        0.99000186801918        1.62697378009703
H           -2.66749483200857        0.75379575008567        2.07402371961336
H           -1.82263813856991       -1.18320858841734        0.77362299536591
H           -3.60964056447217       -1.23531116896103       -0.94716386612800
H           -4.21312214671074       -0.54118834147252        0.55769706676688
H           -3.81535296901487        0.51167592521722       -0.80051280498000
H           -1.34203823499352        0.89157822755373       -1.41668219313567
H           -1.26879482224574       -0.86877517346386       -1.64300209103576
H            0.40921060131530       -2.13810375234462        0.08711706269989
H            3.86085596745958       -0.03849365950575        0.70646991534772
H            2.76162536074947        2.04205195689440       -0.24695939948017
