
                                 *****************
                                 * O   R   C   A *
                                 *****************

                                            #,                                       
                                            ###                                      
                                            ####                                     
                                            #####                                    
                                            ######                                   
                                           ########,                                 
                                     ,,################,,,,,                         
                               ,,#################################,,                 
                          ,,##########################################,,             
                       ,#########################################, ''#####,          
                    ,#############################################,,   '####,        
                  ,##################################################,,,,####,       
                ,###########''''           ''''###############################       
              ,#####''   ,,,,##########,,,,          '''####'''          '####       
            ,##' ,,,,###########################,,,                        '##       
           ' ,,###''''                  '''############,,,                           
         ,,##''                                '''############,,,,        ,,,,,,###''
      ,#''                                            '''#######################'''  
     '                                                          ''''####''''         
             ,#######,   #######,   ,#######,      ##                                
            ,#'     '#,  ##    ##  ,#'     '#,    #''#        ,####,   ,####,        
            ##       ##  ##   ,#'  ##            #'  '#       #'       #'  '#        
            ##       ##  #######   ##           ,######,      #####,   #    #        
            '#,     ,#'  ##    ##  '#,     ,#' ,#      #,     #,   #   #,  ,#        
             '#######'   ##     ##  '#######'  #'      '#     '####' # '####'        



                #########################################################
                #                        -***-                          #
                #          Department of theory and spectroscopy        #
                #                                                       #
                #                      Frank Neese                      #
                #                                                       #
                #     Directorship, Architecture, Infrastructure        #
                #                    SHARK, DRIVERS                     #
                #        Core code/Algorithms in most modules           #
                #                                                       #
                #        Max Planck Institute fuer Kohlenforschung      #
                #                Kaiser Wilhelm Platz 1                 #
                #                 D-45470 Muelheim/Ruhr                 #
                #                      Germany                          #
                #                                                       #
                #                  All rights reserved                  #
                #                        -***-                          #
                #########################################################


                         Program Version 6.0.0  -   RELEASE  -


 With contributions from (in alphabetic order):
   Daniel Aravena         : Magnetic Suceptibility
   Michael Atanasov       : Ab Initio Ligand Field Theory (pilot matlab implementation)
   Alexander A. Auer      : GIAO ZORA, VPT2 properties, NMR spectrum
   Ute Becker             : All parallelization in ORCA, NUMFREQ, NUMCALC
   Giovanni Bistoni       : ED, misc. LED, open-shell LED, HFLD
   Martin Brehm           : Molecular dynamics
   Dmytro Bykov           : pre 5.0 version of the SCF Hessian
   Marcos Casanova-Páez   : Triplet and SCS-CIS(D). UHF-(DLPNO)-IP/EA/STEOM-CCSD. UHF-CVS-IP/STEOM-CCSD
   Vijay G. Chilkuri      : MRCI spin determinant printing, contributions to CSF-ICE
   Pauline Colinet        : FMM embedding
   Dipayan Datta          : RHF DLPNO-CCSD density
   Achintya Kumar Dutta   : EOM-CC, STEOM-CC
   Nicolas Foglia         : Exact transition moments, OPA infrastructure, MCD improvements
   Dmitry Ganyushin       : Spin-Orbit,Spin-Spin,Magnetic field MRCI
   Miquel Garcia          : C-PCM and meta-GGA Hessian, CCSD/C-PCM, Gaussian charge scheme
   Tiago L. C. Gouveia    : GS-ROHF, GS-ROCIS
   Yang Guo               : DLPNO-NEVPT2, F12-NEVPT2, CIM, IAO-localization
   Andreas Hansen         : Spin unrestricted coupled pair/coupled cluster methods
   Ingolf Harden          : AUTO-CI MPn and infrastructure 
   Benjamin Helmich-Paris : MC-RPA, TRAH-(SCF,CASSCF), AVAS, COSX integrals, SCF dyn. polar.
   Lee Huntington         : MR-EOM, pCC
   Robert Izsak           : Overlap fitted RIJCOSX, COSX-SCS-MP3, EOM
   Riya Kayal             : Wick's Theorem for AUTO-CI, AUTO-CI UHF-CCSDT
   Emily Kempfer          : AUTO-CI, RHF CISDT and CCSDT
   Christian Kollmar      : KDIIS, OOCD, Brueckner-CCSD(T), CCSD density, CASPT2, CASPT2-K, improved NEVPT2
   Axel Koslowski         : Symmetry handling
   Simone Kossmann        : Meta GGA functionals, TD-DFT gradient, OOMP2, (MP2 Hessian; deprecated post 5.0)
   Lucas Lang             : DCDCAS
   Marvin Lechner         : AUTO-CI (C++ implementation), FIC-MRCC
   Spencer Leger          : CASSCF response
   Dagmar Lenk            : GEPOL surface, SMD, ORCA-2-JSON
   Dimitrios Liakos       : Extrapolation schemes; Compound Job, initial MDCI parallelization
   Dimitrios Manganas     : Further ROCIS development; embedding schemes. LFT, Crystal Embedding
   Dimitrios Pantazis     : SARC Basis sets
   Anastasios Papadopoulos: AUTO-CI, single reference methods and gradients
   Taras Petrenko         : pre 6.0 DFT Hessian and TD-DFT gradient, (ASA, deprecated), ECA, 1-Electron XAS/XES, NRVS
   Peter Pinski           : DLPNO-MP2, DLPNO-MP2 Gradient
   Christoph Reimann      : Effective Core Potentials
   Marius Retegan         : Local ZFS, SOC
   Christoph Riplinger    : Optimizer, TS searches, QM/MM, DLPNO-CCSD(T), (RO)-DLPNO pert. Triples
   Michael Roemelt        : Original ROCIS implementation
   Masaaki Saitow         : Open-shell DLPNO-CCSD energy and density
   Barbara Sandhoefer     : DKH picture change effects
   Kantharuban Sivalingam : CASSCF convergence/infrastructure, NEVPT2 and variants, FIC-MRCI
   Bernardo de Souza      : ESD, SOC TD-DFT
   Georgi Stoychev        : AutoAux, RI-MP2 NMR, DLPNO-MP2 response, X2C
   Van Anh Tran           : RI-MP2 g-tensors
   Willem Van den Heuvel  : Paramagnetic NMR
   Zikuan Wang            : NOTCH, Electric field optimization 
   Frank Wennmohs         : Technical directorship and infrastructure
   Hang Xu                : AUTO-CI-Response properties 


 We gratefully acknowledge several colleagues who have allowed us to
 interface, adapt or use parts of their codes:
   Stefan Grimme, W. Hujo, H. Kruse, P. Pracht,  : VdW corrections, initial TS optimization,
                  C. Bannwarth, S. Ehlert,         DFT functionals, gCP, sTDA/sTD-DF
                  L. Wittmann, M. Mueller
   Ed Valeev, F. Pavosevic, A. Kumar             : LibInt (2-el integral package), F12 methods
   Garnet Chan, S. Sharma, J. Yang, R. Olivares  : DMRG
   Ulf Ekstrom                                   : XCFun DFT Library
   Mihaly Kallay                                 : mrcc  (arbitrary order and MRCC methods)
   Frank Weinhold                                : gennbo (NPA and NBO analysis)
   Simon Mueller                                 : openCOSMO-RS
   Christopher J. Cramer and Donald G. Truhlar   : smd solvation model
   Lars Goerigk                                  : TD-DFT with DH, B97 family of functionals
   V. Asgeirsson, H. Jonsson                     : NEB implementation
   FAccTs GmbH                                   : IRC, NEB, NEB-TS, DLPNO-Multilevel, CI-OPT
                                                   MM, QMMM, 2- and 3-layer-ONIOM, Crystal-QMMM,
                                                   LR-CPCM, SF, NACMEs, symmetry and pop. for TD-DFT,
                                                   nearIR, NL-DFT gradient (VV10), updates on ESD,
                                                   ML-optimized integration grids, MBIS, APM,
                                                   GOAT, DOCKER, SOLVATOR, interface openCOSMO-RS
   S Lehtola, MJT Oliveira, MAL Marques          : LibXC Library
   Liviu Ungur et al                             : ANISO software


 Your calculation uses the libint2 library for the computation of 2-el integrals
 For citations please refer to: http://libint.valeyev.net

 Your ORCA version has been built with support for libXC version: 6.2.2
 For citations please refer to: https://libxc.gitlab.io

 This ORCA versions uses:
   CBLAS   interface :  Fast vector & matrix operations
   LAPACKE interface :  Fast linear algebra routines
   SCALAPACK package :  Parallel linear algebra routines
   Shared memory     :  Shared parallel matrices
   BLAS/LAPACK       :  OpenBLAS 0.3.27  USE64BITINT DYNAMIC_ARCH NO_AFFINITY SkylakeX SINGLE_THREADED
        Core in use  :  SkylakeX
   Copyright (c) 2011-2014, The OpenBLAS Project


Your calculation utilizes the geometrical counterpoise correction gCP
Please cite in your paper:
H.Kruse, S. Grimme J.Chem.Phys., 136, (2012), 154101 
   

Your calculation utilizes the atom-pairwise dispersion correction
based on EEQ partial charges (D4)


================================================================================

----- Orbital basis set information -----
Your calculation utilizes the basis: def2-SV(P)
   F. Weigend and R. Ahlrichs, Phys. Chem. Chem. Phys. 7, 3297 (2005).

----- AuxJ basis set information -----
Your calculation utilizes the auxiliary basis: def2/J
   F. Weigend, Phys. Chem. Chem. Phys. 8, 1057 (2006).

================================================================================
                                        WARNINGS
                       Please study these warnings very carefully!
================================================================================


================================================================================
                                       INPUT FILE
================================================================================
NAME = sp.inp
|  1> ! pbe def2-sv(p) def2/J RI DEFGRID1 loosescf d4 GCP(DFT/SV(P)) printgap
|  2> %output
|  3>     printlevel normal
|  4> end
|  5> * xyz 0 1
|  6> C 2.0639009768 1.0302086329 0.4817575359
|  7> C 1.4912173056 -0.0526318028 -0.4275231507
|  8> C 0.0476748366 -0.4188405792 -0.1740253828
|  9> O -0.3350802835 -1.5684102632 -0.285332804
| 10> C -0.8816846155 0.7108372042 0.185884152
| 11> C -2.3454551019 0.2884966114 0.1865117861
| 12> H 1.5628864873 1.9814535723 0.331747955
| 13> H 1.9687347057 0.7420549782 1.5256344803
| 14> H 3.1196165334 1.1634870825 0.2613164105
| 15> H 1.5408724412 0.2824783509 -1.4676949152
| 16> H 2.0835990281 -0.9670793753 -0.3541402965
| 17> H -0.7170748228 1.5321496338 -0.5129915471
| 18> H -0.5958905873 1.0621127698 1.1797671883
| 19> H -2.9797560631 1.1175416558 0.4864452702
| 20> H -2.4967480353 -0.5402955746 0.8740554589
| 21> H -2.6437185973 -0.0441036493 -0.8050191226
| 22> *
| 23> 
| 24>                          ****END OF INPUT****
================================================================================

                       ****************************
                       * Single Point Calculation *
                       ****************************

---------------------------------
CARTESIAN COORDINATES (ANGSTROEM)
---------------------------------
  C      2.063901    1.030209    0.481758
  C      1.491217   -0.052632   -0.427523
  C      0.047675   -0.418841   -0.174025
  O     -0.335080   -1.568410   -0.285333
  C     -0.881685    0.710837    0.185884
  C     -2.345455    0.288497    0.186512
  H      1.562886    1.981454    0.331748
  H      1.968735    0.742055    1.525634
  H      3.119617    1.163487    0.261316
  H      1.540872    0.282478   -1.467695
  H      2.083599   -0.967079   -0.354140
  H     -0.717075    1.532150   -0.512992
  H     -0.595891    1.062113    1.179767
  H     -2.979756    1.117542    0.486445
  H     -2.496748   -0.540296    0.874055
  H     -2.643719   -0.044104   -0.805019

----------------------------
CARTESIAN COORDINATES (A.U.)
----------------------------
  NO LB      ZA    FRAG     MASS         X           Y           Z
   0 C     6.0000    0    12.011    3.900208    1.946812    0.910390
   1 C     6.0000    0    12.011    2.817992   -0.099460   -0.807902
   2 C     6.0000    0    12.011    0.090092   -0.791494   -0.328860
   3 O     8.0000    0    15.999   -0.633210   -2.963866   -0.539201
   4 C     6.0000    0    12.011   -1.666142    1.343288    0.351270
   5 C     6.0000    0    12.011   -4.432268    0.545180    0.352456
   6 H     1.0000    0     1.008    2.953427    3.744405    0.626913
   7 H     1.0000    0     1.008    3.720369    1.402281    2.883031
   8 H     1.0000    0     1.008    5.895221    2.198672    0.493816
   9 H     1.0000    0     1.008    2.911827    0.533807   -2.773541
  10 H     1.0000    0     1.008    3.937432   -1.827515   -0.669228
  11 H     1.0000    0     1.008   -1.355075    2.895343   -0.969414
  12 H     1.0000    0     1.008   -1.126070    2.007102    2.229437
  13 H     1.0000    0     1.008   -5.630923    2.111848    0.919248
  14 H     1.0000    0     1.008   -4.718170   -1.021011    1.651725
  15 H     1.0000    0     1.008   -4.995904   -0.083344   -1.521266

--------------------------------
INTERNAL COORDINATES (ANGSTROEM)
--------------------------------
 C      0   0   0     0.000000000000     0.00000000     0.00000000
 C      1   0   0     1.525549528357     0.00000000     0.00000000
 C      2   1   0     1.510690188639   115.51565431     0.00000000
 O      3   2   1     1.216717420911   120.94934984   216.55559793
 C      3   2   1     1.506458017588   116.60286989    37.98664972
 C      5   3   2     1.523481541440   112.64069896   170.11974497
 H      1   2   3     1.085534581570   111.49194379   295.63006313
 H      1   2   3     1.087091635016   110.56878184    56.98446274
 H      1   2   3     1.086688902742   109.31982996   176.00230291
 H      2   1   3     1.093947780869   109.40605440   119.58975596
 H      2   1   3     1.092023585503   110.52955147   237.41602545
 H      5   3   2     1.090906840047   108.56782585    47.11736820
 H      5   3   2     1.092188737988   107.28720104   291.17430299
 H      6   5   3     1.086100128859   110.46481148   177.85831323
 H      6   5   3     1.087429235067   110.19536355    57.33239796
 H      6   5   3     1.087528201480   110.35990887   298.42645955

---------------------------
INTERNAL COORDINATES (A.U.)
---------------------------
 C      0   0   0     0.000000000000     0.00000000     0.00000000
 C      1   0   0     2.882870812327     0.00000000     0.00000000
 C      2   1   0     2.854790729729   115.51565431     0.00000000
 O      3   2   1     2.299262707893   120.94934984   216.55559793
 C      3   2   1     2.846793085491   116.60286989    37.98664972
 C      5   3   2     2.878962883405   112.64069896   170.11974497
 H      1   2   3     2.051363068069   111.49194379   295.63006313
 H      1   2   3     2.054305472657   110.56878184    56.98446274
 H      1   2   3     2.053544418954   109.31982996   176.00230291
 H      2   1   3     2.067261710653   109.40605440   119.58975596
 H      2   1   3     2.063625508382   110.52955147   237.41602545
 H      5   3   2     2.061515165310   108.56782585    47.11736820
 H      5   3   2     2.063937601350   107.28720104   291.17430299
 H      6   5   3     2.052431797560   110.46481148   177.85831323
 H      6   5   3     2.054943444296   110.19536355    57.33239796
 H      6   5   3     2.055130463712   110.35990887   298.42645955

---------------------
BASIS SET INFORMATION
---------------------
There are 3 groups of distinct atoms

 Group   1 Type C   : 7s4p1d contracted to 3s2p1d pattern {511/31/1}
 Group   2 Type O   : 7s4p1d contracted to 3s2p1d pattern {511/31/1}
 Group   3 Type H   : 4s contracted to 2s pattern {31}

Atom   0C    basis set group =>   1
Atom   1C    basis set group =>   1
Atom   2C    basis set group =>   1
Atom   3O    basis set group =>   2
Atom   4C    basis set group =>   1
Atom   5C    basis set group =>   1
Atom   6H    basis set group =>   3
Atom   7H    basis set group =>   3
Atom   8H    basis set group =>   3
Atom   9H    basis set group =>   3
Atom  10H    basis set group =>   3
Atom  11H    basis set group =>   3
Atom  12H    basis set group =>   3
Atom  13H    basis set group =>   3
Atom  14H    basis set group =>   3
Atom  15H    basis set group =>   3
---------------------------------
AUXILIARY/J BASIS SET INFORMATION
---------------------------------
There are 3 groups of distinct atoms

 Group   1 Type C   : 12s5p4d2f1g contracted to 6s4p3d1f1g pattern {711111/2111/211/2/1}
 Group   2 Type O   : 12s5p4d2f1g contracted to 6s4p3d1f1g pattern {711111/2111/211/2/1}
 Group   3 Type H   : 5s2p1d contracted to 3s1p1d pattern {311/2/1}

Atom   0C    basis set group =>   1
Atom   1C    basis set group =>   1
Atom   2C    basis set group =>   1
Atom   3O    basis set group =>   2
Atom   4C    basis set group =>   1
Atom   5C    basis set group =>   1
Atom   6H    basis set group =>   3
Atom   7H    basis set group =>   3
Atom   8H    basis set group =>   3
Atom   9H    basis set group =>   3
Atom  10H    basis set group =>   3
Atom  11H    basis set group =>   3
Atom  12H    basis set group =>   3
Atom  13H    basis set group =>   3
Atom  14H    basis set group =>   3
Atom  15H    basis set group =>   3
------------------------------------------------------------------------------
                             ORCA STARTUP CALCULATIONS
                           -- RI-GTO INTEGRALS CHOSEN --
------------------------------------------------------------------------------
------------------------------------------------------------------------------
                   ___                                                        
                  /   \      - P O W E R E D   B Y -                         
                 /     \                                                     
                 |  |  |   _    _      __       _____    __    __             
                 |  |  |  | |  | |    /  \     |  _  \  |  |  /  |          
                  \  \/   | |  | |   /    \    | | | |  |  | /  /          
                 / \  \   | |__| |  /  /\  \   | |_| |  |  |/  /          
                |  |  |   |  __  | /  /__\  \  |    /   |      \           
                |  |  |   | |  | | |   __   |  |    \   |  |\   \          
                \     /   | |  | | |  |  |  |  | |\  \  |  | \   \       
                 \___/    |_|  |_| |__|  |__|  |_| \__\ |__|  \__/        
                                                                              
                      - O R C A' S   B I G   F R I E N D -                    
                                      &                                       
                       - I N T E G R A L  F E E D E R -                       
                                                                              
 v1 FN, 2020, v2 2021, v3 2022-2024                                           
------------------------------------------------------------------------------


----------------------
SHARK INTEGRAL PACKAGE
----------------------

Number of atoms                             ...     16
Number of basis functions                   ...    104
Number of shells                            ...     56
Maximum angular momentum                    ...      2
Integral batch strategy                     ... SHARK/LIBINT Hybrid
RI-J (if used) integral strategy            ... SPLIT-RIJ (Revised 2003 algorithm where possible)
Printlevel                                  ...      1
Contraction scheme used                     ... SEGMENTED contraction
Prescreening option                         ... SCHWARTZ
   Thresh                                   ... 1.000e-09
   Tcut                                     ... 1.000e-10
   Tpresel                                  ... 1.000e-10 
Coulomb Range Separation                    ... NOT USED
Exchange Range Separation                   ... NOT USED
Multipole approximations                    ... NOT USED
Finite Nucleus Model                        ... NOT USED
CABS basis                                  ... NOT available
Auxiliary Coulomb fitting basis             ... AVAILABLE
   # of basis functions in Aux-J            ...    404
   # of shells in Aux-J                     ...    140
   Maximum angular momentum in Aux-J        ...      4
Auxiliary J/K fitting basis                 ... NOT available
Auxiliary Correlation fitting basis         ... NOT available
Auxiliary 'external' fitting basis          ... NOT available

Checking pre-screening integrals            ... done (  0.0 sec) Dimension = 56
Check shell pair data                       ... done (  0.0 sec)
Shell pair information
Shell pair cut-off parameter TPreSel        ...   1.0e-10
Total number of shell pairs                 ...      1596
Shell pairs after pre-screening             ...      1547
Total number of primitive shell pairs       ...      6436
Primitive shell pairs kept                  ...      4555
          la=0 lb=0:    708 shell pairs
          la=1 lb=0:    449 shell pairs
          la=1 lb=1:     78 shell pairs
          la=2 lb=0:    219 shell pairs
          la=2 lb=1:     72 shell pairs
          la=2 lb=2:     21 shell pairs

Calculating one electron integrals          ... done (  0.0 sec)
Calculating RI/J V-Matrix + Cholesky decomp.... done (  0.1 sec)
Calculating Nuclear repulsion               ... done (  0.0 sec) ENN=    241.038813696842 Eh

Diagonalization of the overlap matrix:
Smallest eigenvalue                        ... 1.894e-03
Time for diagonalization                   ...    0.001 sec
Threshold for overlap eigenvalues          ... 1.000e-07
Number of eigenvalues below threshold      ... 0
Time for construction of square roots      ...    0.011 sec
Total time needed                          ...    0.019 sec

-------------------
DFT GRID GENERATION
-------------------

General Integration Accuracy     IntAcc      ... 4.159
Radial Grid Type                 RadialGrid  ... OptM3 with GC (2021)
Angular Grid (max. ang.)         AngularGrid ... 3 (Lebedev-194)
Angular grid pruning method      GridPruning ... 4 (adaptive)
Weight generation scheme         WeightScheme... mBecke (2022)
Basis function cutoff            BFCut       ... 1.0000e-10
Integration weight cutoff        WCut        ... 1.0000e-14
Partially contracted basis set               ... off
Rotationally invariant grid construction     ... off
Angular grids for H and He will be reduced by one unit

Total number of grid points                  ...    33722
Total number of batches                      ...      536
Average number of points per batch           ...       62
Average number of grid points per atom       ...     2108
Initializing property integral containers    ... done (  0.0 sec)

SHARK setup successfully completed in   0.5 seconds

Maximum memory used throughout the entire STARTUP-calculation: 16.9 MB
-------------------------------------------------------------------------------
                                 ORCA GUESS
                   Start orbitals & Density for SCF / CASSCF
-------------------------------------------------------------------------------

------------
SCF SETTINGS
------------
Hamiltonian:
 Density Functional     Method          .... DFT(GTOs)
 Exchange Functional    Exchange        .... PBE
   PBE kappa parameter   XKappa         ....  0.804000
   PBE mue parameter    XMuePBE         ....  0.219520
 Correlation Functional Correlation     .... PBE
   PBE beta parameter  CBetaPBE         ....  0.066725
 LDA part of GGA corr.  LDAOpt          .... PW91-LDA
 Gradients option       PostSCFGGA      .... off
   NL short-range parameter             ....  6.400000
 RI-approximation to the Coulomb term is turned on
   Number of AuxJ basis functions       .... 404


General Settings:
 Integral files         IntName         .... sp
 Hartree-Fock type      HFTyp           .... RHF
 Total Charge           Charge          ....    0
 Multiplicity           Mult            ....    1
 Number of Electrons    NEL             ....   48
 Basis Dimension        Dim             ....  104
 Nuclear Repulsion      ENuc            ....    241.0388136968 Eh

Convergence Acceleration:
 AO-DIIS                CNVDIIS         .... on
   Start iteration      DIISMaxIt       ....    12
   Startup error        DIISStart       ....  0.200000
   # of expansion vecs  DIISMaxEq       ....     5
   Bias factor          DIISBfac        ....   1.050
   Max. coefficient     DIISMaxC        ....  10.000
 MO-DIIS                CNVKDIIS        .... off
 Trust-Rad. Augm. Hess. CNVTRAH         .... auto
   Auto Start mean grad. ratio tolernc. ....  1.125000
   Auto Start start iteration           ....    50
   Auto Start num. interpolation iter.  ....    10
   Max. Number of Micro iterations      ....    24
   Max. Number of Macro iterations      .... Maxiter - #DIIS iter
   Number of Davidson start vectors     ....     2
   Converg. threshold    (grad. norm)   ....   1.000e-04
   Grad. Scal. Fac. for Micro threshold ....   0.100
   Minimum threshold for Micro iter.    ....   1.000e-02
   NR start threshold (gradient norm)   ....   1.000e-04
   Initial trust radius                 ....   0.400
   Minimum AH scaling param. (alpha)    ....   1.000
   Maximum AH scaling param. (alpha)    .... 1000.000
   Quad. conv. algorithm                .... NR
   White noise on init. David. guess    .... on
   Maximum white noise                  ....   0.010
   Pseudo random numbers                .... off
   Inactive MOs                         .... canonical
   Orbital update algorithm             .... Taylor
   Preconditioner                       .... Diag
   Full preconditioner red. dimension   ....   250
 SOSCF                  CNVSOSCF        .... on
   Start iteration      SOSCFMaxIt      ....   150
   Startup grad/error   SOSCFStart      ....  0.003300
   Hessian update       SOSCFHessUp     .... L-BFGS
 Level Shifting         CNVShift        .... on
   Level shift para.    LevelShift      ....    0.2500
   Turn off err/grad.   ShiftErr        ....    0.0010
 Zerner damping         CNVZerner       .... off
 Static damping         CNVDamp         .... on
   Fraction old density DampFac         ....    0.7000
   Max. Damping (<1)    DampMax         ....    0.9800
   Min. Damping (>=0)   DampMin         ....    0.0000
   Turn off err/grad.   DampErr         ....    0.1000

SCF Procedure:
 Maximum # iterations   MaxIter         ....   125
 SCF integral mode      SCFMode         .... Direct
   Integral package                     .... SHARK and LIBINT hybrid scheme
 Reset frequency        DirectResetFreq ....    20
 Integral Threshold     Thresh          ....  1.000e-09 Eh
 Primitive CutOff       TCut            ....  1.000e-10 Eh

Convergence Tolerance:
 Convergence Check Mode ConvCheckMode   .... Total+1el-Energy
 Convergence forced     ConvForced      .... 0
 Energy Change          TolE            ....  1.000e-05 Eh
 1-El. energy change                    ....  1.000e-02 Eh
 Orbital Gradient       TolG            ....  1.000e-04
 Orbital Rotation angle TolX            ....  1.000e-04
 DIIS Error             TolErr          ....  5.000e-04

------------------------------
INITIAL GUESS: MODEL POTENTIAL
------------------------------
Loading Hartree-Fock densities                     ... done
Calculating cut-offs                               ... done
Initializing the effective Hamiltonian             ... done
Setting up the integral package (SHARK)            ... done
Starting the Coulomb interaction                   ... done (   0.1 sec)
Making the grid                                    ... done (   0.1 sec)
Mapping shells                                     ... done
Starting the XC term evaluation                    ... done (   0.1 sec)
  promolecular density results
     # of electrons  =     47.991354450
     EX              =    -36.657849566
     EC              =     -1.562157389
     EX+EC           =    -38.220006955
Transforming the Hamiltonian                       ... done (   0.0 sec)
Diagonalizing the Hamiltonian                      ... done (   0.0 sec)
Back transforming the eigenvectors                 ... done (   0.0 sec)
Now organizing SCF variables                       ... done
                      ------------------
                      INITIAL GUESS DONE (   0.3 sec)
                      ------------------
             **** ENERGY FILE WAS UPDATED (sp.en.tmp) ****
Finished Guess after   0.5 sec
Maximum memory used throughout the entire GUESS-calculation: 12.9 MB

-------------------------------------------------------------------------------------------
                                      ORCA LEAN-SCF
                              memory conserving SCF solver
-------------------------------------------------------------------------------------------

----------------------------------------D-I-I-S--------------------------------------------
Iteration    Energy (Eh)           Delta-E    RMSDP     MaxDP     DIISErr   Damp  Time(sec)
-------------------------------------------------------------------------------------------
               ***  Starting incremental Fock matrix formation  ***
    1    -270.9924825564129947     0.00e+00  7.74e-03  1.83e-01  2.26e-01  0.700   0.4
    2    -271.0962923107053371    -1.04e-01  4.97e-03  1.11e-01  7.63e-02  0.700   0.5
                               ***Turning on AO-DIIS***
    3    -271.1284352925558210    -3.21e-02  1.68e-03  1.96e-02  2.60e-02  0.700   0.5
    4    -271.1489285459193184    -2.05e-02  2.23e-03  2.31e-02  1.92e-02  0.000   0.5
    5    -271.1965119872192531    -4.76e-02  8.53e-04  1.50e-02  9.37e-03  0.000   0.5
                              *** Initializing SOSCF ***
---------------------------------------S-O-S-C-F--------------------------------------
Iteration    Energy (Eh)           Delta-E    RMSDP     MaxDP     MaxGrad    Time(sec)
--------------------------------------------------------------------------------------
    6    -271.1972692659690551    -7.57e-04  2.70e-04  3.44e-03  2.27e-03     0.5
               *** Restarting incremental Fock matrix formation ***
    7    -271.1973213831453791    -5.21e-05  2.45e-04  4.66e-03  4.79e-04     0.5
    8    -271.1973215611608907    -1.78e-07  1.11e-04  2.70e-03  5.06e-04     0.4
                 **** Energy Check signals convergence ****

               *****************************************************
               *                     SUCCESS                       *
               *           SCF CONVERGED AFTER   8 CYCLES          *
               *****************************************************

             **** ENERGY FILE WAS UPDATED (sp.en.tmp) ****

----------------
TOTAL SCF ENERGY
----------------

Total Energy       :       -271.19732156116089 Eh           -7379.65429 eV

Components:
Nuclear Repulsion  :        241.03881369684171 Eh            6558.99957 eV
Electronic Energy  :       -512.23613525800261 Eh          -13938.65387 eV
One Electron Energy:       -843.93268172139665 Eh          -22964.57577 eV
Two Electron Energy:        331.69654646339410 Eh            9025.92190 eV

Virial components:
Potential Energy   :       -540.09268832144608 Eh          -14696.66921 eV
Kinetic Energy     :        268.89536676028519 Eh            7317.01492 eV
Virial Ratio       :          2.00856078268886

DFT components:
N(Alpha)           :       24.000053508996 electrons
N(Beta)            :       24.000053508996 electrons
N(Total)           :       48.000107017993 electrons
E(X)               :      -37.498991087218 Eh       
E(C)               :       -1.577669203408 Eh       
E(XC)              :      -39.076660290627 Eh       

---------------
SCF CONVERGENCE
---------------

  Last Energy change         ...    1.7802e-07  Tolerance :   1.0000e-05
  Last MAX-Density change    ...    2.7022e-03  Tolerance :   1.0000e-03
  Last RMS-Density change    ...    1.1138e-04  Tolerance :   1.0000e-04
  Last DIIS Error            ...    2.2701e-03  Tolerance :   5.0000e-04
  Last Orbital Gradient      ...    5.0617e-04  Tolerance :   1.0000e-04
  Last Orbital Rotation      ...    7.7327e-04  Tolerance :   1.0000e-04


----------------
ORBITAL ENERGIES
----------------

  NO   OCC          E(Eh)            E(eV) 
   0   2.0000     -18.736321      -509.8412 
   1   2.0000      -9.967945      -271.2416 
   2   2.0000      -9.894982      -269.2562 
   3   2.0000      -9.893042      -269.2034 
   4   2.0000      -9.889182      -269.0983 
   5   2.0000      -9.875209      -268.7181 
   6   2.0000      -0.932420       -25.3724 
   7   2.0000      -0.719900       -19.5895 
   8   2.0000      -0.687672       -18.7125 
   9   2.0000      -0.594761       -16.1843 
  10   2.0000      -0.563129       -15.3235 
  11   2.0000      -0.458670       -12.4810 
  12   2.0000      -0.433443       -11.7946 
  13   2.0000      -0.419348       -11.4110 
  14   2.0000      -0.402912       -10.9638 
  15   2.0000      -0.382426       -10.4063 
  16   2.0000      -0.350519        -9.5381 
  17   2.0000      -0.343386        -9.3440 
  18   2.0000      -0.335485        -9.1290 
  19   2.0000      -0.316915        -8.6237 
  20   2.0000      -0.313713        -8.5366 
  21   2.0000      -0.304973        -8.2987 
  22   2.0000      -0.296658        -8.0725 
  23   2.0000      -0.193301        -5.2600 
  24   0.0000      -0.046788        -1.2732 
  25   0.0000       0.028910         0.7867 
  26   0.0000       0.058635         1.5955 
  27   0.0000       0.071851         1.9552 
  28   0.0000       0.083222         2.2646 
  29   0.0000       0.103439         2.8147 
  30   0.0000       0.107511         2.9255 
  31   0.0000       0.115443         3.1414 
  32   0.0000       0.127923         3.4810 
  33   0.0000       0.131531         3.5791 
  34   0.0000       0.149644         4.0720 
*Only the first 10 virtual orbitals were printed.

                    ********************************
                    * MULLIKEN POPULATION ANALYSIS *
                    ********************************

-----------------------
MULLIKEN ATOMIC CHARGES
-----------------------
   0 C :   -0.295942
   1 C :   -0.155384
   2 C :   -0.010406
   3 O :   -0.171376
   4 C :   -0.221941
   5 C :   -0.245931
   6 H :    0.112454
   7 H :    0.114702
   8 H :    0.113494
   9 H :    0.115847
  10 H :    0.099746
  11 H :    0.109426
  12 H :    0.118131
  13 H :    0.097180
  14 H :    0.112484
  15 H :    0.107517
Sum of atomic charges:   -0.0000000

--------------------------------
MULLIKEN REDUCED ORBITAL CHARGES
--------------------------------
  0 C s       :     3.098971  s :     3.098971
      pz      :     1.047937  p :     3.167689
      px      :     1.066966
      py      :     1.052786
      dz2     :     0.010323  d :     0.029283
      dxz     :     0.002123
      dyz     :     0.003969
      dx2y2   :     0.007502
      dxy     :     0.005365

  1 C s       :     3.022048  s :     3.022048
      pz      :     1.042340  p :     3.099751
      px      :     1.025514
      py      :     1.031897
      dz2     :     0.010326  d :     0.033585
      dxz     :     0.003043
      dyz     :     0.004442
      dx2y2   :     0.006985
      dxy     :     0.008790

  2 C s       :     3.170827  s :     3.170827
      pz      :     0.800938  p :     2.747600
      px      :     1.003035
      py      :     0.943626
      dz2     :     0.005434  d :     0.091980
      dxz     :     0.006018
      dyz     :     0.018111
      dx2y2   :     0.029251
      dxy     :     0.033166

  3 O s       :     3.757471  s :     3.757471
      pz      :     1.312783  p :     4.396639
      px      :     1.714189
      py      :     1.369667
      dz2     :     0.001898  d :     0.017266
      dxz     :     0.000608
      dyz     :     0.004894
      dx2y2   :     0.005238
      dxy     :     0.004628

  4 C s       :     3.034473  s :     3.034473
      pz      :     1.047691  p :     3.153111
      px      :     1.031650
      py      :     1.073770
      dz2     :     0.005457  d :     0.034357
      dxz     :     0.006492
      dyz     :     0.007306
      dx2y2   :     0.006697
      dxy     :     0.008406

  5 C s       :     3.074547  s :     3.074547
      pz      :     1.087780  p :     3.142548
      px      :     1.009040
      py      :     1.045729
      dz2     :     0.005336  d :     0.028835
      dxz     :     0.004667
      dyz     :     0.006629
      dx2y2   :     0.004878
      dxy     :     0.007325

  6 H s       :     0.887546  s :     0.887546

  7 H s       :     0.885298  s :     0.885298

  8 H s       :     0.886506  s :     0.886506

  9 H s       :     0.884153  s :     0.884153

 10 H s       :     0.900254  s :     0.900254

 11 H s       :     0.890574  s :     0.890574

 12 H s       :     0.881869  s :     0.881869

 13 H s       :     0.902820  s :     0.902820

 14 H s       :     0.887516  s :     0.887516

 15 H s       :     0.892483  s :     0.892483


------------------------
MULLIKEN OVERLAP CHARGES
------------------------
B(  0-C ,  1-C ) :   0.7375 B(  0-C ,  2-C ) :  -0.0787 B(  0-C ,  4-C ) :   0.0509 
B(  0-C ,  6-H ) :   0.7292 B(  0-C ,  7-H ) :   0.7805 B(  0-C ,  8-H ) :   0.7249 
B(  1-C ,  2-C ) :   0.7026 B(  1-C ,  3-O ) :  -0.1943 B(  1-C ,  4-C ) :  -0.5367 
B(  1-C ,  7-H ) :  -0.0760 B(  1-C ,  9-H ) :   0.6138 B(  1-C , 10-H ) :   0.5973 
B(  2-C ,  3-O ) :   1.5095 B(  2-C ,  4-C ) :   0.2908 B(  3-O ,  4-C ) :  -0.2926 
B(  4-C ,  5-C ) :   0.7344 B(  4-C , 11-H ) :   0.6295 B(  4-C , 12-H ) :   0.5837 
B(  4-C , 14-H ) :  -0.0539 B(  4-C , 15-H ) :  -0.0568 B(  5-C , 13-H ) :   0.7361 
B(  5-C , 14-H ) :   0.7645 B(  5-C , 15-H ) :   0.7760 B(  6-H ,  7-H ) :  -0.0550 



                     *******************************
                     * LOEWDIN POPULATION ANALYSIS *
                     *******************************

----------------------
LOEWDIN ATOMIC CHARGES
----------------------
   0 C :   -0.341154
   1 C :   -0.256368
   2 C :    0.045482
   3 O :   -0.131551
   4 C :   -0.264897
   5 C :   -0.337021
   6 H :    0.119974
   7 H :    0.122228
   8 H :    0.126421
   9 H :    0.141465
  10 H :    0.131088
  11 H :    0.133315
  12 H :    0.141748
  13 H :    0.118569
  14 H :    0.126600
  15 H :    0.124101

-------------------------------
LOEWDIN REDUCED ORBITAL CHARGES
-------------------------------
  0 C s       :     2.943153  s :     2.943153
      pz      :     1.110199  p :     3.326825
      px      :     1.117774
      py      :     1.098852
      dz2     :     0.023894  d :     0.071176
      dxz     :     0.005194
      dyz     :     0.011016
      dx2y2   :     0.017608
      dxy     :     0.013465

  1 C s       :     2.918227  s :     2.918227
      pz      :     1.087129  p :     3.253107
      px      :     1.070957
      py      :     1.095021
      dz2     :     0.024520  d :     0.085034
      dxz     :     0.007583
      dyz     :     0.012257
      dx2y2   :     0.018315
      dxy     :     0.022359

  2 C s       :     2.887879  s :     2.887879
      pz      :     0.785802  p :     2.851839
      px      :     1.036590
      py      :     1.029448
      dz2     :     0.013229  d :     0.214799
      dxz     :     0.011247
      dyz     :     0.034289
      dx2y2   :     0.071477
      dxy     :     0.084558

  3 O s       :     3.553477  s :     3.553477
      pz      :     1.315400  p :     4.547586
      px      :     1.740294
      py      :     1.491891
      dz2     :     0.004114  d :     0.030488
      dxz     :     0.000756
      dyz     :     0.006270
      dx2y2   :     0.010493
      dxy     :     0.008855

  4 C s       :     2.914704  s :     2.914704
      pz      :     1.096089  p :     3.263998
      px      :     1.072281
      py      :     1.095627
      dz2     :     0.014743  d :     0.086195
      dxz     :     0.012853
      dyz     :     0.018418
      dx2y2   :     0.017857
      dxy     :     0.022325

  5 C s       :     2.941124  s :     2.941124
      pz      :     1.137705  p :     3.325328
      px      :     1.064500
      py      :     1.123124
      dz2     :     0.013773  d :     0.070569
      dxz     :     0.009727
      dyz     :     0.016008
      dx2y2   :     0.013691
      dxy     :     0.017369

  6 H s       :     0.880026  s :     0.880026

  7 H s       :     0.877772  s :     0.877772

  8 H s       :     0.873579  s :     0.873579

  9 H s       :     0.858535  s :     0.858535

 10 H s       :     0.868912  s :     0.868912

 11 H s       :     0.866685  s :     0.866685

 12 H s       :     0.858252  s :     0.858252

 13 H s       :     0.881431  s :     0.881431

 14 H s       :     0.873400  s :     0.873400

 15 H s       :     0.875899  s :     0.875899


---------------------------------
LOEWDIN BOND ORDERS (THRESH 0.050000)
---------------------------------
B(  0-C ,  1-C ) :   1.1194 B(  0-C ,  2-C ) :   0.0570 B(  0-C ,  6-H ) :   0.9377 
B(  0-C ,  7-H ) :   0.9403 B(  0-C ,  8-H ) :   0.9349 B(  1-C ,  2-C ) :   1.0749 
B(  1-C ,  3-O ) :   0.1104 B(  1-C ,  4-C ) :   0.0663 B(  1-C ,  9-H ) :   0.8783 
B(  1-C , 10-H ) :   0.8958 B(  2-C ,  3-O ) :   2.2650 B(  2-C ,  4-C ) :   1.0695 
B(  2-C ,  5-C ) :   0.0578 B(  3-O ,  4-C ) :   0.1073 B(  4-C ,  5-C ) :   1.1219 
B(  4-C , 11-H ) :   0.8862 B(  4-C , 12-H ) :   0.8773 B(  5-C , 13-H ) :   0.9383 
B(  5-C , 14-H ) :   0.9379 B(  5-C , 15-H ) :   0.9401 

------------------------------------------
LOEWDIN REDUCED ORBITAL POPULATIONS PER MO
-------------------------------------------
THRESHOLD FOR PRINTING IS 0.1%%
                      0         1         2         3         4         5   
                 -18.73632  -9.96795  -9.89498  -9.89304  -9.88918  -9.87521
                   2.00000   2.00000   2.00000   2.00000   2.00000   2.00000
                  --------  --------  --------  --------  --------  --------
 0 C  s               0.0       0.0       0.0       0.0      99.7       0.0
 1 C  s               0.0       0.0       0.0      99.6       0.0       0.0
 2 C  s               0.0      99.4       0.0       0.0       0.0       0.0
 2 C  px              0.0       0.0       0.0       0.1       0.0       0.0
 3 O  s              99.9       0.0       0.0       0.0       0.0       0.0
 3 O  py              0.0       0.3       0.0       0.0       0.0       0.0
 4 C  s               0.0       0.0      99.6       0.0       0.0       0.0
 4 C  px              0.0       0.0       0.0       0.0       0.0       0.1
 5 C  s               0.0       0.0       0.0       0.0       0.0      99.7

                      6         7         8         9        10        11   
                  -0.93242  -0.71990  -0.68767  -0.59476  -0.56313  -0.45867
                   2.00000   2.00000   2.00000   2.00000   2.00000   2.00000
                  --------  --------  --------  --------  --------  --------
 0 C  s               0.1      12.4      10.7      17.4       5.8       0.3
 0 C  pz              0.0       0.7       0.4       0.6       1.8       2.6
 0 C  px              0.0       0.6       0.0       0.9       0.1       0.7
 0 C  py              0.0       0.9       0.5       0.9       2.4       0.5
 1 C  s               1.2      18.2      10.6       2.2       9.5       1.3
 1 C  pz              0.0       0.5       0.2       1.4       2.5       3.4
 1 C  px              1.5       0.2       0.6       5.9       0.0      10.1
 1 C  py              0.3       1.0       0.3       2.5       2.9       0.1
 1 C  dx2y2           0.0       0.0       0.0       0.1       0.0       0.2
 2 C  s              19.6       5.7       0.0       6.7       0.1       9.0
 2 C  pz              0.1       0.1       0.5       0.0       1.4       0.5
 2 C  px              1.3       1.4       7.7       1.7       6.9       0.0
 2 C  py             11.5      10.3       1.5       4.9       1.4       2.4
 2 C  dz2             0.5       0.0       0.0       0.0       0.0       0.0
 2 C  dx2y2           0.8       0.2       0.0       0.1       0.2       0.1
 2 C  dxy             0.4       0.1       0.1       0.1       0.0       0.0
 3 O  s              51.0       3.9       0.1       2.2       0.1       5.4
 3 O  pz              0.1       0.0       0.0       0.0       0.1       0.3
 3 O  px              0.6       0.0       0.3       0.3       0.5       0.1
 3 O  py              6.0       0.3       0.0       0.7       0.0       7.2
 3 O  dx2y2           0.1       0.0       0.0       0.0       0.0       0.1
 4 C  s               1.3      14.0      17.6       1.5       5.4       3.9
 4 C  pz              0.1       0.0       0.0       0.2       0.1       0.7
 4 C  px              0.3       0.2       2.4       7.9       6.0       2.1
 4 C  py              1.4       0.1       0.1       0.0       0.3      17.0
 4 C  dz2             0.0       0.0       0.0       0.0       0.0       0.2
 4 C  dx2y2           0.0       0.0       0.0       0.0       0.1       0.0
 4 C  dxy             0.0       0.0       0.0       0.1       0.0       0.2
 5 C  s               0.2       4.9      16.7      11.2      12.8       0.9
 5 C  pz              0.0       0.0       0.0       0.0       0.0       0.1
 5 C  px              0.3       1.3       1.7       0.9       3.4       2.5
 5 C  py              0.0       0.1       0.2       0.0       0.1       4.8
 6 H  s               0.0       2.7       1.9       4.9       3.3       0.4
 7 H  s               0.0       2.4       2.1       5.2       2.7       1.2
 8 H  s               0.0       2.2       2.3       6.3       1.9       0.1
 9 H  s               0.2       3.6       2.2       1.0       4.2       3.1
10 H  s               0.3       2.9       2.3       0.4       4.6       3.3
11 H  s               0.1       3.2       3.4       0.7       2.2       6.7
12 H  s               0.2       3.2       3.4       0.4       3.0       4.5
13 H  s               0.0       0.9       3.3       3.5       4.9       0.0
14 H  s               0.1       0.8       3.2       3.3       4.2       1.9
15 H  s               0.0       0.8       3.2       3.2       4.5       1.7

                     12        13        14        15        16        17   
                  -0.43344  -0.41935  -0.40291  -0.38243  -0.35052  -0.34339
                   2.00000   2.00000   2.00000   2.00000   2.00000   2.00000
                  --------  --------  --------  --------  --------  --------
 0 C  pz              5.2       2.7       6.0       0.2      18.2       2.0
 0 C  px              0.3       4.5       7.3       8.1       1.8      27.2
 0 C  py              4.2       4.1       5.7       9.4       1.2       0.5
 0 C  dz2             0.0       0.0       0.0       0.0       0.1       0.1
 0 C  dyz             0.0       0.1       0.0       0.0       0.1       0.0
 0 C  dx2y2           0.0       0.0       0.0       0.1       0.0       0.5
 0 C  dxy             0.0       0.0       0.0       0.0       0.0       0.1
 1 C  s               0.0       0.6       0.0       0.4       0.1       0.3
 1 C  pz             11.4       0.3       3.5       7.1       6.9       0.1
 1 C  px              0.0      13.7       2.0       0.2       2.2       0.9
 1 C  py              7.1       0.0      10.4       2.0       6.1       0.0
 1 C  dx2y2           0.0       0.0       0.0       0.0       0.1       0.3
 2 C  s               0.0       0.0       0.2       1.3       0.3       1.2
 2 C  pz              9.1       3.2       0.8       1.4       7.7       0.1
 2 C  px              5.1      12.2       0.1       0.2       0.6       0.6
 2 C  py              1.5       0.2       0.4       5.0       1.9       4.1
 2 C  dyz             0.0       0.0       0.0       0.0       0.1       0.0
 2 C  dxy             0.0       0.0       0.1       0.0       0.1       0.0
 3 O  s               0.0       0.3       1.8       8.5       1.2       1.5
 3 O  pz              2.7       1.7       0.2       0.1      10.3       0.0
 3 O  px              2.6       4.8       0.7       6.8       0.6       0.1
 3 O  py              0.3       1.3       3.4      22.2       6.6       5.8
 3 O  dxy             0.0       0.1       0.0       0.1       0.0       0.0
 4 C  s               0.1       0.2       0.3       0.0       0.1       0.0
 4 C  pz             18.3       2.3      13.1       3.0       0.4       0.0
 4 C  px              0.0       0.1       1.6       1.8       0.0      10.3
 4 C  py              0.4      15.3       0.2       0.1       0.5       0.2
 4 C  dxy             0.0       0.0       0.0       0.0       0.1       0.2
 5 C  s               0.0       0.2       0.1       0.0       0.0       0.0
 5 C  pz              6.1       0.8       9.0       4.4       2.2       1.1
 5 C  px              0.0       4.6       1.0       0.3       2.1      12.1
 5 C  py              0.4       6.3       1.0       2.8       8.5       0.1
 5 C  dyz             0.0       0.0       0.0       0.0       0.1       0.0
 5 C  dxy             0.0       0.0       0.0       0.0       0.1       0.1
 6 H  s               1.4       3.3       4.9       1.3       0.0       5.0
 7 H  s               2.5       0.8       3.3       0.6       7.8       1.9
 8 H  s               0.7       1.3       1.6       5.5       0.2      17.1
 9 H  s               5.9       0.9       3.5       1.0       1.5       0.5
10 H  s               2.3       2.4       4.5       0.0       0.5       0.5
11 H  s               1.8       5.6       3.2       0.4       0.2       0.2
12 H  s               7.4       0.0       3.9       0.9       0.4       0.1
13 H  s               0.6       4.0       0.3       0.9       3.9       4.0
14 H  s               0.5       1.0       3.6       0.1       4.4       0.5
15 H  s               1.8       0.4       1.3       3.1       0.3       0.0

                     18        19        20        21        22        23   
                  -0.33549  -0.31692  -0.31371  -0.30497  -0.29666  -0.19330
                   2.00000   2.00000   2.00000   2.00000   2.00000   2.00000
                  --------  --------  --------  --------  --------  --------
 0 C  s               0.1       0.2       0.1       0.1       0.0       0.1
 0 C  pz              3.1       4.5       2.9       0.7       3.8       0.0
 0 C  px              0.5       0.5       0.7       1.1       0.8       0.6
 0 C  py             14.2       0.0       1.5       7.8       0.7       0.3
 0 C  dz2             0.4       0.1       0.0       0.0       0.2       0.1
 0 C  dx2y2           0.0       0.0       0.0       0.2       0.1       0.0
 0 C  dxy             0.1       0.1       0.0       0.2       0.0       0.1
 1 C  s               0.0       0.1       0.0       0.1       0.0       1.4
 1 C  pz              0.1       5.6       4.9       0.1       5.6       0.7
 1 C  px              0.0       4.5       1.1       2.3       1.2       6.9
 1 C  py              7.8       0.4       0.2       9.8       2.7       1.1
 1 C  dz2             0.3       0.1       0.1       0.1       0.4       0.0
 1 C  dyz             0.0       0.0       0.1       0.0       0.1       0.0
 1 C  dxy             0.0       0.1       0.0       0.5       0.1       0.0
 2 C  s               0.1       0.2       0.3       0.1       0.0       0.0
 2 C  pz              4.0       0.2       2.7       1.2       6.2       0.1
 2 C  px              3.0       4.5       0.0       2.9       0.8       2.6
 2 C  py              0.7       0.9       1.7       1.9       1.0       0.2
 2 C  dxz             0.0       0.0       0.2       0.0       0.1       0.0
 2 C  dyz             0.1       0.0       0.0       0.1       1.0       0.2
 2 C  dx2y2           0.0       0.2       0.1       0.0       0.1       1.5
 2 C  dxy             0.2       0.0       0.0       0.1       0.0       2.8
 3 O  s               0.0       0.6       0.7       0.2       0.0       0.0
 3 O  pz              5.3       0.3       3.1       3.3      35.1       2.9
 3 O  px              3.0       0.9       0.4       3.9       2.3      59.2
 3 O  py              2.6       6.1       5.1       0.9       0.2       5.6
 4 C  s               0.1       0.2       0.0       0.0       0.0       1.2
 4 C  pz              0.0       1.7       3.0       7.2       3.9       0.7
 4 C  px              0.2      15.7       1.1       1.0       0.7       2.3
 4 C  py              0.2       3.2       7.0       1.4       1.3       5.9
 4 C  dz2             0.0       0.2       0.0       0.1       0.0       0.0
 4 C  dxz             0.1       0.1       0.1       0.2       0.0       0.0
 4 C  dyz             0.0       0.0       0.2       0.1       0.4       0.0
 4 C  dx2y2           0.0       0.3       0.2       0.0       0.0       0.0
 4 C  dxy             0.1       0.0       0.2       0.2       0.0       0.0
 5 C  s               0.0       0.3       0.0       0.0       0.0       0.1
 5 C  pz              8.0       4.0      11.3       8.5       1.3       0.1
 5 C  px              0.5      19.5       0.6       1.4       0.5       0.4
 5 C  py             10.4       1.7      14.9       3.4       1.2       0.1
 5 C  dz2             0.2       0.2       0.0       0.1       0.0       0.0
 5 C  dxz             0.1       0.0       0.1       0.2       0.0       0.0
 5 C  dyz             0.0       0.0       0.4       0.0       0.1       0.0
 5 C  dx2y2           0.0       0.1       0.2       0.0       0.0       0.1
 5 C  dxy             0.2       0.0       0.1       0.2       0.0       0.0
 6 H  s               6.6       0.1       0.0       6.0       2.1       0.0
 7 H  s               5.4       2.9       1.2       0.0       3.5       0.2
 8 H  s               1.3       1.1       0.2       1.0       0.0       0.8
 9 H  s               1.4       3.4       3.0       0.2       6.9       0.4
10 H  s               3.5       1.2       0.1      10.3       3.8       0.4
11 H  s               0.4       0.6       8.9       0.9       4.5       0.3
12 H  s               0.3       5.7       0.3       6.0       2.8       0.3
13 H  s               8.2       0.5       1.9       6.3       0.7       0.1
14 H  s               0.3       0.0      16.9       0.3       2.4       0.2
15 H  s               6.6       6.8       2.0       7.0       0.9       0.1

                     24        25        26        27        28        29   
                  -0.04679   0.02891   0.05863   0.07185   0.08322   0.10344
                   0.00000   0.00000   0.00000   0.00000   0.00000   0.00000
                  --------  --------  --------  --------  --------  --------
 0 C  s               0.9       7.9       7.9       2.5       1.9       2.0
 0 C  pz              0.1       1.0       0.0       4.2       0.1       0.5
 0 C  px              0.1       0.0       2.0       0.1       6.1       0.9
 0 C  py              0.5       1.6       0.2       2.6       3.0       0.0
 0 C  dz2             0.0       0.0       0.0       0.4       0.0       0.1
 0 C  dxz             0.0       0.0       0.0       0.0       0.1       0.3
 0 C  dyz             0.0       0.1       0.0       0.1       0.1       0.1
 0 C  dx2y2           0.0       0.0       0.2       0.0       0.5       0.2
 1 C  s               0.1       3.7       2.2       3.1       6.2       2.2
 1 C  pz              0.1       2.0       0.2       3.4       0.3       5.2
 1 C  px              0.1       0.2       0.8       1.0       1.8       0.9
 1 C  py              0.0       0.1       1.3       0.6       1.3       5.5
 1 C  dz2             0.4       0.0       0.0       0.3       0.0       0.3
 1 C  dxz             0.9       0.0       0.0       0.3       0.1       0.0
 1 C  dyz             0.3       0.2       0.0       0.0       0.1       0.0
 1 C  dx2y2           0.0       0.0       0.0       0.0       0.2       0.0
 1 C  dxy             0.0       0.0       0.3       0.0       0.1       0.6
 2 C  s               0.0       0.4       0.4       0.2       0.4       0.8
 2 C  pz             46.2       0.6       0.3       1.2       0.1       0.1
 2 C  px              1.8       0.2       0.0       0.3       0.1       0.0
 2 C  py              1.2       0.7       1.1       0.0       0.0       0.3
 2 C  dz2             0.1       0.3       0.1       0.0       0.0       0.2
 2 C  dxz             0.2       0.1       0.0       0.1       0.1       0.6
 2 C  dyz             1.1       0.1       0.0       0.0       0.0       0.0
 2 C  dx2y2           0.1       0.1       0.4       0.0       0.1       0.1
 2 C  dxy             0.0       0.0       0.3       0.0       0.0       0.4
 3 O  s               0.0       0.4       0.3       0.0       0.2       0.1
 3 O  pz             29.7       0.1       0.2       0.5       0.0       0.0
 3 O  px              0.9       0.1       0.2       0.0       0.0       0.3
 3 O  py              0.7       0.2       0.4       0.0       0.2       0.2
 3 O  dyz             0.4       0.0       0.0       0.0       0.0       0.0
 4 C  s               0.0       8.5       0.6       0.1       0.6       0.0
 4 C  pz              0.1       0.2       0.0       9.3       0.2       5.3
 4 C  px              0.0       0.8       0.7       0.1       0.1       0.4
 4 C  py              0.0       3.2       1.6       0.4       2.0       0.7
 4 C  dz2             0.4       0.2       0.3       0.0       0.0       0.2
 4 C  dxz             0.1       0.0       0.0       0.2       0.0       0.2
 4 C  dyz             1.0       0.0       0.1       0.1       0.0       0.2
 4 C  dx2y2           0.0       0.0       0.5       0.0       0.0       0.0
 4 C  dxy             0.0       0.0       0.1       0.0       0.2       0.1
 5 C  s               0.1       2.6      14.3       0.4       5.1       1.4
 5 C  pz              0.1       0.0       0.0       1.7       0.0       1.0
 5 C  px              0.1       0.9       0.6       0.0       0.3       2.2
 5 C  py              0.0       0.1       0.1       0.1       1.1       1.0
 5 C  dxz             0.0       0.0       0.0       0.4       0.0       0.2
 5 C  dyz             0.0       0.0       0.0       0.1       0.0       0.1
 5 C  dxy             0.0       0.2       0.0       0.0       0.1       0.1
 6 H  s               0.1       8.3       2.0       1.7      21.7       0.8
 7 H  s               0.3       7.2       3.2      18.9       0.5       0.1
 8 H  s               0.4       3.8      15.0       0.6       3.7       4.8
 9 H  s               4.5       8.7       0.8      15.4       4.8      25.8
10 H  s               0.6       2.6       8.9       0.7      16.9       6.8
11 H  s               2.8      13.7       3.9       8.8       4.8       5.2
12 H  s               3.5      13.0       1.1      13.7       0.3       8.5
13 H  s               0.0       2.7      11.9       0.5       1.1       7.1
14 H  s               0.0       1.0       6.7       4.1       7.7       0.9
15 H  s               0.0       2.0       8.6       1.5       6.0       5.0

                     30        31        32        33        34        35   
                   0.10751   0.11544   0.12792   0.13153   0.14964   0.18205
                   0.00000   0.00000   0.00000   0.00000   0.00000   0.00000
                  --------  --------  --------  --------  --------  --------
 0 C  s               0.3       4.7       1.0       0.7       0.0       1.4
 0 C  pz              7.4       0.5       3.4       0.0       5.2       6.7
 0 C  px              6.1       0.9       0.4       6.0       4.7       4.9
 0 C  py              1.7       0.9       0.9       2.1       0.4      12.4
 0 C  dz2             0.8       0.0       0.1       0.0       0.1       0.0
 0 C  dxz             0.1       0.0       0.0       0.3       0.2       1.2
 0 C  dyz             0.2       0.2       0.1       0.1       0.3       2.1
 0 C  dx2y2           0.1       0.3       0.3       0.4       0.0       0.6
 0 C  dxy             0.0       0.0       0.1       0.2       0.0       1.9
 1 C  s               1.0       1.3       0.0       0.6       0.2       5.5
 1 C  pz              0.4       0.5       2.5       0.3       0.6      10.6
 1 C  px              0.3       3.4       0.1       0.3       0.6       0.2
 1 C  py              1.6       0.5       0.9       0.9       4.1       6.7
 1 C  dz2             0.6       0.0       0.0       0.0       0.0       0.0
 1 C  dxz             0.1       0.1       0.0       0.1       0.1       0.0
 1 C  dyz             0.1       0.1       0.2       0.2       0.3       2.2
 1 C  dx2y2           0.0       0.4       0.0       0.1       0.4       0.0
 1 C  dxy             0.0       0.0       0.2       0.0       0.2       1.1
 2 C  s               0.4       0.9       0.0       0.3       0.5       0.4
 2 C  pz              0.0       0.2       0.2       0.1       1.8       0.0
 2 C  px              0.0       0.0       0.3       0.3       0.1       2.0
 2 C  py              0.4       0.5       0.2       0.2       0.8       0.7
 2 C  dz2             0.3       0.0       0.1       0.0       0.0       0.3
 2 C  dxz             0.0       0.1       0.1       0.0       0.6       0.1
 2 C  dyz             0.0       0.0       0.0       0.0       0.2       0.1
 2 C  dx2y2           0.0       0.0       0.1       0.0       0.4       0.2
 2 C  dxy             0.0       0.0       0.2       0.0       0.3       0.3
 3 O  s               0.1       0.0       0.0       0.1       0.1       0.4
 3 O  pz              0.0       0.1       0.3       0.1       0.2       0.1
 3 O  px              0.4       0.1       0.1       0.0       0.0       0.6
 3 O  py              0.0       0.0       0.1       0.1       0.2       0.0
 4 C  s               0.1       1.9       5.3       3.6       1.2       0.3
 4 C  pz              1.8       0.2       0.0       0.5       6.8       0.3
 4 C  px              0.4       0.1       0.1       0.0       0.0       9.4
 4 C  py              0.3       1.2       0.8       2.7       3.2       0.8
 4 C  dz2             0.0       0.0       0.0       0.2       0.1       0.7
 4 C  dxz             0.2       0.2       0.1       0.1       0.1       0.0
 4 C  dyz             0.1       0.0       0.1       0.1       0.3       0.0
 4 C  dx2y2           0.0       0.1       0.3       0.0       0.3       0.9
 4 C  dxy             0.2       0.5       0.2       0.1       0.0       0.6
 5 C  s               0.4       2.3       0.6       1.7       0.1       0.6
 5 C  pz              2.6       3.8       2.9       9.8       4.6       0.4
 5 C  px              1.1       0.4       0.7       0.7       2.4      10.0
 5 C  py              2.5       8.4      11.1       0.2       0.2       0.5
 5 C  dz2             0.2       0.2       0.2       0.4       0.4       0.4
 5 C  dxz             0.2       0.1       0.0       0.0       0.1       0.0
 5 C  dyz             0.0       0.0       0.8       0.2       0.3       0.0
 5 C  dx2y2           0.0       0.0       0.2       0.0       0.2       1.1
 5 C  dxy             0.1       0.6       0.0       0.0       0.0       0.5
 6 H  s               0.6       5.6       0.2      14.2       4.8       1.7
 7 H  s              16.1       0.2      11.2       0.2       7.5       0.8
 8 H  s              22.6       6.1       0.6       6.2       5.0       0.6
 9 H  s               0.7       0.1       5.1       0.5       0.8       1.2
10 H  s               6.7       9.3       2.2       4.1       6.4       1.3
11 H  s               2.4       3.1       6.7       4.6       9.3       1.3
12 H  s               1.2       3.2       3.2       7.6      10.4       1.2
13 H  s              13.1       9.6      15.5       5.6       0.1       0.8
14 H  s               0.2       5.8      17.4      16.4       5.3       0.1
15 H  s               3.7      21.3       2.6       6.9       7.0       1.5

                     36        37        38        39        40        41   
                   0.19140   0.19964   0.25779   0.28208   0.37911   0.39169
                   0.00000   0.00000   0.00000   0.00000   0.00000   0.00000
                  --------  --------  --------  --------  --------  --------
 0 C  s               0.5       0.1       0.0       0.2       1.1       0.0
 0 C  pz              0.8       0.1       0.6       3.0       1.5       1.7
 0 C  px              0.4       1.2       0.2       0.7       7.9       4.2
 0 C  py              7.4       0.6       0.0       1.4       2.1       8.9
 0 C  dz2             0.1       0.1       0.3       0.1       1.2       2.0
 0 C  dxz             0.0       0.4       0.2       0.2       0.2       0.2
 0 C  dyz             0.9       0.0       0.0       1.6       0.1       0.1
 0 C  dx2y2           0.1       0.1       0.0       0.3       1.2       1.5
 0 C  dxy             0.3       0.4       0.4       0.0       0.0       1.5
 1 C  s               0.1       1.4       2.8       0.5       0.4       0.4
 1 C  pz              2.4       2.2       1.5       0.4       1.1       2.2
 1 C  px              8.5       8.1      13.9       3.1       1.2       2.1
 1 C  py              3.1       0.6       1.3       3.2       0.1       1.2
 1 C  dz2             0.5       0.2       1.3       0.1       0.2       2.2
 1 C  dxz             0.6       0.3       0.6       0.0       0.1       0.1
 1 C  dyz             0.5       0.2       0.0       0.5       0.1       0.2
 1 C  dx2y2           1.3       2.5       2.1       0.1       0.0       0.3
 1 C  dxy             0.4       0.4       0.5       1.2       0.9       0.5
 2 C  s               1.3      25.7       3.7      12.6       5.9       1.6
 2 C  pz              0.8       0.1       0.7       1.1       0.0       0.0
 2 C  px              1.2       0.6      19.2       4.8       0.2       0.1
 2 C  py              3.6       3.6       6.1      15.6       0.7       0.4
 2 C  dz2             0.0       4.4       0.3       1.6       0.4       0.5
 2 C  dxz             0.5       0.2       0.0       0.1       0.8       0.0
 2 C  dyz             0.0       0.3       0.1       0.1       0.0       0.0
 2 C  dx2y2           1.9       0.1       1.0       0.6       0.3       0.1
 2 C  dxy             0.4       0.0       0.0       1.4       0.3       0.1
 3 O  s               0.6       1.1       3.1       7.3       0.0       0.7
 3 O  pz              0.2       0.0       0.1       0.0       0.2       0.0
 3 O  px              0.6       0.1       2.5       1.0       0.2       0.0
 3 O  py              0.3       2.0       0.9       0.5       0.1       0.0
 3 O  dx2y2           0.0       0.2       0.2       0.0       0.0       0.0
 3 O  dxy             0.0       0.0       0.5       0.2       0.0       0.0
 4 C  s               5.7       0.7       1.8       1.1       0.3       0.2
 4 C  pz              2.2       1.7       1.0       1.1       2.4       1.1
 4 C  px              6.2      11.0       1.0       3.4       9.2       7.7
 4 C  py              2.1       5.8      10.1       7.3       0.5       0.4
 4 C  dz2             0.9       0.3       2.2       0.8       0.0       1.1
 4 C  dxz             0.0       0.2       0.1       0.3       1.0       0.5
 4 C  dyz             0.1       0.3       0.8       0.3       0.9       0.2
 4 C  dx2y2           1.8       0.8       1.2       0.1       1.0       0.0
 4 C  dxy             0.0       3.8       0.3       2.0       0.1       0.3
 5 C  s               1.1       0.1       0.3       0.2       0.5       0.5
 5 C  pz              0.7       0.1       0.1       0.2      12.8       3.7
 5 C  px             15.5       2.8       7.4       2.4       7.7       3.4
 5 C  py              1.6       2.0       0.2       0.5       0.6       6.7
 5 C  dz2             0.8       0.4       0.0       0.0       2.9       0.2
 5 C  dxz             0.1       0.1       0.0       0.1       0.6       0.1
 5 C  dyz             0.0       0.0       0.1       0.0       1.4       1.8
 5 C  dx2y2           3.0       0.0       1.8       0.0       0.1       1.0
 5 C  dxy             0.4       1.1       0.2       1.7       0.2       0.0
 6 H  s               4.2       1.0       0.1       0.0       0.0      11.1
 7 H  s               0.7       0.8       1.1       1.1       2.1       3.5
 8 H  s               0.4       1.8       0.8       1.7       5.5       1.1
 9 H  s               2.8       0.8       1.6       0.4       0.6       5.0
10 H  s               2.8       1.0       0.6       3.4       0.6       5.4
11 H  s               2.3       0.7       0.6       1.3       5.2       1.0
12 H  s               1.5       0.5       1.0       1.7       1.9       3.3
13 H  s               1.2       1.2       0.8       4.5       0.0       0.0
14 H  s               1.5       2.2       0.2       0.4       1.8       7.1
15 H  s               1.2       1.4       0.2       0.6      11.6       0.5

                     42        43        44        45        46        47   
                   0.40504   0.42183   0.44962   0.47852   0.48349   0.53958
                   0.00000   0.00000   0.00000   0.00000   0.00000   0.00000
                  --------  --------  --------  --------  --------  --------
 0 C  s               0.3       2.6       0.0       1.0       0.5       1.7
 0 C  pz              3.1      31.2       0.5       1.9       1.2       0.7
 0 C  px              0.0       0.3       1.0       7.6       0.2       3.1
 0 C  py             12.7       8.6       2.6       1.2       2.0       1.4
 0 C  dz2             3.7       1.1       0.1       0.0       0.3       0.0
 0 C  dxz             0.0       0.0       0.0       1.0       0.0       0.5
 0 C  dyz             0.0       3.6       0.1       0.1       0.0       0.1
 0 C  dx2y2           0.0       0.0       0.0       0.6       0.0       0.4
 0 C  dxy             0.8       0.4       0.1       0.6       0.5       0.1
 1 C  s               0.9       0.5       1.3       1.2       0.9       0.3
 1 C  pz              2.4      12.4       3.1       1.0       3.3       0.1
 1 C  px              1.0       0.4      13.1       9.9       1.2       0.3
 1 C  py              0.3      10.9       0.1       0.5       0.0       2.2
 1 C  dz2             1.2       0.2       0.0       0.1       0.3       0.0
 1 C  dxz             0.0       0.1       0.4       0.6       0.1       0.2
 1 C  dyz             0.4       5.0       0.1       0.1       1.0       0.1
 1 C  dx2y2           0.4       0.0       1.2       0.0       0.2       0.0
 1 C  dxy             0.2       0.6       0.1       0.1       1.6       0.0
 2 C  s               1.1       0.0       1.7       1.9       2.7      14.7
 2 C  pz              6.6       0.5       0.6      29.3      18.2       5.8
 2 C  px              0.6       0.7       5.8       3.7       2.6       3.1
 2 C  py              0.5       0.4       0.1       0.1       8.6       0.3
 2 C  dz2             0.4       0.1       1.5       0.0       0.4       0.3
 2 C  dxz             0.1       0.4       0.2       0.0       0.0       0.1
 2 C  dyz             0.0       0.2       0.2       0.1       0.4       0.1
 2 C  dx2y2           0.3       0.1       0.4       0.5       0.0       0.8
 2 C  dxy             0.2       0.0       0.0       0.5       2.7       0.3
 3 O  s               0.1       0.1       0.1       0.1       0.5       0.1
 3 O  pz              0.2       0.3       0.0       0.3       0.2       0.8
 3 O  px              0.0       0.8       5.4       0.4       2.7       0.2
 3 O  py              0.0       0.0       0.1       0.1       0.4       2.3
 3 O  dz2             0.0       0.0       0.0       0.0       0.1       0.3
 3 O  dyz             0.1       0.0       0.0       0.1       0.1       0.1
 3 O  dx2y2           0.0       0.0       0.0       0.1       0.0       0.7
 3 O  dxy             0.0       0.0       0.0       0.1       0.3       0.0
 4 C  s               0.1       0.4       0.8       0.1       3.2       8.1
 4 C  pz              2.1       0.9       1.7       0.6       1.9       0.4
 4 C  px              2.0       0.2       0.1       0.5       3.3       1.2
 4 C  py              0.9       0.3      12.0       6.6      14.7       8.0
 4 C  dz2             0.2       0.2       0.7       0.4       1.9       0.1
 4 C  dxz             1.1       0.0       0.0       0.1       0.0       0.1
 4 C  dyz             1.3       0.4       0.0       1.1       0.2       0.2
 4 C  dx2y2           0.0       0.1       1.2       0.5       0.1       0.0
 4 C  dxy             0.2       0.0       0.2       0.2       0.0       0.3
 5 C  s               0.3       0.1       0.3       1.6       0.8       1.5
 5 C  pz              9.3       0.3       2.2       2.0       1.7       3.2
 5 C  px              1.7       0.8       1.9       4.0       2.8      14.4
 5 C  py              0.7       0.5      16.7       6.3       0.6       0.7
 5 C  dz2             0.4       0.0       2.9       0.2       0.0       0.3
 5 C  dxz             0.8       0.2       0.2       0.2       0.1       0.0
 5 C  dyz             1.9       0.1       1.4       0.5       0.4       0.3
 5 C  dx2y2           0.9       0.0       0.1       0.2       0.0       0.0
 5 C  dxy             0.0       0.2       1.3       0.0       0.4       0.8
 6 H  s               5.7       0.6       0.7       1.6       2.3       0.0
 7 H  s               6.7       8.0       0.2       0.1       0.3       0.4
 8 H  s               1.2       0.2       0.1       2.9       0.0       3.5
 9 H  s               3.9       0.7       0.2       0.3       4.2       0.5
10 H  s               0.7       1.7       1.3       0.1       1.8       0.3
11 H  s               3.4       0.2       0.6       2.1       1.2       6.3
12 H  s               4.4       1.3       0.2       0.9       1.6       4.4
13 H  s               0.3       0.9       9.6       0.1       2.8       1.0
14 H  s               7.2       0.1       1.8       1.8       0.3       0.1
15 H  s               5.0       0.1       1.2       0.5       0.2       2.4

                     48        49        50        51        52        53   
                   0.55175   0.56202   0.59555   0.61287   0.61902   0.63116
                   0.00000   0.00000   0.00000   0.00000   0.00000   0.00000
                  --------  --------  --------  --------  --------  --------
 0 C  s               3.8       1.0       4.2       7.2       5.0       2.8
 0 C  pz              0.8       3.4       0.2       4.8       5.3       1.4
 0 C  px              6.5       2.6       2.1       0.3       1.2       3.7
 0 C  py              6.8       0.4       2.6       0.5       7.7       1.4
 0 C  dz2             0.2       0.2       0.0       0.0       0.3       0.0
 0 C  dxz             0.1       0.0       2.2       0.5       0.0       0.0
 0 C  dyz             0.2       0.1       0.0       0.3       0.1       0.1
 0 C  dx2y2           0.2       1.9       0.2       0.1       0.3       0.0
 0 C  dxy             0.5       0.1       0.5       0.9       0.2       0.0
 1 C  s               8.3       3.4       0.6       0.3      10.4       5.2
 1 C  pz              6.6       0.3       3.6       3.2       0.3       1.3
 1 C  px              1.0       0.5      17.2       5.1       5.0       8.5
 1 C  py              0.0       3.9       1.9      27.2       2.9       1.9
 1 C  dz2             0.1       0.1       1.4       1.6       0.1       0.1
 1 C  dxz             0.1       0.2       0.2       0.2       0.1       0.2
 1 C  dyz             0.0       0.5       0.1       0.0       0.1       0.1
 1 C  dxy             0.3       0.0       0.4       0.0       0.0       1.0
 2 C  s               0.4      18.2       1.7       1.4       7.6       3.6
 2 C  pz              4.3       1.2       1.9       0.3       0.0       0.5
 2 C  px              8.4       0.1       3.7       0.7       0.1       0.7
 2 C  py              3.7       5.7       3.4       1.7       5.6      14.3
 2 C  dz2             0.0       0.0       0.0       0.1       0.3       1.2
 2 C  dxz             0.3       0.0       0.7       0.3       0.2       0.3
 2 C  dyz             0.0       0.0       0.3       0.0       0.0       0.0
 2 C  dx2y2           1.7       1.5       0.8       0.0       0.2       0.2
 2 C  dxy             0.0       1.0       0.2       0.2       0.3       0.2
 3 O  s               1.3       1.4       0.0       0.1       0.3       0.4
 3 O  pz              0.8       0.0       0.0       0.5       0.0       0.1
 3 O  px              1.1       0.6       0.1       0.6       0.5       1.0
 3 O  py              1.4       4.2       1.1       1.1       2.9       2.2
 3 O  dz2             0.0       0.9       0.1       0.2       0.5       0.1
 3 O  dxz             0.0       0.0       0.1       0.0       0.0       0.0
 3 O  dx2y2           0.5       1.0       0.5       0.0       1.0       0.7
 3 O  dxy             0.0       0.9       0.1       0.1       0.7       0.6
 4 C  s               1.5       0.8       0.8       2.7      13.1       0.2
 4 C  pz              0.1       1.5      16.2       0.3       1.2       4.1
 4 C  px              3.8      10.5       5.8       4.8       0.1       6.7
 4 C  py              0.5       2.1       0.7       0.6       7.3       0.5
 4 C  dz2             0.5       0.0       0.1       0.6       0.2       0.1
 4 C  dyz             0.0       0.2       0.7       0.0       0.0       0.9
 4 C  dx2y2           0.0       0.6       0.2       0.0       0.0       0.0
 4 C  dxy             0.2       0.0       0.0       0.0       0.0       0.1
 5 C  s               1.5       4.9       2.6       0.3       2.4       5.2
 5 C  pz              0.3       0.9       4.6       0.1       0.6       3.2
 5 C  px              4.8       5.3       2.2       3.4       0.1       0.2
 5 C  py              1.9       1.3       4.6       1.2       0.3       1.0
 5 C  dz2             0.9       0.7       0.3       0.0       0.1       0.0
 5 C  dxz             0.1       0.0       0.3       0.1       0.0       0.5
 5 C  dyz             0.5       0.0       0.8       0.4       0.0       0.3
 5 C  dx2y2           0.2       0.0       0.0       0.2       0.0       0.0
 5 C  dxy             0.5       0.0       0.1       0.3       0.1       0.0
 6 H  s               2.3       0.3       2.0       2.3       1.3       0.2
 7 H  s               2.1       0.2       0.8       4.0       1.4       0.9
 8 H  s               0.9       4.2       0.6       7.5       4.2       0.4
 9 H  s               4.0       3.4       1.4       3.2       3.4       0.3
10 H  s               7.8       1.0       1.8       0.0       0.1      11.1
11 H  s               0.3       0.3       0.2       3.7       2.3       0.4
12 H  s               0.2       1.1       0.0       2.9       1.5       1.7
13 H  s               5.2       0.2       0.4       1.6       1.2       6.1
14 H  s               0.2       2.0       0.5       0.3       0.1       1.3
15 H  s               0.2       2.9       0.1       0.0       0.0       1.2

                     54        55        56        57        58        59   
                   0.64717   0.65206   0.65733   0.66503   0.67011   0.67671
                   0.00000   0.00000   0.00000   0.00000   0.00000   0.00000
                  --------  --------  --------  --------  --------  --------
 0 C  s               3.1       3.3      10.4       2.1       0.3       1.4
[...]
 5 C  dxz            11.0       0.1      12.7       3.1       0.8       0.2
 5 C  dyz             0.0       4.6      18.8       0.9       0.1       0.1
 5 C  dx2y2           0.7       0.2       4.8       0.3       6.0       0.5
 5 C  dxy            21.6       3.7       4.6       4.4       1.2       3.6
 6 H  s               1.5       0.3       0.1       2.4       0.1       0.0
 7 H  s               0.0       3.7       0.1       0.0       0.3       0.0
 8 H  s               1.3       1.4       0.0       0.9       0.0       0.1
 9 H  s               0.1       0.7       0.2       0.4       1.9       0.6
10 H  s               1.2       1.2       0.9       0.2       0.0       0.0
11 H  s               0.0       0.0       1.3       1.1       0.3       0.7
12 H  s               0.0       0.3       1.1       0.5       0.1       1.2
13 H  s               4.2       0.9       0.2       0.9       0.0       0.0
14 H  s               0.0       0.9       3.0       0.3       0.0       0.1
15 H  s               2.8       0.0       1.4       0.4       0.3       0.1

                     96        97        98        99       100       101   
                   2.46549   2.51023   2.59941   2.63259   2.73958   3.04768
                   0.00000   0.00000   0.00000   0.00000   0.00000   0.00000
                  --------  --------  --------  --------  --------  --------
 0 C  s               1.3       0.3       0.0       0.2       0.1       0.0
 0 C  pz              1.2       0.1       0.0       0.1       0.1       0.0
 0 C  px              0.5       0.4       0.1       0.1       0.0       0.0
 0 C  py              1.6       0.2       0.1       0.2       0.1       0.0
 0 C  dz2             0.0       0.5       0.0       0.0       0.5       0.0
 0 C  dxz             3.9       1.7       0.1       0.2       0.0       0.0
 0 C  dyz            14.2       0.4       0.3       1.1       1.3       0.0
 0 C  dx2y2           3.6       0.1       0.1       0.5       0.4       0.0
 0 C  dxy             5.6       2.1       0.1       0.2       0.0       0.0
 1 C  s               1.1       0.6       0.0       0.0       0.5       0.0
 1 C  pz              0.8       0.1       0.0       0.0       0.0       0.0
 1 C  px              0.6       1.7       0.2       0.1       0.2       0.0
 1 C  py              1.8       0.5       0.0       0.1       0.1       0.0
 1 C  dz2             0.7       2.8       0.5       0.0       0.7       0.2
 1 C  dxz             5.9       0.6       0.4       2.8       0.6       0.3
 1 C  dyz            14.2       2.9       0.0       2.1       0.1       0.1
 1 C  dx2y2           3.5      10.1       1.2       0.1       0.1       0.0
 1 C  dxy             5.5       5.9       1.1       0.1      10.8       0.0
 2 C  s               1.3       0.3       0.0       0.1       1.0       0.0
 2 C  pz              0.0       0.3       0.0       0.0       0.0       1.0
 2 C  px              0.0       4.5       0.5       0.1       0.0       0.0
 2 C  py              0.4       0.1       0.1       0.0       0.1       0.0
 2 C  dz2             2.5       0.0       2.9       2.5       0.6       0.5
 2 C  dxz             0.0       0.6       0.5       4.2       4.3       2.0
 2 C  dyz             0.2       0.4       0.4       0.2       0.1      15.1
 2 C  dx2y2           0.1      11.4       1.7       0.5      15.7       0.7
 2 C  dxy             0.0       0.3       2.8       0.4       7.7       0.3
 3 O  s               0.1       0.5       1.0       0.0       2.0       0.0
 3 O  pz              0.0       0.0       0.0       0.0       0.0       1.2
 3 O  px              0.0       0.7       0.1       0.0       0.1       0.0
 3 O  py              0.1       0.3       0.7       0.0       1.5       0.0
 3 O  dz2             1.5       3.8      17.5      24.5      19.2       1.8
 3 O  dxz             5.0       0.6      20.1      45.4       7.2       8.1
 3 O  dyz             0.0       1.6       3.4       3.4       2.0      63.3
 3 O  dx2y2           0.0       0.0      11.5       5.1       0.6       3.2
 3 O  dxy             0.6      14.4       1.3       3.3       0.2       1.4
 4 C  s               0.1       0.1       0.5       0.0       0.1       0.0
 4 C  px              1.4       2.4       1.2       0.0       0.7       0.0
 4 C  py              0.0       0.1       0.1       0.0       0.3       0.0
 4 C  dz2             0.2       0.8       3.2       0.1       0.0       0.1
 4 C  dxz             0.6       0.6       0.1       0.2       0.0       0.4
 4 C  dyz             0.4       0.2       0.3       1.5       0.2       0.0
 4 C  dx2y2           1.8       0.2      11.2       0.0      13.3       0.0
 4 C  dxy             7.4      12.0       1.6       0.1       1.9       0.0
 5 C  s               0.4       0.6       0.7       0.0       0.3       0.0
 5 C  px              0.9       0.9       1.4       0.0       0.6       0.0
 5 C  py              0.0       0.1       0.1       0.0       0.1       0.0
 5 C  dz2             1.6       3.0       1.7       0.0       0.6       0.0
 5 C  dxz             0.0       0.4       0.1       0.0       0.1       0.0
 5 C  dx2y2           5.4       6.3       4.3       0.1       1.1       0.0
 5 C  dxy             0.5       0.5       4.1       0.0       2.1       0.0
 6 H  s               0.1       0.0       0.0       0.0       0.0       0.0
 7 H  s               0.3       0.0       0.0       0.0       0.0       0.0
 8 H  s               0.3       0.0       0.0       0.0       0.0       0.0
10 H  s               0.3       0.2       0.0       0.0       0.3       0.0
12 H  s               0.0       0.1       0.3       0.0       0.0       0.0
13 H  s               0.1       0.1       0.3       0.0       0.1       0.0
14 H  s               0.1       0.2       0.0       0.0       0.0       0.0
15 H  s               0.0       0.2       0.0       0.0       0.0       0.0

                    102       103   
                   3.27992   3.50917
                   0.00000   0.00000
                  --------  --------
 1 C  s               0.2       0.0
 1 C  px              0.6       0.0
 1 C  dz2             0.1       0.0
 1 C  dxz             0.6       0.0
 1 C  dx2y2           2.6       0.0
 1 C  dxy             0.3       0.3
 2 C  s               0.0       6.9
 2 C  px              0.4       0.7
 2 C  py              0.1       6.3
 2 C  dz2             0.0       1.0
 2 C  dyz             1.7       0.1
 2 C  dx2y2           9.1       3.2
 2 C  dxy            16.8       1.5
 3 O  s               0.0       6.5
 3 O  px              1.4       0.4
 3 O  py              0.1       3.7
 3 O  dz2             0.0      15.4
 3 O  dxz             0.0       0.2
 3 O  dyz             3.5       1.4
 3 O  dx2y2          19.7      32.8
 3 O  dxy            37.3      18.7
 4 C  s               0.3       0.0
 4 C  px              0.4       0.0
 4 C  py              0.1       0.1
 4 C  dz2             0.1       0.0
 4 C  dxz             0.3       0.0
 4 C  dx2y2           0.7       0.3
 4 C  dxy             2.4       0.0
 5 C  dx2y2           0.1       0.0


                      *****************************
                      * MAYER POPULATION ANALYSIS *
                      *****************************

  NA   - Mulliken gross atomic population
  ZA   - Total nuclear charge
  QA   - Mulliken gross atomic charge
  VA   - Mayer's total valence
  BVA  - Mayer's bonded valence
  FA   - Mayer's free valence

  ATOM       NA         ZA         QA         VA         BVA        FA
  0 C      6.2959     6.0000    -0.2959     4.0236     4.0236    -0.0000
  1 C      6.1554     6.0000    -0.1554     3.9530     3.9530    -0.0000
  2 C      6.0104     6.0000    -0.0104     4.3020     4.3020    -0.0000
  3 O      8.1714     8.0000    -0.1714     2.3176     2.3176     0.0000
  4 C      6.2219     6.0000    -0.2219     3.9271     3.9271     0.0000
  5 C      6.2459     6.0000    -0.2459     4.0550     4.0550     0.0000
  6 H      0.8875     1.0000     0.1125     0.9566     0.9566    -0.0000
  7 H      0.8853     1.0000     0.1147     0.9493     0.9493    -0.0000
  8 H      0.8865     1.0000     0.1135     0.9492     0.9492    -0.0000
  9 H      0.8842     1.0000     0.1158     0.9477     0.9477     0.0000
 10 H      0.9003     1.0000     0.0997     0.9788     0.9788    -0.0000
 11 H      0.8906     1.0000     0.1094     0.9515     0.9515    -0.0000
 12 H      0.8819     1.0000     0.1181     0.9525     0.9525    -0.0000
 13 H      0.9028     1.0000     0.0972     0.9502     0.9502    -0.0000
 14 H      0.8875     1.0000     0.1125     0.9663     0.9663    -0.0000
 15 H      0.8925     1.0000     0.1075     0.9599     0.9599    -0.0000

  Mayer bond orders larger than 0.100000
B(  0-C ,  1-C ) :   1.1414 B(  0-C ,  6-H ) :   0.9402 B(  0-C ,  7-H ) :   0.9574 
B(  0-C ,  8-H ) :   0.9476 B(  1-C ,  2-C ) :   1.0336 B(  1-C ,  9-H ) :   0.8943 
B(  1-C , 10-H ) :   0.9102 B(  2-C ,  3-O ) :   2.1852 B(  2-C ,  4-C ) :   0.9944 
B(  4-C ,  5-C ) :   1.1563 B(  4-C , 11-H ) :   0.9086 B(  4-C , 12-H ) :   0.8838 
B(  5-C , 13-H ) :   0.9489 B(  5-C , 14-H ) :   0.9497 B(  5-C , 15-H ) :   0.9565 


-------
TIMINGS
-------

Total SCF time: 0 days 0 hours 0 min 3 sec 

Total time                  ....       3.992 sec
Sum of individual times     ....       3.655 sec  ( 91.6%)

SCF preparation             ....       0.141 sec  (  3.5%)
Fock matrix formation       ....       2.982 sec  ( 74.7%)
  Startup                   ....       0.040 sec  (  1.3% of F)
  Split-RI-J                ....       0.866 sec  ( 29.1% of F)
  XC integration            ....       1.726 sec  ( 57.9% of F)
    XC Preparation          ....       0.000 sec  (  0.0% of XC)
    Basis function eval.    ....       0.485 sec  ( 28.1% of XC)
    Density eval.           ....       0.172 sec  (  9.9% of XC)
    XC-Functional eval.     ....       0.147 sec  (  8.5% of XC)
    XC-Potential eval.      ....       0.310 sec  ( 18.0% of XC)
Diagonalization             ....       0.000 sec  (  0.0%)
Density matrix formation    ....       0.113 sec  (  2.8%)
Total Energy calculation    ....       0.022 sec  (  0.6%)
Population analysis         ....       0.050 sec  (  1.2%)
Orbital Transformation      ....       0.034 sec  (  0.9%)
Orbital Orthonormalization  ....       0.000 sec  (  0.0%)
DIIS solution               ....       0.245 sec  (  6.1%)
  MO trafo                  ....       0.000 sec  (  0.0 % of DIIS)
  Orb grad                  ....       0.000 sec  (  0.0 % of DIIS)
  Energy W gradient         ....       0.000 sec  (  0.0 % of DIIS)
  DIIS error                ....       0.001 sec  (  0.6 % of DIIS)
  DIIS work                 ....       0.213 sec  ( 86.6 % of DIIS)
  Form Q                    ....       0.000 sec  (  0.0 % of DIIS)
  Form QpQm                 ....       0.000 sec  (  0.0 % of DIIS)
  Exp/Cayley                ....       0.000 sec  (  0.0 % of DIIS)
  Orb update                ....       0.000 sec  (  0.0 % of DIIS)
  Wake-sleep                ....       0.014 sec  (  5.6 % of DIIS)
SOSCF solution              ....       0.068 sec  (  1.7%)
  MO trafo                  ....       0.036 sec  ( 52.6 % of SOSCF)
  Orb grad                  ....       0.001 sec  (  1.5 % of SOSCF)
  Rot update                ....       0.019 sec  ( 28.5 % of SOSCF)
  Step                      ....       0.012 sec  ( 17.3 % of SOSCF)
Finished LeanSCF after   4.1 sec

Maximum memory used throughout the entire LEANSCF-calculation: 10.0 MB


-------------------------------------------------------------------------------
                          DFT DISPERSION CORRECTION                            
                                                                               
                                DFTD4 V3.4.0                                   
-------------------------------------------------------------------------------
The PBE functional is recognized
Active option DFTDOPT                   ...         5   

-------------------------   ----------------
Dispersion correction           -0.011228642
-------------------------   ----------------

------------------   -----------------
gCP correction             0.065903045
------------------   -----------------

-------------------------   --------------------
FINAL SINGLE POINT ENERGY      -271.142647158843
-------------------------   --------------------


------------------------------------------------------------------------------
                              ORCA PROPERTY CALCULATIONS
------------------------------------------------------------------------------

GBWName                                 ... sp.gbw
Number of atoms                         ...     16
Number of basis functions               ...    104
Max core memory                         ...   1024 MB

Electric properties:
Dipole moment                           ... YES
Quadrupole moment                       ...  NO
Static polarizability (Dipole/Dipole)   ...  NO
Static polarizability (Dipole/Quad.)    ...  NO
Static polarizability (Quad./Quad.)     ...  NO
Static polarizability (Velocity)        ...  NO

Atomic electric properties:
Dipole moment                           ...  NO
Quadrupole moment                       ...  NO
Static polarizability                   ...  NO

Choice of electric origin               ... Center of mass
Position of electric origin             ...     0.000006     0.000031     0.000006

General magnetic properties:
Magnetizability                         ...  NO

EPR properties:
g-Tensor (aka g-matrix)                 ...  NO
Zero-Field splitting spin-orbit         ...  NO
Zero-field splitting spin-spin          ...  NO
Hyperfine couplings                     ...  NO (   0 nuclei)
Quadrupole couplings                    ...  NO (   0 nuclei)
Contact density                         ...  NO (   0 nuclei)

NMR properties:
Chemical shifts                         ...  NO (   0 nuclei)
Spin-rotation constants                 ...  NO (   0 nuclei)
Spin-spin couplings                     ...  NO (   0 nuclei,    0 pairs)

Choice of magnetic origin               ... GIAO
Position of magnetic origin             ...     0.000000     0.000000     0.000000

Properties with geometric perturbations:
SCF Hessian                             ...  NO
IR spectrum                             ...  NO
VCD spectrum                            ...  NO
X-ray spectroscopy properties:
SCF XES/XAS/RIXS spectra                ...  NO


-------------
DIPOLE MOMENT
-------------

Method             : SCF
Type of density    : Electron Density
Multiplicity       :   1
Irrep              :   0
Energy             :  -271.1973215611608907 Eh
Relativity type    : 
Basis              : AO
                                X                 Y                 Z
Electronic contribution:     -0.426098554      -4.944475234      -1.333592163
Nuclear contribution   :      0.785446744       5.915117786       1.420953812
                        -----------------------------------------
Total Dipole Moment    :      0.359348190       0.970642552       0.087361649
                        -----------------------------------------
Magnitude (a.u.)       :      1.038705995
Magnitude (Debye)      :      2.640180820



--------------------
Rotational spectrum 
--------------------
 
Rotational constants in cm-1:             0.196462             0.078825             0.060084 
Rotational constants in MHz :          5889.786834          2363.099654          1801.276824 

Dipole components along the rotational axes: 
x,y,z [a.u.] :     0.503725     0.887836    -0.192141 
x,y,z [Debye]:     1.280368     2.256700    -0.488383 

 

Dipole moment calculation done in   0.0 sec 

Maximum memory used throughout the entire PROP-calculation: 6.4 MB

--------------------------------
SUGGESTED CITATIONS FOR THIS RUN
--------------------------------

Below you find a list of papers that are relevant to this ORCA run
We neither can nor want to force you to cite these papers, but we appreciate if you do
You receive ORCA, which is the product of decades of hard work by many enthusiastic individuals, for free
The only thing we kindly ask in return is that you cite our papers,
We deeply appreciate it, if you show your appreciation for ORCA by not just citing the generic ORCA reference.

Please note that relegating all ORCA citations to the supporting information does *not* help us.
SI sections are not indexed - citations you put there will not count into any citation statistics
But we need these citations in order to attract the funding resources that allow us to do what we are doing

Therefore, if you are a happy ORCA user, please consider citing a few of the papers listed below in the main body of your paper

In addition to the list printed below, the program has created the file sp.bibtex that contains the list in bibtex format
You can import this file easily into all common literature databanks and citation aid programs


List of essential papers. We consider these as the minimum necessary citations

  1. Neese,F.
     Software update: the ORCA program system, version 5.0
     WIRES Comput. Molec. Sci., 2022 12(1)e1606
     doi.org/10.1002/wcms.1606

List of papers to cite with high priority. The work reported in these papers was absolutely
necessary for this run to complete.
Our perspective: the developers of density functionals and basis sets usually get cited in chemistry papers
Good! But without the algorithms to do something with them, the functionals or basis sets would not do anything.
Hence, in our opinion, the algorithm design and method developments papers are equally worthy of getting cited

  1. Neese,F.
     An improvement of the resolution of the identity approximation for the formation of the Coulomb matrix
     J. Comp. Chem., 2003 24(14)1740-1747
     doi.org/10.1002/jcc.10318
  2. Neese,F.
     The SHARK Integral Generation and Digestion System
     J. Comp. Chem., 2022  1-16
     doi.org/10.1002/jcc.26942
  3. Caldeweyher,E.; Bannwarth,C.; Grimme,S.
     Extension of the D3 dispersion coefficient model
     J. Chem. Phys., 2017 147 034112-XXXX
     doi.org/10.1063/1.4993215
  4. Caldeweyher,E.; Ehlert,S.; Hansen,A.; Neugebauer,H.; Spicher,S.; Bannwarth,C.; Grimme,S.
     A generally applicable atomic-charge dependent London dispersion correction
     J. Chem. Phys., 2019 150 154122-XXXX
     doi.org/10.1063/1.5090222
  5. Caldeweyher,E.; Mewes,J.; Ehlert,S.; Grimme,S.
     Extension and evaluation of the D4 London-dispersion model for periodic systems
     Phys. Chem. Chem. Phys., 2020 22(16)8499-8512
     doi.org/10.1039/D0CP00502A

List of suggested additional citations. These are papers that are important in the 'surrounding' of 
of this run, or papers that preceded the highly important papers. If you like your results we are grateful for a citation.

  1. Neese,F.
     The ORCA program system
     WIRES Comput. Molec. Sci., 2012 2(1)73-78
     doi.org/10.1002/wcms.81
  2. Neese,F.
     Software update: the ORCA program system, version 4.0
     WIRES Comput. Molec. Sci., 2018 8(1)1-6
     doi.org/10.1002/wcms.1327
  3. Neese,F.; Wennmohs,F.; Becker,U.; Riplinger,C.
     The ORCA quantum chemistry program package
     J. Chem. Phys., 2020 152 Art. No. L224108
     doi.org/10.1063/5.0004608

List of optional additional citations

  1. Neese,F.
     Approximate second-order SCF convergence for spin unrestricted wavefunctions
     Chem. Phys. Lett., 2000 325(1-3)93-98
     doi.org/10.1016/s0009-2614(00)00662-x

Timings for individual modules:

Sum of individual times          ...        5.135 sec (=   0.086 min)
Startup calculation              ...        0.496 sec (=   0.008 min)   9.7 %
SCF iterations                   ...        4.550 sec (=   0.076 min)  88.6 %
Property calculations            ...        0.088 sec (=   0.001 min)   1.7 %
                             ****ORCA TERMINATED NORMALLY****
TOTAL RUN TIME: 0 days 0 hours 0 minutes 5 seconds 700 msec
