      -----------------------------------------------------------      
     |                   =====================                   |     
     |                           x T B                           |     
     |                   =====================                   |     
     |                         S. Grimme                         |     
     |          Mulliken Center for Theoretical Chemistry        |     
     |                    University of Bonn                     |     
      -----------------------------------------------------------      

   * xtb version 6.7.1 (edcfbbe) compiled by 'albert@albert-system' on 2024-07-22

   xtb is free software: you can redistribute it and/or modify it under
   the terms of the GNU Lesser General Public License as published by
   the Free Software Foundation, either version 3 of the License, or
   (at your option) any later version.
   
   xtb is distributed in the hope that it will be useful,
   but WITHOUT ANY WARRANTY; without even the implied warranty of
   MERCHANTABILITY or FITNESS FOR A PARTICULAR PURPOSE.  See the
   GNU Lesser General Public License for more details.
   
   Cite this work as:
   * C. Bannwarth, E. Caldeweyher, S. Ehlert, A. Hansen, P. Pracht,
     J. Seibert, S. Spicher, S. Grimme, WIREs Comput. Mol. Sci., 2020, 11,
     e01493. DOI: 10.1002/wcms.1493
   
   for GFN2-xTB:
   * C. Bannwarth, S. Ehlert and S. Grimme., J. Chem. Theory Comput., 2019,
     15, 1652-1671. DOI: 10.1021/acs.jctc.8b01176
   for GFN1-xTB:
   * S. Grimme, C. Bannwarth, P. Shushkov, J. Chem. Theory Comput., 2017,
     13, 1989-2009. DOI: 10.1021/acs.jctc.7b00118
   for GFN0-xTB:
   * P. Pracht, E. Caldeweyher, S. Ehlert, S. Grimme, ChemRxiv, 2019, preprint.
     DOI: 10.26434/chemrxiv.8326202.v1
   for GFN-FF:
   * S. Spicher and S. Grimme, Angew. Chem. Int. Ed., 2020, 59, 15665-15673.
     DOI: 10.1002/anie.202004239
   
   for ALPB and GBSA implicit solvation:
   * S. Ehlert, M. Stahn, S. Spicher, S. Grimme, J. Chem. Theory Comput.,
     2021, 17, 4250-4261. DOI: 10.1021/acs.jctc.1c00471
   
   for ddCOSMO and CPCM-X implicit solvation:
   * M. Stahn, S. Ehlert, S. Grimme, J. Phys. Chem. A,
     2023, XX, XXXX-XXXX. DOI: 10.1021/acs.jpca.3c04382
   
   for DFT-D4:
   * E. Caldeweyher, C. Bannwarth and S. Grimme, J. Chem. Phys., 2017,
     147, 034112. DOI: 10.1063/1.4993215
   * E. Caldeweyher, S. Ehlert, A. Hansen, H. Neugebauer, S. Spicher,
     C. Bannwarth and S. Grimme, J. Chem. Phys., 2019, 150, 154122.
     DOI: 10.1063/1.5090222
   * E. Caldeweyher, J.-M. Mewes, S. Ehlert and S. Grimme, Phys. Chem. Chem. Phys.
     2020, 22, 8499-8512. DOI: 10.1039/D0CP00502A
   
   for sTDA-xTB:
   * S. Grimme and C. Bannwarth, J. Chem. Phys., 2016, 145, 054103.
     DOI: 10.1063/1.4959605
   
   in the mass-spec context:
   * V. Asgeirsson, C. Bauer and S. Grimme, Chem. Sci., 2017, 8, 4879.
     DOI: 10.1039/c7sc00601b
   * J. Koopman and S. Grimme, ACS Omega 2019, 4, 12, 15120-15133.
     DOI: 10.1021/acsomega.9b02011
   
   for metadynamics refer to:
   * S. Grimme, J. Chem. Theory Comput., 2019, 155, 2847-2862
     DOI: 10.1021/acs.jctc.9b00143
   
   for SPH calculations refer to:
   * S. Spicher and S. Grimme, J. Chem. Theory Comput., 2021, 17, 1701-1714
     DOI: 10.1021/acs.jctc.0c01306
   
   for ONIOM refer to:
   * C. Plett, A. Katbashev, S. Ehlert, S. Grimme, M. Bursch,
     Phys. Chem. Chem. Phys., 2023, 25, 17860-17868. DOI: 10.1039/D3CP02178E
   
   for DIPRO refer to:
   * J. Kohn, N. Gildemeister, S. Grimme, D. Fazzi, A. Hansen,
     J. Chem. Phys., 2023, just accepted.
   
   for PTB refer to:
   * S. Grimme, M. Mueller, A. Hansen, J. Chem. Phys., 2023, 158, 124111.
     DOI: 10.1063/5.0137838
   
   with help from (in alphabetical order)
   P. Atkinson, C. Bannwarth, F. Bohle, G. Brandenburg, E. Caldeweyher
   M. Checinski, S. Dohm, S. Ehlert, S. Ehrlich, I. Gerasimov, C. Hölzer
   A. Katbashev, J. Kohn, J. Koopman, C. Lavigne, S. Lehtola, F. März, M. Müller,
   F. Musil, H. Neugebauer, J. Pisarek, C. Plett, P. Pracht, F. Pultar,
   J. Seibert, P. Shushkov, S. Spicher, M. Stahn, M. Steiner, T. Strunk,
   J. Stückrath, T. Rose, and J. Unsleber
   
 * started run on 2025/04/11 at 11:36:46.467     
   ID    Z sym.   atoms
    1    6 C      1-3
    2    8 O      4-6
    3    1 H      7-14

           -------------------------------------------------
          |                Calculation Setup                |
           -------------------------------------------------

          program call               : /srv/scratch/z5358697/.xtb/bin/xtb xtb_rrho.coord --gfn2 --bhess vtight --chrg 0 --enso --norestart -I rrho-xcontrol-inp --parallel 1 --alpb water
          hostname                   : k022
          coordinate file            : xtb_rrho.coord
          omp threads                :                     1


           -------------------------------------------------
          |                 G F N 2 - x T B                 |
           -------------------------------------------------

        Reference                      10.1021/acs.jctc.8b01176
      * Hamiltonian:
        H0-scaling (s, p, d)           1.850000    2.230000    2.230000
        zeta-weighting                 0.500000
      * Dispersion:
        s8                             2.700000
        a1                             0.520000
        a2                             5.000000
        s9                             5.000000
      * Repulsion:
        kExp                           1.500000    1.000000
        rExp                           1.000000
      * Coulomb:
        alpha                          2.000000
        third order                    shell-resolved
        anisotropic                    true
        a3                             3.000000
        a5                             4.000000
        cn-shift                       1.200000
        cn-exp                         4.000000
        max-rad                        5.000000

      * Solvation model:               ALPB
        Solvent                        water
        Parameter file                 internal GFN2-xTB/ALPB
        Dielectric constant                8.0200E+01
        Reference state                gsolv [1 M gas/solution]
        Free energy shift                  1.0808E-03 Eh       6.7819E-01 kcal/mol
        Temperature                        2.9815E+02 K
        Density                            1.0000E+00 kg/L
        Solvent mass                       1.8000E+01 g/mol
        Interaction kernel             P16
        Born radius scaling (c1)           1.4744E+00
        Born radii integrator          GBOBC
        Born offset                        0.0000E+00 a0       0.0000E+00 AA
        H-bond correction              true
        Ion screening                  false
        Surface tension                    1.0000E-05 Eh       1.5569E+01 dyn/cm
        Grid points                               974 per atom

          ...................................................
          :                      SETUP                      :
          :.................................................:
          :  # basis functions                  32          :
          :  # atomic orbitals                  32          :
          :  # shells                           20          :
          :  # electrons                        38          :
          :  max. iterations                   250          :
          :  Hamiltonian                  GFN2-xTB          :
          :  restarted?                      false          :
          :  GBSA solvation                   true          :
          :  PC potential                    false          :
          :  electronic temp.          300.0000000     K    :
          :  accuracy                    1.0000000          :
          :  -> integral cutoff          0.2500000E+02      :
          :  -> integral neglect         0.1000000E-07      :
          :  -> SCF convergence          0.1000000E-05 Eh   :
          :  -> wf. convergence          0.1000000E-03 e    :
          :  Broyden damping             0.4000000          :
          :  net charge                          0          :
          :  unpaired electrons                  0          :
          ...................................................

 iter      E             dE          RMSdq      gap      omega  full diag
   1    -22.8399689 -0.228400E+02  0.472E+00   11.01       0.0  T
   2    -22.8625372 -0.225683E-01  0.248E+00   10.85       1.0  T
   3    -22.8638968 -0.135965E-02  0.600E-01   10.84       1.0  T
   4    -22.8639743 -0.774307E-04  0.173E-01   10.84       1.0  T
   5    -22.8640016 -0.273244E-04  0.414E-02   10.86       1.0  T
   6    -22.8640044 -0.286483E-05  0.214E-02   10.86       1.2  T
   7    -22.8640050 -0.560552E-06  0.407E-03   10.86       6.6  T
   8    -22.8640051 -0.423957E-07  0.200E-03   10.86      13.4  T
   9    -22.8640051 -0.464212E-08  0.469E-04   10.86      57.0  T
  10    -22.8640051 -0.540467E-09  0.196E-04   10.86     136.5  T

   *** convergence criteria satisfied after 10 iterations ***

         #    Occupation            Energy/Eh            Energy/eV
      -------------------------------------------------------------
         1        2.0000           -0.6964541             -18.9515
       ...           ...                  ...                  ...
        13        2.0000           -0.5095496             -13.8656
        14        2.0000           -0.4864743             -13.2376
        15        2.0000           -0.4738744             -12.8948
        16        2.0000           -0.4525354             -12.3141
        17        2.0000           -0.4245458             -11.5525
        18        2.0000           -0.4205081             -11.4426
        19        2.0000           -0.4155901             -11.3088 (HOMO)
        20                         -0.0166354              -0.4527 (LUMO)
        21                          0.0180151               0.4902
        22                          0.0685879               1.8664
        23                          0.0996419               2.7114
        24                          0.1165184               3.1706
       ...                                ...                  ...
        32                          0.2702156               7.3529
      -------------------------------------------------------------
                  HL-Gap            0.3989547 Eh           10.8561 eV
             Fermi-level           -0.2161127 Eh           -5.8807 eV

 SCC (total)                   0 d,  0 h,  0 min,  0.037 sec
 SCC setup                      ...        0 min,  0.001 sec (  2.688%)
 Dispersion                     ...        0 min,  0.000 sec (  0.192%)
 classical contributions        ...        0 min,  0.000 sec (  0.047%)
 integral evaluation            ...        0 min,  0.001 sec (  3.027%)
 iterations                     ...        0 min,  0.031 sec ( 85.621%)
 molecular gradient             ...        0 min,  0.003 sec (  7.972%)
 printout                       ...        0 min,  0.000 sec (  0.418%)

         :::::::::::::::::::::::::::::::::::::::::::::::::::::
         ::                     SUMMARY                     ::
         :::::::::::::::::::::::::::::::::::::::::::::::::::::
         :: total energy             -22.691640812537 Eh    ::
         :: total w/o Gsasa/hb       -22.679740398816 Eh    ::
         :: gradient norm              0.038320023693 Eh/a0 ::
         :: HOMO-LUMO gap             10.856109853790 eV    ::
         ::.................................................::
         :: SCC energy               -22.863994127290 Eh    ::
         :: -> isotropic ES            0.096444318525 Eh    ::
         :: -> anisotropic ES          0.000570084450 Eh    ::
         :: -> anisotropic XC         -0.001226220037 Eh    ::
         :: -> dispersion             -0.006947370315 Eh    ::
         :: -> Gsolv                  -0.024185974499 Eh    ::
         ::    -> Gelec               -0.012285560778 Eh    ::
         ::    -> Gsasa                0.003179985121 Eh    ::
         ::    -> Ghb                 -0.016161158540 Eh    ::
         ::    -> Gshift               0.001080759698 Eh    ::
         :: repulsion energy           0.172353314754 Eh    ::
         :: add. restraining           0.000000000000 Eh    ::
         :: total charge               0.000000000000 e     ::
         :::::::::::::::::::::::::::::::::::::::::::::::::::::

metadynamics with 1 initial structures loaded
           -------------------------------------------------
          |           Optimal kpush determination           |
           -------------------------------------------------
      ----------------------------------------------------------- 
     |                   =====================                   |
     |                        A N C O P T                        |
     |                   =====================                   |
     |               Approximate Normal Coordinate               |
     |                Rational Function Optimizer                |
      ----------------------------------------------------------- 
target rmsd / Å         0.100000
unbiased initial rmsd   0.038578
 
iter. min.        max.        rmsd       kpush
final kpush:  0.000000
           -------------------------------------------------
          |            Biased Numerical Hessian             |
           -------------------------------------------------
kpush                :   0.00000
alpha                :   1.00000
step length          :   0.00500
SCC accuracy         :   0.30000
Hessian scale factor :   1.00000
frozen atoms in %    :   0.00000    0
RMS gradient         :   0.00006
estimated CPU  time      0.01 min
estimated wall time      0.01 min

writing file <hessian>.

 projected vibrational frequencies (cm⁻¹)
eigval :       -0.00    -0.00    -0.00     0.00     0.00     0.00
eigval :       63.37    90.78   214.76   248.23   259.46   284.40
eigval :      368.63   416.91   461.80   523.57   845.41   919.66
eigval :     1013.21  1039.32  1076.48  1083.12  1105.54  1132.74
eigval :     1186.46  1204.10  1227.47  1277.05  1303.18  1305.88
eigval :     1343.51  1360.14  1456.87  1467.24  2856.51  2892.98
eigval :     2912.69  2917.96  2985.91  3455.05  3501.08  3506.87
           -------------------------------------------------
          |                Property Printout                |
           -------------------------------------------------

    * Orbital Energies and Occupations

         #    Occupation            Energy/Eh            Energy/eV
      -------------------------------------------------------------
         1        2.0000           -0.6988377             -19.0163
       ...           ...                  ...                  ...
         7        2.0000           -0.5846723             -15.9097
         8        2.0000           -0.5638550             -15.3433
         9        2.0000           -0.5631934             -15.3253
        10        2.0000           -0.5443857             -14.8135
        11        2.0000           -0.5253188             -14.2947
        12        2.0000           -0.5181326             -14.0991
        13        2.0000           -0.5118711             -13.9287
        14        2.0000           -0.4875515             -13.2670
        15        2.0000           -0.4721752             -12.8485
        16        2.0000           -0.4497189             -12.2375
        17        2.0000           -0.4215905             -11.4721
        18        2.0000           -0.4195109             -11.4155
        19        2.0000           -0.4119588             -11.2100 (HOMO)
        20                          0.0078551               0.2137 (LUMO)
        21                          0.0363447               0.9890
        22                          0.0859517               2.3389
        23                          0.0911321               2.4798
        24                          0.1188791               3.2349
        25                          0.1314134               3.5759
        26                          0.1429978               3.8912
        27                          0.1728261               4.7028
        28                          0.1843888               5.0175
        29                          0.2165166               5.8917
        30                          0.2419285               6.5832
       ...                                ...                  ...
        32                          0.2773641               7.5475
      -------------------------------------------------------------
                  HL-Gap            0.4198139 Eh           11.4237 eV
             Fermi-level           -0.2020519 Eh           -5.4981 eV

     #   Z          covCN         q      C6AA      α(0)
     1   6 C        3.675     0.066    19.689     6.358
     2   6 C        3.722     0.100    19.035     6.231
     3   6 C        3.673     0.067    19.680     6.358
     4   8 O        1.655    -0.520    23.332     6.521
     5   8 O        1.656    -0.512    23.142     6.494
     6   8 O        1.655    -0.503    22.949     6.467
     7   1 H        0.924     0.038     2.474     2.460
     8   1 H        0.924     0.065     2.142     2.289
     9   1 H        0.923     0.034     2.529     2.487
    10   1 H        0.924     0.038     2.480     2.463
    11   1 H        0.924     0.034     2.526     2.485
    12   1 H        0.805     0.372     0.538     1.152
    13   1 H        0.804     0.365     0.555     1.170
    14   1 H        0.805     0.355     0.577     1.193

 Mol. C6AA /au·bohr⁶  :       1412.934056
 Mol. C8AA /au·bohr⁸  :      29058.357204
 Mol. α(0) /au        :         54.127297


Wiberg/Mayer (AO) data.
largest (>0.10) Wiberg bond orders for each atom

 ---------------------------------------------------------------------------
     #   Z sym  total        # sym  WBO       # sym  WBO       # sym  WBO
 ---------------------------------------------------------------------------
     1   6 C    3.952 --     6 O    1.005     2 C    0.976     7 H    0.970
                             8 H    0.969
     2   6 C    3.957 --     5 O    0.994     3 C    0.984     1 C    0.976
                             9 H    0.959
     3   6 C    3.957 --     4 O    0.996     2 C    0.984    10 H    0.970
                            11 H    0.969
     4   8 O    1.901 --     3 C    0.996    12 H    0.848
     5   8 O    1.912 --     2 C    0.994    13 H    0.849
     6   8 O    1.923 --     1 C    1.005    14 H    0.860
     7   1 H    0.999 --     1 C    0.970
     8   1 H    0.995 --     1 C    0.969
     9   1 H    0.999 --     2 C    0.959
    10   1 H    0.999 --     3 C    0.970
    11   1 H    0.999 --     3 C    0.969
    12   1 H    0.861 --     4 O    0.848
    13   1 H    0.867 --     5 O    0.849
    14   1 H    0.874 --     6 O    0.860
 ---------------------------------------------------------------------------

Topologies differ in total number of bonds
Writing topology from bond orders to xtbtopo.mol

molecular dipole:
                 x           y           z       tot (Debye)
 q only:        0.758      -1.021      -0.729
   full:        0.981      -1.311      -0.928       4.783
molecular quadrupole (traceless):
                xx          xy          yy          xz          yz          zz
 q only:       -0.533      -1.368       1.658       0.603       3.223      -1.124
  q+dip:       -2.472      -2.915       1.447       0.363       4.365       1.025
   full:       -1.779      -2.481       1.840       0.531       4.407      -0.061

           -------------------------------------------------
          |                Geometry Summary                 |
           -------------------------------------------------

      molecular mass/u    :       92.0939485
   center of mass at/Å    :        0.0008614      -0.0017177      -0.0010620
  moments of inertia/u·Å² :        0.8959033E+02   0.2216590E+03   0.2902946E+03
rotational constants/cm⁻¹ :        0.1881635E+00   0.7605210E-01   0.5807077E-01

 * 13 selected distances

     #   Z          #   Z                                           value/Å
     1   6 C        2   6 C                                       1.5363097 (max)
     2   6 C        3   6 C                                       1.5332198
     3   6 C        4   8 O                                       1.4132518
     2   6 C        5   8 O                                       1.4105432
     1   6 C        6   8 O                                       1.4052779
     1   6 C        7   1 H                                       1.0959520
     1   6 C        8   1 H                                       1.0923006
     2   6 C        9   1 H                                       1.1015186
     3   6 C       10   1 H                                       1.0978375
     3   6 C       11   1 H                                       1.0957777
     4   8 O       12   1 H                                       0.9662943 (min)
     5   8 O       13   1 H                                       0.9697241
     6   8 O       14   1 H                                       0.9666591

 * 4 distinct bonds (by element types)

   Z      Z             #   av. dist./Å        max./Å        min./Å
   1 H    6 C           5     1.0966773     1.1015186     1.0923006
   6 C    6 C           2     1.5347647     1.5363097     1.5332198
   1 H    8 O           3     0.9675592     0.9697241     0.9662943
   6 C    8 O           3     1.4096909     1.4132518     1.4052779

           -------------------------------------------------
          |               Frequency Printout                |
           -------------------------------------------------
 projected vibrational frequencies (cm⁻¹)
eigval :       -0.00    -0.00    -0.00     0.00     0.00     0.00
eigval :       63.37    90.78   214.76   248.23   259.46   284.40
eigval :      368.63   416.91   461.80   523.57   845.41   919.66
eigval :     1013.21  1039.32  1076.48  1083.12  1105.54  1132.74
eigval :     1186.46  1204.10  1227.47  1277.05  1303.18  1305.88
eigval :     1343.51  1360.14  1456.87  1467.24  2856.51  2892.98
eigval :     2912.69  2917.96  2985.91  3455.05  3501.08  3506.87
 reduced masses (amu)
   1: 13.13   2: 13.20   3: 13.69   4: 13.13   5: 13.18   6: 12.74   7:  9.13   8: 12.11
   9:  9.39  10: 12.73  11:  3.36  12:  3.27  13:  2.67  14: 10.47  15: 11.04  16: 11.32
  17:  7.09  18:  5.62  19:  9.29  20:  6.13  21: 12.22  22: 10.63  23: 10.14  24:  3.01
  25:  3.97  26:  3.78  27:  2.69  28:  3.90  29:  3.68  30:  2.68  31:  4.20  32:  4.96
  33:  1.79  34:  1.77  35:  1.71  36:  1.94  37:  1.76  38:  1.48  39:  1.68  40:  1.87
  41:  1.88  42:  1.88
 IR intensities (km·mol⁻¹)
   1:  1.33   2:  0.29   3:  2.63   4:  3.07   5:  2.50   6:  2.77   7:  5.85   8: 12.48
   9: 16.15  10:  9.41  11:139.55  12:258.32  13:227.02  14: 68.53  15:  7.93  16: 21.54
  17: 11.12  18: 24.79  19:153.82  20: 27.62  21:124.53  22:202.24  23: 21.87  24: 58.60
  25: 86.36  26: 35.29  27:  1.53  28:114.32  29: 46.92  30: 26.79  31: 16.08  32: 10.56
  33:  1.93  34:  1.86  35: 63.99  36:100.75  37:104.39  38: 77.12  39: 34.21  40:112.44
  41: 82.07  42: 81.15
 Raman intensities (Ä⁴*amu⁻¹)
   1:  0.00   2:  0.00   3:  0.00   4:  0.00   5:  0.00   6:  0.00   7:  0.00   8:  0.00
   9:  0.00  10:  0.00  11:  0.00  12:  0.00  13:  0.00  14:  0.00  15:  0.00  16:  0.00
  17:  0.00  18:  0.00  19:  0.00  20:  0.00  21:  0.00  22:  0.00  23:  0.00  24:  0.00
  25:  0.00  26:  0.00  27:  0.00  28:  0.00  29:  0.00  30:  0.00  31:  0.00  32:  0.00
  33:  0.00  34:  0.00  35:  0.00  36:  0.00  37:  0.00  38:  0.00  39:  0.00  40:  0.00
  41:  0.00  42:  0.00
 output can be read by thermo (or use thermo option).
 writing <g98.out> molden fake output.
 recommended (thermochemical) frequency scaling factor: 1.0
           -------------------------------------------------
          |             Thermodynamic Functions             |
           -------------------------------------------------

Molecule has no symmetry elements
It seems to be the C1 point group
c1  symmetry found (for desy threshold:  0.10E+00) used in thermo

          ...................................................
          :                      SETUP                      :
          :.................................................:
          :  # frequencies                          36      :
          :  # imaginary freq.                       0      :
          :  linear?                             false      :
          :  only rotor calc.                    false      :
          :  symmetry                               c1      :
          :  rotational number                       1      :
          :  scaling factor                  1.0000000      :
          :  rotor cutoff                    0.0000000 cm⁻¹ :
          :  imag. cutoff                 -100.0000000 cm⁻¹ :
          :.................................................:

    mode    ω/cm⁻¹     T·S(HO)/kcal·mol⁻¹    T·S(FR)/kcal·mol⁻¹   T·S(vib)
   ------------------------------------------------------------------------
       1     63.37    -1.29679 (100.00%)    -0.98597 (  0.00%)    -1.29679
       2     90.78    -1.08619 (100.00%)    -0.87958 (  0.00%)    -1.08619
       3    214.76    -0.59713 (100.00%)    -0.62466 (  0.00%)    -0.59713
       4    248.23    -0.51970 (100.00%)    -0.58177 (  0.00%)    -0.51970
       5    259.46    -0.49654 (100.00%)    -0.56867 (  0.00%)    -0.49654
       6    284.40    -0.44933 (100.00%)    -0.54149 (  0.00%)    -0.44933
   ------------------------------------------------------------------------

   temp. (K)  partition function   enthalpy   heat capacity  entropy
                                   cal/mol     cal/K/mol   cal/K/mol   J/K/mol
 298.15  VIB   81.9                 3132.564     20.817     19.261
         ROT  0.183E+06              888.752      2.981     27.065
         INT  0.150E+08             4021.316     23.798     46.326
         TR   0.855E+27             1481.254      4.968     39.455
         TOT                        5502.5703    28.7658    85.7807   358.9066

       T/K    H(0)-H(T)+PV         H(T)/Eh          T*S/Eh         G(T)/Eh
   ------------------------------------------------------------------------
    298.15    0.876890E-02    0.121102E+00    0.407572E-01    0.803444E-01
   ------------------------------------------------------------------------

         :::::::::::::::::::::::::::::::::::::::::::::::::::::
         ::                  THERMODYNAMIC                  ::
         :::::::::::::::::::::::::::::::::::::::::::::::::::::
         :: total free energy         -22.612890623967 Eh   ::
         ::.................................................::
         :: total energy              -22.693234987714 Eh   ::
         :: zero point energy           0.112332653565 Eh   ::
         :: G(RRHO) w/o ZPVE           -0.031988289818 Eh   ::
         :: G(RRHO) contrib.            0.080344363747 Eh   ::
         :::::::::::::::::::::::::::::::::::::::::::::::::::::

optimized geometry written to: xtbopt.coord


           -------------------------------------------------
          | TOTAL ENERGY              -22.693234987714 Eh   |
          | TOTAL ENTHALPY            -22.572133430221 Eh   |
          | TOTAL FREE ENERGY         -22.612890623967 Eh   |
          | GRADIENT NORM               0.000057864199 Eh/α |
          | HOMO-LUMO GAP              11.423717149578 eV   |
           -------------------------------------------------

------------------------------------------------------------------------
 * finished run on 2025/04/11 at 11:36:47.202     
------------------------------------------------------------------------
 total:
 * wall-time:     0 d,  0 h,  0 min,  0.734 sec
 *  cpu-time:     0 d,  0 h,  0 min,  0.633 sec
 * ratio c/w:     0.862 speedup
 SCF:
 * wall-time:     0 d,  0 h,  0 min,  0.037 sec
 *  cpu-time:     0 d,  0 h,  0 min,  0.010 sec
 * ratio c/w:     0.276 speedup
 analytical hessian:
 * wall-time:     0 d,  0 h,  0 min,  0.539 sec
 *  cpu-time:     0 d,  0 h,  0 min,  0.527 sec
 * ratio c/w:     0.979 speedup

