24
 energy: -314.374851094258 gnorm: 0.020602813946 xtb: 6.7.1 (edcfbbe)
C           -2.90586670898767        0.55926637554783       -0.62260425487589
C           -1.84428538061725       -0.52349354303197       -0.45515294570169
C           -1.18498563172510       -0.49062280461741        0.93441695211406
C            0.31718470674055       -0.18835861938347        0.92701531201078
C            1.15383846791130       -1.20531511193411        0.11689074305180
C            1.96844935287227       -0.38464156657044       -0.89010420879443
C            2.06234900681388        0.99807082184227       -0.25066327301108
C            0.66918032519653        1.18763623972627        0.34068185325097
H           -2.47450312339652        1.54779182078587       -0.48086020631308
H           -3.34225224268104        0.51457244612802       -1.61824242481709
H           -3.70290451164086        0.42740592538939        0.10601140514698
H           -2.31213095072457       -1.49626357836303       -0.61876745867419
H           -1.08720272458177       -0.39809495427641       -1.22987426614499
H           -1.67826162334368        0.26662364781815        1.54758257028577
H           -1.33077906758970       -1.45080949974289        1.43366005813529
H            0.65251967038915       -0.21268708309425        1.96929349287265
H            1.82229982750751       -1.75169901797622        0.78271733214684
H            0.51996887313041       -1.93559286955771       -0.38340511266990
H            2.94590128690541       -0.82317996546477       -1.08635203008139
H            1.43400328203544       -0.31081152733773       -1.83891976981487
H            2.80905803534477        0.99051516163892        0.54524583734161
H            2.32638142403088        1.77590966768695       -0.96599410402806
H            0.63504934528141        1.97244715517404        1.09532648838537
H           -0.02790666711237        1.44942534694228       -0.45482970700155
24
 energy: -314.375662818952 gnorm: 0.005910877841 xtb: 6.7.1 (edcfbbe)
C           -2.91049358318657        0.55938393125891       -0.62995612207485
C           -1.84830905558045       -0.52455376249115       -0.45030876431472
C           -1.18816903849365       -0.49481410850438        0.94449847716947
C            0.31489333964690       -0.18983223521838        0.93196677748923
C            1.15762277184022       -1.20975350327056        0.11627062475864
C            1.97606316057909       -0.38561054659338       -0.89413949445648
C            2.06790541766353        1.00214903042923       -0.25332130268679
C            0.67209172091853        1.18942703803444        0.34351750959132
H           -2.47913132540226        1.55417703027085       -0.48460436652593
H           -3.35424457407169        0.52376951936061       -1.62910765694551
H           -3.71436375368654        0.43476077178455        0.10140698715723
H           -2.30987414898768       -1.50164512110218       -0.62467870106681
H           -1.08595445504548       -0.40583425697686       -1.22796781313911
H           -1.68763342830458        0.26093317253293        1.56265835587017
H           -1.33836808391306       -1.45430215160812        1.45119878625860
H            0.65667764571204       -0.21024152345342        1.97379886634906
H            1.82634012354100       -1.76120697169197        0.78346812001154
H            0.52344981990021       -1.94762052527103       -0.38337555838958
H            2.95484185105047       -0.82581825854392       -1.10424813120177
H            1.43536955470137       -0.30815262539243       -1.84390301423942
H            2.81724154504312        0.99435306702758        0.54645733618938
H            2.34048717959894        1.78577838583490       -0.96605481518442
H            0.62646553341604        1.98128093131883        1.09686119196261
H           -0.02780298363144        1.45146727110512       -0.45736572879249
24
 energy: -314.375745884245 gnorm: 0.001470506872 xtb: 6.7.1 (edcfbbe)
C           -2.91223025179131        0.55912300752817       -0.63055596153444
C           -1.85186680786835       -0.52656912231754       -0.44890640939165
C           -1.18850746091224       -0.49423031522834        0.94637336879319
C            0.31511854967325       -0.19015372312190        0.93348552794416
C            1.16033432507155       -1.21296467893022        0.11572787360517
C            1.97758560451084       -0.38468996407006       -0.89587608430806
C            2.07141695922703        1.00311453420460       -0.25024371389074
C            0.67204593135885        1.19072193988465        0.34221846374719
H           -2.48135778059129        1.55670736077987       -0.48629748081069
H           -3.35702248020846        0.52529092310546       -1.63132840411835
H           -3.72091997756526        0.44072570259195        0.09989637643907
H           -2.31113603053452       -1.50577459249598       -0.62546556966665
H           -1.08632338795475       -0.41218893068746       -1.22669357288363
H           -1.69089876248272        0.26030957584510        1.56710862578702
H           -1.34127714383529       -1.45319489544113        1.45635376089005
H            0.66151348461780       -0.20994662591461        1.97443041560412
H            1.82940722765315       -1.76564136619240        0.78377954160108
H            0.52703319735978       -1.95377414062794       -0.38423825041633
H            2.95602829635837       -0.82519505879897       -1.11412754277921
H            1.43273817447682       -0.30418724669932       -1.84488217952301
H            2.82133661561822        0.99340291282236        0.55156499583140
H            2.34932589152004        1.78943910203076       -0.96013945500044
H            0.62015836455680        1.98632000011454        1.09340680831219
H           -0.02739690272685        1.45145028355204       -0.46252048112733
24
 energy: -314.375758113946 gnorm: 0.000776569749 xtb: 6.7.1 (edcfbbe)
C           -2.91252805279660        0.55864705112332       -0.63100528055645
C           -1.85377674090630       -0.52705227519990       -0.44698320149151
C           -1.18916797600275       -0.49475524346377        0.94806685555777
C            0.31387429755441       -0.19008141991865        0.93258762913236
C            1.16112871280853       -1.21268083920314        0.11402760957743
C            1.97836745509310       -0.38332973197891       -0.89684094058836
C            2.07341751426917        1.00294849274979       -0.24797334183916
C            0.67256616430851        1.19048501095837        0.34064220073467
H           -2.48099420386941        1.55620603076043       -0.48843206438507
H           -3.35700112139938        0.52384456882796       -1.63192204649430
H           -3.72219786759749        0.44295993752486        0.09884135791704
H           -2.31392886825671       -1.50627128886532       -0.62134623147225
H           -1.08848261583769       -0.41508657814032       -1.22550994562554
H           -1.69109627850790        0.26042473399569        1.56863064423028
H           -1.34228415117772       -1.45317210460484        1.45937071313758
H            0.66250626338390       -0.20956845226641        1.97271229368574
H            1.83043880508456       -1.76417110038601        0.78288317941092
H            0.52893235746730       -1.95413493416204       -0.38618879592758
H            2.95569441683234       -0.82414164637389       -1.11900811692215
H            1.43080599219199       -0.29930561357787       -1.84401141689565
H            2.82084959844799        0.98979715970895        0.55625095518224
H            2.35543872665891        1.79035121009370       -0.95503548339826
H            0.61682956461440        1.98713608308280        1.09037401658826
H           -0.02428596998309        1.44904573080765       -0.46706103173808
24
 energy: -314.375769478163 gnorm: 0.001248759348 xtb: 6.7.1 (edcfbbe)
C           -2.91228201777762        0.55791062807806       -0.63107006585782
C           -1.85733950709172       -0.52966512660609       -0.44410542452248
C           -1.18849146224402       -0.49390699619208        0.94906643990583
C            0.31379022147556       -0.18950360999823        0.93013994004484
C            1.16179610073753       -1.21268538045906        0.11052377544401
C            1.97816084028383       -0.38038858502523       -0.89793607347231
C            2.07608371484748        1.00203666169231       -0.24197669420664
C            0.67205891069872        1.19077600833729        0.33733524902325
H           -2.47840498915449        1.55483154220845       -0.49278151761841
H           -3.35645621469395        0.52028250269825       -1.63184402732349
H           -3.72264716126938        0.44748976564258        0.09846960581783
H           -2.32097755191827       -1.50817785262422       -0.61254425478931
H           -1.09339067730918       -0.42340885493082       -1.22445237135579
H           -1.68882851625395        0.26249335332090        1.56935433044685
H           -1.34075218715559       -1.45117304178094        1.46260467015227
H            0.66560950409950       -0.20826127999101        1.96911020302005
H            1.83180507252361       -1.76200493709080        0.78025304052783
H            0.53130471633806       -1.95465280355729       -0.39042545296295
H            2.95323522106738       -0.82205207756778       -1.12665138352665
H            1.42656870389825       -0.28835033767067       -1.84188566187190
H            2.81764610801280        0.98097153965553        0.56747563096180
H            2.36628474171195        1.79178202700361       -0.94281885102289
H            0.60922813410054        1.98941433525652        1.08401793980589
H           -0.01889487811199        1.44433747012476       -0.47679211142313
24
 energy: -314.375772657349 gnorm: 0.000584865894 xtb: 6.7.1 (edcfbbe)
C           -2.91153030612989        0.55811235125476       -0.63092741567760
C           -1.85769935943036       -0.53126681551180       -0.44350308774231
C           -1.18867038117355       -0.49415114039965        0.94926480375354
C            0.31359954138771       -0.18915669539749        0.92923120898286
C            1.16131698668377       -1.21135190285141        0.10960046398028
C            1.97812332481481       -0.37921132202828       -0.89832634399045
C            2.07677478284847        1.00216468857225       -0.24081356198598
C            0.67179666955891        1.19048455775433        0.33628117805644
H           -2.47580619319304        1.55434313005500       -0.49400728939800
H           -3.35649617271813        0.51981383016162       -1.63130341746617
H           -3.72112873262229        0.44925420631514        0.09960313778824
H           -2.32345372567148       -1.50908997964931       -0.60979902744314
H           -1.09427260171735       -0.42761983764445       -1.22463143202248
H           -1.68869066572538        0.26267326731235        1.56905120085631
H           -1.33979850617419       -1.45116276931239        1.46332407688887
H            0.66531535222638       -0.20772980357985        1.96824668288869
H            1.83112539336253       -1.76141357975632        0.77880034398797
H            0.53043937085950       -1.95288805558021       -0.39143606685729
H            2.95288296430765       -0.82143042148047       -1.12725740851501
H            1.42670585785773       -0.28599394117968       -1.84217685219711
H            2.81634117806683        0.97909923106931        0.57030203180639
H            2.36904624664176        1.79247891594071       -0.94000619556068
H            0.60738897003140        1.98935550261494        1.08250665308164
H           -0.01820297779505        1.44278142369082       -0.47895776374911
24
 energy: -314.375772657349 gnorm: 0.000584865894 xtb: 6.7.1 (edcfbbe)
C           -2.91153030612989        0.55811235125476       -0.63092741567760
C           -1.85769935943036       -0.53126681551180       -0.44350308774231
C           -1.18867038117355       -0.49415114039965        0.94926480375354
C            0.31359954138771       -0.18915669539749        0.92923120898286
C            1.16131698668377       -1.21135190285141        0.10960046398028
C            1.97812332481481       -0.37921132202828       -0.89832634399045
C            2.07677478284847        1.00216468857225       -0.24081356198598
C            0.67179666955891        1.19048455775433        0.33628117805644
H           -2.47580619319304        1.55434313005500       -0.49400728939800
H           -3.35649617271813        0.51981383016162       -1.63130341746617
H           -3.72112873262229        0.44925420631514        0.09960313778824
H           -2.32345372567148       -1.50908997964931       -0.60979902744314
H           -1.09427260171735       -0.42761983764445       -1.22463143202248
H           -1.68869066572538        0.26267326731235        1.56905120085631
H           -1.33979850617419       -1.45116276931239        1.46332407688887
H            0.66531535222638       -0.20772980357985        1.96824668288869
H            1.83112539336253       -1.76141357975632        0.77880034398797
H            0.53043937085950       -1.95288805558021       -0.39143606685729
H            2.95288296430765       -0.82143042148047       -1.12725740851501
H            1.42670585785773       -0.28599394117968       -1.84217685219711
H            2.81634117806683        0.97909923106931        0.57030203180639
H            2.36904624664176        1.79247891594071       -0.94000619556068
H            0.60738897003140        1.98935550261494        1.08250665308164
H           -0.01820297779505        1.44278142369082       -0.47895776374911
