      -----------------------------------------------------------      
     |                   =====================                   |     
     |                           x T B                           |     
     |                   =====================                   |     
     |                         S. Grimme                         |     
     |          Mulliken Center for Theoretical Chemistry        |     
     |                    University of Bonn                     |     
      -----------------------------------------------------------      

   * xtb version 6.7.1 (edcfbbe) compiled by 'albert@albert-system' on 2024-07-22

   xtb is free software: you can redistribute it and/or modify it under
   the terms of the GNU Lesser General Public License as published by
   the Free Software Foundation, either version 3 of the License, or
   (at your option) any later version.
   
   xtb is distributed in the hope that it will be useful,
   but WITHOUT ANY WARRANTY; without even the implied warranty of
   MERCHANTABILITY or FITNESS FOR A PARTICULAR PURPOSE.  See the
   GNU Lesser General Public License for more details.
   
   Cite this work as:
   * C. Bannwarth, E. Caldeweyher, S. Ehlert, A. Hansen, P. Pracht,
     J. Seibert, S. Spicher, S. Grimme, WIREs Comput. Mol. Sci., 2020, 11,
     e01493. DOI: 10.1002/wcms.1493
   
   for GFN2-xTB:
   * C. Bannwarth, S. Ehlert and S. Grimme., J. Chem. Theory Comput., 2019,
     15, 1652-1671. DOI: 10.1021/acs.jctc.8b01176
   for GFN1-xTB:
   * S. Grimme, C. Bannwarth, P. Shushkov, J. Chem. Theory Comput., 2017,
     13, 1989-2009. DOI: 10.1021/acs.jctc.7b00118
   for GFN0-xTB:
   * P. Pracht, E. Caldeweyher, S. Ehlert, S. Grimme, ChemRxiv, 2019, preprint.
     DOI: 10.26434/chemrxiv.8326202.v1
   for GFN-FF:
   * S. Spicher and S. Grimme, Angew. Chem. Int. Ed., 2020, 59, 15665-15673.
     DOI: 10.1002/anie.202004239
   
   for ALPB and GBSA implicit solvation:
   * S. Ehlert, M. Stahn, S. Spicher, S. Grimme, J. Chem. Theory Comput.,
     2021, 17, 4250-4261. DOI: 10.1021/acs.jctc.1c00471
   
   for ddCOSMO and CPCM-X implicit solvation:
   * M. Stahn, S. Ehlert, S. Grimme, J. Phys. Chem. A,
     2023, XX, XXXX-XXXX. DOI: 10.1021/acs.jpca.3c04382
   
   for DFT-D4:
   * E. Caldeweyher, C. Bannwarth and S. Grimme, J. Chem. Phys., 2017,
     147, 034112. DOI: 10.1063/1.4993215
   * E. Caldeweyher, S. Ehlert, A. Hansen, H. Neugebauer, S. Spicher,
     C. Bannwarth and S. Grimme, J. Chem. Phys., 2019, 150, 154122.
     DOI: 10.1063/1.5090222
   * E. Caldeweyher, J.-M. Mewes, S. Ehlert and S. Grimme, Phys. Chem. Chem. Phys.
     2020, 22, 8499-8512. DOI: 10.1039/D0CP00502A
   
   for sTDA-xTB:
   * S. Grimme and C. Bannwarth, J. Chem. Phys., 2016, 145, 054103.
     DOI: 10.1063/1.4959605
   
   in the mass-spec context:
   * V. Asgeirsson, C. Bauer and S. Grimme, Chem. Sci., 2017, 8, 4879.
     DOI: 10.1039/c7sc00601b
   * J. Koopman and S. Grimme, ACS Omega 2019, 4, 12, 15120-15133.
     DOI: 10.1021/acsomega.9b02011
   
   for metadynamics refer to:
   * S. Grimme, J. Chem. Theory Comput., 2019, 155, 2847-2862
     DOI: 10.1021/acs.jctc.9b00143
   
   for SPH calculations refer to:
   * S. Spicher and S. Grimme, J. Chem. Theory Comput., 2021, 17, 1701-1714
     DOI: 10.1021/acs.jctc.0c01306
   
   for ONIOM refer to:
   * C. Plett, A. Katbashev, S. Ehlert, S. Grimme, M. Bursch,
     Phys. Chem. Chem. Phys., 2023, 25, 17860-17868. DOI: 10.1039/D3CP02178E
   
   for DIPRO refer to:
   * J. Kohn, N. Gildemeister, S. Grimme, D. Fazzi, A. Hansen,
     J. Chem. Phys., 2023, just accepted.
   
   for PTB refer to:
   * S. Grimme, M. Mueller, A. Hansen, J. Chem. Phys., 2023, 158, 124111.
     DOI: 10.1063/5.0137838
   
   with help from (in alphabetical order)
   P. Atkinson, C. Bannwarth, F. Bohle, G. Brandenburg, E. Caldeweyher
   M. Checinski, S. Dohm, S. Ehlert, S. Ehrlich, I. Gerasimov, C. Hölzer
   A. Katbashev, J. Kohn, J. Koopman, C. Lavigne, S. Lehtola, F. März, M. Müller,
   F. Musil, H. Neugebauer, J. Pisarek, C. Plett, P. Pracht, F. Pultar,
   J. Seibert, P. Shushkov, S. Spicher, M. Stahn, M. Steiner, T. Strunk,
   J. Stückrath, T. Rose, and J. Unsleber
   
 * started run on 2025/04/11 at 11:44:22.018     
   ID    Z sym.   atoms
    1    6 C      1-4, 6-11
    2    1 H      5, 13-25
    3    8 O      12

           -------------------------------------------------
          |                Calculation Setup                |
           -------------------------------------------------

          program call               : /srv/scratch/z5358697/.xtb/bin/xtb solv.coord --gfn2 --sp --chrg 0 --norestart --parallel 1 --alpb water reference -I xtb_sp-xcontrol-inp
          hostname                   : k063
          coordinate file            : solv.coord
          omp threads                :                     1


           -------------------------------------------------
          |                 G F N 2 - x T B                 |
           -------------------------------------------------

        Reference                      10.1021/acs.jctc.8b01176
      * Hamiltonian:
        H0-scaling (s, p, d)           1.850000    2.230000    2.230000
        zeta-weighting                 0.500000
      * Dispersion:
        s8                             2.700000
        a1                             0.520000
        a2                             5.000000
        s9                             5.000000
      * Repulsion:
        kExp                           1.500000    1.000000
        rExp                           1.000000
      * Coulomb:
        alpha                          2.000000
        third order                    shell-resolved
        anisotropic                    true
        a3                             3.000000
        a5                             4.000000
        cn-shift                       1.200000
        cn-exp                         4.000000
        max-rad                        5.000000

      * Solvation model:               ALPB
        Solvent                        water
        Parameter file                 internal GFN2-xTB/ALPB
        Dielectric constant                8.0200E+01
        Reference state                gsolv=reference [X=1]
        Free energy shift                  2.8945E-03 Eh       1.8164E+00 kcal/mol
        Temperature                        2.9815E+02 K
        Density                            1.0000E+00 kg/L
        Solvent mass                       1.8000E+01 g/mol
        Interaction kernel             P16
        Born radius scaling (c1)           1.4744E+00
        Born radii integrator          GBOBC
        Born offset                        0.0000E+00 a0       0.0000E+00 AA
        H-bond correction              true
        Ion screening                  false
        Surface tension                    1.0000E-05 Eh       1.5569E+01 dyn/cm
        Grid points                               974 per atom

          ...................................................
          :                      SETUP                      :
          :.................................................:
          :  # basis functions                  58          :
          :  # atomic orbitals                  58          :
          :  # shells                           36          :
          :  # electrons                        60          :
          :  max. iterations                   250          :
          :  Hamiltonian                  GFN2-xTB          :
          :  restarted?                      false          :
          :  GBSA solvation                   true          :
          :  PC potential                    false          :
          :  electronic temp.          300.0000000     K    :
          :  accuracy                    1.0000000          :
          :  -> integral cutoff          0.2500000E+02      :
          :  -> integral neglect         0.1000000E-07      :
          :  -> SCF convergence          0.1000000E-05 Eh   :
          :  -> wf. convergence          0.1000000E-03 e    :
          :  Broyden damping             0.4000000          :
          :  net charge                          0          :
          :  unpaired electrons                  0          :
          ...................................................

 iter      E             dE          RMSdq      gap      omega  full diag
   1    -32.9990375 -0.329990E+02  0.408E+00    2.85       0.0  T
   2    -33.0535061 -0.544686E-01  0.214E+00    2.48       1.0  T
   3    -33.0504279  0.307818E-02  0.133E+00    2.82       1.0  T
   4    -33.0615455 -0.111177E-01  0.423E-01    2.64       1.0  T
   5    -33.0637189 -0.217338E-02  0.978E-02    2.59       1.0  T
   6    -33.0638264 -0.107479E-03  0.450E-02    2.59       1.0  T
   7    -33.0638312 -0.474570E-05  0.265E-02    2.59       1.0  T
   8    -33.0638371 -0.590224E-05  0.867E-03    2.59       2.3  T
   9    -33.0638377 -0.677016E-06  0.286E-03    2.59       7.0  T
  10    -33.0638377 -0.190324E-07  0.108E-03    2.59      18.5  T
  11    -33.0638378 -0.398135E-08  0.470E-04    2.59      42.5  T
  12    -33.0638378 -0.664961E-09  0.126E-04    2.59     159.2  T

   *** convergence criteria satisfied after 12 iterations ***

         #    Occupation            Energy/Eh            Energy/eV
      -------------------------------------------------------------
         1        2.0000           -0.7151440             -19.4601
       ...           ...                  ...                  ...
        24        2.0000           -0.4397771             -11.9669
        25        2.0000           -0.4342693             -11.8171
        26        2.0000           -0.4287709             -11.6675
        27        2.0000           -0.4165424             -11.3347
        28        2.0000           -0.4082673             -11.1095
        29        2.0000           -0.4006342             -10.9018
        30        2.0000           -0.3874971             -10.5443 (HOMO)
        31                         -0.2924823              -7.9588 (LUMO)
        32                         -0.1962000              -5.3389
        33                         -0.1719617              -4.6793
        34                          0.0621386               1.6909
        35                          0.0685627               1.8657
       ...                                ...                  ...
        58                          0.6407102              17.4346
      -------------------------------------------------------------
                  HL-Gap            0.0950148 Eh            2.5855 eV
             Fermi-level           -0.3399897 Eh           -9.2516 eV

 SCC (total)                   0 d,  0 h,  0 min,  0.038 sec
 SCC setup                      ...        0 min,  0.002 sec (  6.120%)
 Dispersion                     ...        0 min,  0.000 sec (  0.578%)
 classical contributions        ...        0 min,  0.000 sec (  0.109%)
 integral evaluation            ...        0 min,  0.003 sec (  9.059%)
 iterations                     ...        0 min,  0.023 sec ( 60.106%)
 molecular gradient             ...        0 min,  0.009 sec ( 23.484%)
 printout                       ...        0 min,  0.000 sec (  0.488%)

         :::::::::::::::::::::::::::::::::::::::::::::::::::::
         ::                     SUMMARY                     ::
         :::::::::::::::::::::::::::::::::::::::::::::::::::::
         :: total energy             -32.568108414933 Eh    ::
         :: total w/o Gsasa/hb       -32.570143384073 Eh    ::
         :: gradient norm              0.000079065209 Eh/a0 ::
         :: HOMO-LUMO gap              2.585483072749 eV    ::
         ::.................................................::
         :: SCC energy               -33.063744342969 Eh    ::
         :: -> isotropic ES            0.039905351601 Eh    ::
         :: -> anisotropic ES          0.003302278651 Eh    ::
         :: -> anisotropic XC          0.017629738704 Eh    ::
         :: -> dispersion             -0.020682370877 Eh    ::
         :: -> Gsolv                  -0.007186360325 Eh    ::
         ::    -> Gelec               -0.009221329465 Eh    ::
         ::    -> Gsasa                0.000797543795 Eh    ::
         ::    -> Ghb                 -0.001657123816 Eh    ::
         ::    -> Gshift               0.002894549160 Eh    ::
         :: repulsion energy           0.495635928036 Eh    ::
         :: add. restraining           0.000000000000 Eh    ::
         :: total charge              -0.000000000000 e     ::
         :::::::::::::::::::::::::::::::::::::::::::::::::::::

           -------------------------------------------------
          |                Property Printout                |
           -------------------------------------------------

    * Orbital Energies and Occupations

         #    Occupation            Energy/Eh            Energy/eV
      -------------------------------------------------------------
         1        2.0000           -0.7151440             -19.4601
       ...           ...                  ...                  ...
        18        2.0000           -0.4814734             -13.1016
        19        2.0000           -0.4803815             -13.0718
        20        2.0000           -0.4748364             -12.9210
        21        2.0000           -0.4711292             -12.8201
        22        2.0000           -0.4653436             -12.6626
        23        2.0000           -0.4522981             -12.3077
        24        2.0000           -0.4397771             -11.9669
        25        2.0000           -0.4342693             -11.8171
        26        2.0000           -0.4287709             -11.6675
        27        2.0000           -0.4165424             -11.3347
        28        2.0000           -0.4082673             -11.1095
        29        2.0000           -0.4006342             -10.9018
        30        2.0000           -0.3874971             -10.5443 (HOMO)
        31                         -0.2924823              -7.9588 (LUMO)
        32                         -0.1962000              -5.3389
        33                         -0.1719617              -4.6793
        34                          0.0621386               1.6909
        35                          0.0685627               1.8657
        36                          0.0735171               2.0005
        37                          0.0973419               2.6488
        38                          0.1012779               2.7559
        39                          0.1302839               3.5452
        40                          0.1343594               3.6561
        41                          0.1505882               4.0977
       ...                                ...                  ...
        58                          0.6407102              17.4346
      -------------------------------------------------------------
                  HL-Gap            0.0950148 Eh            2.5855 eV
             Fermi-level           -0.3399897 Eh           -9.2516 eV

     #   Z          covCN         q      C6AA      α(0)
     1   6 C        3.759    -0.123    22.913     6.824
     2   6 C        2.940     0.015    27.677     8.628
     3   6 C        2.845    -0.118    30.976     9.121
     4   6 C        3.861    -0.022    20.918     6.504
     5   1 H        0.924     0.040     2.447     2.446
     6   6 C        3.805    -0.061    21.661     6.626
     7   6 C        3.814    -0.061    21.657     6.624
     8   6 C        2.955    -0.018    28.453     8.749
     9   6 C        2.911    -0.014    28.358     8.732
    10   6 C        3.816    -0.067    21.774     6.641
    11   6 C        2.768     0.209    23.573     7.951
    12   8 O        0.856    -0.432    22.328     6.335
    13   1 H        0.925     0.059     2.209     2.324
    14   1 H        0.925     0.055     2.255     2.348
    15   1 H        0.925     0.049     2.334     2.389
    16   1 H        0.926     0.029     2.595     2.519
    17   1 H        0.926     0.036     2.505     2.475
    18   1 H        0.924     0.036     2.501     2.473
    19   1 H        0.924     0.050     2.318     2.381
    20   1 H        0.924     0.052     2.301     2.372
    21   1 H        0.924     0.061     2.193     2.316
    22   1 H        0.926     0.060     2.201     2.320
    23   1 H        0.925     0.060     2.203     2.321
    24   1 H        0.924     0.089     1.887     2.148
    25   1 H        0.922     0.015     2.812     2.623

 Mol. C6AA /au·bohr⁶  :       5722.004169
 Mol. C8AA /au·bohr⁸  :     131087.252835
 Mol. α(0) /au        :        116.192461


Wiberg/Mayer (AO) data.
largest (>0.10) Wiberg bond orders for each atom

 ---------------------------------------------------------------------------
     #   Z sym  total        # sym  WBO       # sym  WBO       # sym  WBO
 ---------------------------------------------------------------------------
     1   6 C    3.995 --     2 C    1.026    15 H    0.982    14 H    0.974
                            13 H    0.964
     2   6 C    3.986 --     3 C    1.927     1 C    1.026     4 C    0.998
     3   6 C    3.983 --     2 C    1.927    16 H    0.976    17 H    0.975
     4   6 C    3.993 --     2 C    0.998     6 C    0.981     5 H    0.970
                            10 C    0.954
     5   1 H    0.998 --     4 C    0.970
     6   6 C    3.994 --     7 C    0.989     4 C    0.981    18 H    0.981
                            19 H    0.974
     7   6 C    3.995 --     8 C    1.016     6 C    0.989    20 H    0.974
                            21 H    0.955
     8   6 C    3.984 --     9 C    1.714    11 C    1.117     7 C    1.016
     9   6 C    3.980 --     8 C    1.714    10 C    1.061    22 H    0.964
                            12 O    0.105
    10   6 C    3.994 --     9 C    1.061    23 H    0.976     4 C    0.954
                            24 H    0.931
    11   6 C    3.916 --    12 O    1.776     8 C    1.117    25 H    0.933
    12   8 O    2.010 --    11 C    1.776     9 C    0.105
    13   1 H    0.996 --     1 C    0.964
    14   1 H    0.997 --     1 C    0.974
    15   1 H    0.997 --     1 C    0.982
    16   1 H    0.999 --     3 C    0.976
    17   1 H    0.997 --     3 C    0.975
    18   1 H    0.999 --     6 C    0.981
    19   1 H    0.997 --     6 C    0.974
    20   1 H    0.997 --     7 C    0.974
    21   1 H    0.996 --     7 C    0.955
    22   1 H    0.996 --     9 C    0.964
    23   1 H    0.996 --    10 C    0.976
    24   1 H    0.992 --    10 C    0.931
    25   1 H    0.999 --    11 C    0.933
 ---------------------------------------------------------------------------

Topologies differ in total number of bonds
Writing topology from bond orders to xtbtopo.mol

molecular dipole:
                 x           y           z       tot (Debye)
 q only:        1.804       0.542       0.970
   full:        1.736       0.712       0.984       5.384
molecular quadrupole (traceless):
                xx          xy          yy          xz          yz          zz
 q only:      -15.602      -7.487       8.474      -3.498      -0.335       7.128
  q+dip:      -15.824      -9.434       9.344      -3.909      -1.382       6.480
   full:      -16.557      -9.253       8.802      -4.451      -1.401       7.755


           -------------------------------------------------
          | TOTAL ENERGY              -32.568108414933 Eh   |
          | GRADIENT NORM               0.000079065209 Eh/α |
          | HOMO-LUMO GAP               2.585483072749 eV   |
           -------------------------------------------------

------------------------------------------------------------------------
 * finished run on 2025/04/11 at 11:44:22.104     
------------------------------------------------------------------------
 total:
 * wall-time:     0 d,  0 h,  0 min,  0.086 sec
 *  cpu-time:     0 d,  0 h,  0 min,  0.040 sec
 * ratio c/w:     0.464 speedup
 SCF:
 * wall-time:     0 d,  0 h,  0 min,  0.039 sec
 *  cpu-time:     0 d,  0 h,  0 min,  0.028 sec
 * ratio c/w:     0.716 speedup

