
                                 *****************
                                 * O   R   C   A *
                                 *****************

                                            #,                                       
                                            ###                                      
                                            ####                                     
                                            #####                                    
                                            ######                                   
                                           ########,                                 
                                     ,,################,,,,,                         
                               ,,#################################,,                 
                          ,,##########################################,,             
                       ,#########################################, ''#####,          
                    ,#############################################,,   '####,        
                  ,##################################################,,,,####,       
                ,###########''''           ''''###############################       
              ,#####''   ,,,,##########,,,,          '''####'''          '####       
            ,##' ,,,,###########################,,,                        '##       
           ' ,,###''''                  '''############,,,                           
         ,,##''                                '''############,,,,        ,,,,,,###''
      ,#''                                            '''#######################'''  
     '                                                          ''''####''''         
             ,#######,   #######,   ,#######,      ##                                
            ,#'     '#,  ##    ##  ,#'     '#,    #''#        ,####,   ,####,        
            ##       ##  ##   ,#'  ##            #'  '#       #'       #'  '#        
            ##       ##  #######   ##           ,######,      #####,   #    #        
            '#,     ,#'  ##    ##  '#,     ,#' ,#      #,     #,   #   #,  ,#        
             '#######'   ##     ##  '#######'  #'      '#     '####' # '####'        



                #########################################################
                #                        -***-                          #
                #          Department of theory and spectroscopy        #
                #                                                       #
                #                      Frank Neese                      #
                #                                                       #
                #     Directorship, Architecture, Infrastructure        #
                #                    SHARK, DRIVERS                     #
                #        Core code/Algorithms in most modules           #
                #                                                       #
                #        Max Planck Institute fuer Kohlenforschung      #
                #                Kaiser Wilhelm Platz 1                 #
                #                 D-45470 Muelheim/Ruhr                 #
                #                      Germany                          #
                #                                                       #
                #                  All rights reserved                  #
                #                        -***-                          #
                #########################################################


                         Program Version 6.0.0  -   RELEASE  -


 With contributions from (in alphabetic order):
   Daniel Aravena         : Magnetic Suceptibility
   Michael Atanasov       : Ab Initio Ligand Field Theory (pilot matlab implementation)
   Alexander A. Auer      : GIAO ZORA, VPT2 properties, NMR spectrum
   Ute Becker             : All parallelization in ORCA, NUMFREQ, NUMCALC
   Giovanni Bistoni       : ED, misc. LED, open-shell LED, HFLD
   Martin Brehm           : Molecular dynamics
   Dmytro Bykov           : pre 5.0 version of the SCF Hessian
   Marcos Casanova-Páez   : Triplet and SCS-CIS(D). UHF-(DLPNO)-IP/EA/STEOM-CCSD. UHF-CVS-IP/STEOM-CCSD
   Vijay G. Chilkuri      : MRCI spin determinant printing, contributions to CSF-ICE
   Pauline Colinet        : FMM embedding
   Dipayan Datta          : RHF DLPNO-CCSD density
   Achintya Kumar Dutta   : EOM-CC, STEOM-CC
   Nicolas Foglia         : Exact transition moments, OPA infrastructure, MCD improvements
   Dmitry Ganyushin       : Spin-Orbit,Spin-Spin,Magnetic field MRCI
   Miquel Garcia          : C-PCM and meta-GGA Hessian, CCSD/C-PCM, Gaussian charge scheme
   Tiago L. C. Gouveia    : GS-ROHF, GS-ROCIS
   Yang Guo               : DLPNO-NEVPT2, F12-NEVPT2, CIM, IAO-localization
   Andreas Hansen         : Spin unrestricted coupled pair/coupled cluster methods
   Ingolf Harden          : AUTO-CI MPn and infrastructure 
   Benjamin Helmich-Paris : MC-RPA, TRAH-(SCF,CASSCF), AVAS, COSX integrals, SCF dyn. polar.
   Lee Huntington         : MR-EOM, pCC
   Robert Izsak           : Overlap fitted RIJCOSX, COSX-SCS-MP3, EOM
   Riya Kayal             : Wick's Theorem for AUTO-CI, AUTO-CI UHF-CCSDT
   Emily Kempfer          : AUTO-CI, RHF CISDT and CCSDT
   Christian Kollmar      : KDIIS, OOCD, Brueckner-CCSD(T), CCSD density, CASPT2, CASPT2-K, improved NEVPT2
   Axel Koslowski         : Symmetry handling
   Simone Kossmann        : Meta GGA functionals, TD-DFT gradient, OOMP2, (MP2 Hessian; deprecated post 5.0)
   Lucas Lang             : DCDCAS
   Marvin Lechner         : AUTO-CI (C++ implementation), FIC-MRCC
   Spencer Leger          : CASSCF response
   Dagmar Lenk            : GEPOL surface, SMD, ORCA-2-JSON
   Dimitrios Liakos       : Extrapolation schemes; Compound Job, initial MDCI parallelization
   Dimitrios Manganas     : Further ROCIS development; embedding schemes. LFT, Crystal Embedding
   Dimitrios Pantazis     : SARC Basis sets
   Anastasios Papadopoulos: AUTO-CI, single reference methods and gradients
   Taras Petrenko         : pre 6.0 DFT Hessian and TD-DFT gradient, (ASA, deprecated), ECA, 1-Electron XAS/XES, NRVS
   Peter Pinski           : DLPNO-MP2, DLPNO-MP2 Gradient
   Christoph Reimann      : Effective Core Potentials
   Marius Retegan         : Local ZFS, SOC
   Christoph Riplinger    : Optimizer, TS searches, QM/MM, DLPNO-CCSD(T), (RO)-DLPNO pert. Triples
   Michael Roemelt        : Original ROCIS implementation
   Masaaki Saitow         : Open-shell DLPNO-CCSD energy and density
   Barbara Sandhoefer     : DKH picture change effects
   Kantharuban Sivalingam : CASSCF convergence/infrastructure, NEVPT2 and variants, FIC-MRCI
   Bernardo de Souza      : ESD, SOC TD-DFT
   Georgi Stoychev        : AutoAux, RI-MP2 NMR, DLPNO-MP2 response, X2C
   Van Anh Tran           : RI-MP2 g-tensors
   Willem Van den Heuvel  : Paramagnetic NMR
   Zikuan Wang            : NOTCH, Electric field optimization 
   Frank Wennmohs         : Technical directorship and infrastructure
   Hang Xu                : AUTO-CI-Response properties 


 We gratefully acknowledge several colleagues who have allowed us to
 interface, adapt or use parts of their codes:
   Stefan Grimme, W. Hujo, H. Kruse, P. Pracht,  : VdW corrections, initial TS optimization,
                  C. Bannwarth, S. Ehlert,         DFT functionals, gCP, sTDA/sTD-DF
                  L. Wittmann, M. Mueller
   Ed Valeev, F. Pavosevic, A. Kumar             : LibInt (2-el integral package), F12 methods
   Garnet Chan, S. Sharma, J. Yang, R. Olivares  : DMRG
   Ulf Ekstrom                                   : XCFun DFT Library
   Mihaly Kallay                                 : mrcc  (arbitrary order and MRCC methods)
   Frank Weinhold                                : gennbo (NPA and NBO analysis)
   Simon Mueller                                 : openCOSMO-RS
   Christopher J. Cramer and Donald G. Truhlar   : smd solvation model
   Lars Goerigk                                  : TD-DFT with DH, B97 family of functionals
   V. Asgeirsson, H. Jonsson                     : NEB implementation
   FAccTs GmbH                                   : IRC, NEB, NEB-TS, DLPNO-Multilevel, CI-OPT
                                                   MM, QMMM, 2- and 3-layer-ONIOM, Crystal-QMMM,
                                                   LR-CPCM, SF, NACMEs, symmetry and pop. for TD-DFT,
                                                   nearIR, NL-DFT gradient (VV10), updates on ESD,
                                                   ML-optimized integration grids, MBIS, APM,
                                                   GOAT, DOCKER, SOLVATOR, interface openCOSMO-RS
   S Lehtola, MJT Oliveira, MAL Marques          : LibXC Library
   Liviu Ungur et al                             : ANISO software


 Your calculation uses the libint2 library for the computation of 2-el integrals
 For citations please refer to: http://libint.valeyev.net

 Your ORCA version has been built with support for libXC version: 6.2.2
 For citations please refer to: https://libxc.gitlab.io

 This ORCA versions uses:
   CBLAS   interface :  Fast vector & matrix operations
   LAPACKE interface :  Fast linear algebra routines
   SCALAPACK package :  Parallel linear algebra routines
   Shared memory     :  Shared parallel matrices
   BLAS/LAPACK       :  OpenBLAS 0.3.27  USE64BITINT DYNAMIC_ARCH NO_AFFINITY SkylakeX SINGLE_THREADED
        Core in use  :  SkylakeX
   Copyright (c) 2011-2014, The OpenBLAS Project


Your calculation utilizes the geometrical counterpoise correction gCP
Please cite in your paper:
H.Kruse, S. Grimme J.Chem.Phys., 136, (2012), 154101 
   

Your calculation utilizes the atom-pairwise dispersion correction
based on EEQ partial charges (D4)


================================================================================

----- Orbital basis set information -----
Your calculation utilizes the basis: def2-mTZVPP
   Stefan Grimme, Andreas Hansen, Sebastian Ehlert, and Jan-Michael Mewes 
   J. Chem. Phys. 154, 064103 (2021). DOI: 10.1063/5.0040021

----- AuxJ basis set information -----
Your calculation utilizes the auxiliary basis: def2/J
   F. Weigend, Phys. Chem. Chem. Phys. 8, 1057 (2006).

================================================================================
                                        WARNINGS
                       Please study these warnings very carefully!
================================================================================

Using LibXC functional ID 497 : Re-regularized SCAN exchange by Furness et al
[ 1]  J. W. Furness, A. D. Kaplan, J. Ning, J. P. Perdew, and J. Sun.,  J. Phys. Chem. Lett. 11, 8208-8215 (2020)
[ 2]  J. W. Furness, A. D. Kaplan, J. Ning, J. P. Perdew, and J. Sun.,  J. Phys. Chem. Lett. 11, 9248-9248 (2020)
Using LibXC functional ID 498 : Re-regularized SCAN correlation by Furness et al
[ 1]  J. W. Furness, A. D. Kaplan, J. Ning, J. P. Perdew, and J. Sun.,  J. Phys. Chem. Lett. 11, 8208-8215 (2020)
[ 2]  J. W. Furness, A. D. Kaplan, J. Ning, J. P. Perdew, and J. Sun.,  J. Phys. Chem. Lett. 11, 9248-9248 (2020)
Using LibXC functional ID 497 : Re-regularized SCAN exchange by Furness et al
[ 1]  J. W. Furness, A. D. Kaplan, J. Ning, J. P. Perdew, and J. Sun.,  J. Phys. Chem. Lett. 11, 8208-8215 (2020)
[ 2]  J. W. Furness, A. D. Kaplan, J. Ning, J. P. Perdew, and J. Sun.,  J. Phys. Chem. Lett. 11, 9248-9248 (2020)
Using LibXC functional ID 498 : Re-regularized SCAN correlation by Furness et al
[ 1]  J. W. Furness, A. D. Kaplan, J. Ning, J. P. Perdew, and J. Sun.,  J. Phys. Chem. Lett. 11, 8208-8215 (2020)
[ 2]  J. W. Furness, A. D. Kaplan, J. Ning, J. P. Perdew, and J. Sun.,  J. Phys. Chem. Lett. 11, 9248-9248 (2020)

================================================================================
                                       INPUT FILE
================================================================================
NAME = sp_gas.inp
|  1> ! r2scan-3c def2/J RI DEFGRID2 scfconv6 printgap
|  2> %output
|  3>     printlevel normal
|  4> end
|  5> * xyz 0 1
|  6> C -2.8141955707 -0.1921209801 -0.4625136027
|  7> C -1.6879646397 0.7361881146 -0.0257784228
|  8> C -0.4057875802 -0.012399234 0.2358145169
|  9> O -0.3224713201 -1.1967760988 0.4808186847
| 10> O 0.6426387166 0.8050748472 0.1919228411
| 11> C 1.9485071307 0.2563304817 0.4384048084
| 12> C 2.5513505824 -0.3216395381 -0.8328527603
| 13> H -2.9424114051 -0.9894343644 0.2651235065
| 14> H -3.7434128263 0.3619133413 -0.550755186
| 15> H -2.5820853419 -0.646358322 -1.4223018478
| 16> H -1.9544306022 1.2366418826 0.9082369483
| 17> H -1.4882709079 1.5075329797 -0.7692695376
| 18> H 2.5334807004 1.0986525208 0.808609585
| 19> H 1.8628734894 -0.5160222861 1.2088114762
| 20> H 2.5798742941 0.4358202671 -1.6113898191
| 21> H 3.560158914 -0.6651343333 -0.6287313487
| 22> H 1.9550389212 -1.1632793829 -1.1781115944
| 23> *
| 24> 
| 25>                          ****END OF INPUT****
================================================================================

                       ****************************
                       * Single Point Calculation *
                       ****************************

---------------------------------
CARTESIAN COORDINATES (ANGSTROEM)
---------------------------------
  C     -2.814196   -0.192121   -0.462514
  C     -1.687965    0.736188   -0.025778
  C     -0.405788   -0.012399    0.235815
  O     -0.322471   -1.196776    0.480819
  O      0.642639    0.805075    0.191923
  C      1.948507    0.256330    0.438405
  C      2.551351   -0.321640   -0.832853
  H     -2.942411   -0.989434    0.265124
  H     -3.743413    0.361913   -0.550755
  H     -2.582085   -0.646358   -1.422302
  H     -1.954431    1.236642    0.908237
  H     -1.488271    1.507533   -0.769270
  H      2.533481    1.098653    0.808610
  H      1.862873   -0.516022    1.208811
  H      2.579874    0.435820   -1.611390
  H      3.560159   -0.665134   -0.628731
  H      1.955039   -1.163279   -1.178112

----------------------------
CARTESIAN COORDINATES (A.U.)
----------------------------
  NO LB      ZA    FRAG     MASS         X           Y           Z
   0 C     6.0000    0    12.011   -5.318059   -0.363056   -0.874024
   1 C     6.0000    0    12.011   -3.189791    1.391194   -0.048714
   2 C     6.0000    0    12.011   -0.766827   -0.023431    0.445625
   3 O     8.0000    0    15.999   -0.609382   -2.261579    0.908616
   4 O     8.0000    0    15.999    1.214411    1.521371    0.362682
   5 C     6.0000    0    12.011    3.682145    0.484394    0.828465
   6 C     6.0000    0    12.011    4.821354   -0.607811   -1.573864
   7 H     1.0000    0     1.008   -5.560352   -1.869760    0.501011
   8 H     1.0000    0     1.008   -7.074025    0.683917   -1.040776
   9 H     1.0000    0     1.008   -4.879434   -1.221440   -2.687761
  10 H     1.0000    0     1.008   -3.693339    2.336914    1.716319
  11 H     1.0000    0     1.008   -2.812424    2.848824   -1.453709
  12 H     1.0000    0     1.008    4.787585    2.076152    1.528051
  13 H     1.0000    0     1.008    3.520321   -0.975141    2.284323
  14 H     1.0000    0     1.008    4.875256    0.823581   -3.045085
  15 H     1.0000    0     1.008    6.727725   -1.256922   -1.188130
  16 H     1.0000    0     1.008    3.694488   -2.198279   -2.226308

--------------------------------
INTERNAL COORDINATES (ANGSTROEM)
--------------------------------
 C      0   0   0     0.000000000000     0.00000000     0.00000000
 C      1   0   0     1.523447243132     0.00000000     0.00000000
 C      2   1   0     1.507578156015   112.08044448     0.00000000
 O      3   2   1     1.212318934650   125.35366443   338.68303443
 O      3   2   1     1.330183465714   111.06674677   160.00007454
 C      5   3   2     1.437764255299   118.40263354   179.17515926
 C      6   5   3     1.521040886046   111.20600876    85.41059176
 H      1   2   3     1.087015959248   110.01398827    54.25008951
 H      1   2   3     1.085442450993   110.19063290   174.62761331
 H      1   2   3     1.086922350733   110.48296122   295.04296730
 H      2   1   3     1.092631134705   110.11270970   241.45646348
 H      2   1   3     1.089784164513   111.78823480   121.80758612
 H      6   5   3     1.090299074300   104.51638095   205.71208504
 H      6   5   3     1.094252417060   108.60299581   323.53182946
 H      7   6   5     1.086590498094   110.14224911    55.98709313
 H      7   6   5     1.085056899388   109.36276738   176.16359041
 H      7   6   5     1.087726476722   110.00031890   295.76036117

---------------------------
INTERNAL COORDINATES (A.U.)
---------------------------
 C      0   0   0     0.000000000000     0.00000000     0.00000000
 C      1   0   0     2.878898068997     0.00000000     0.00000000
 C      2   1   0     2.848909840350   112.08044448     0.00000000
 O      3   2   1     2.290950773455   125.35366443   338.68303443
 O      3   2   1     2.513682458071   111.06674677   160.00007454
 C      5   3   2     2.716980687657   118.40263354   179.17515926
 C      6   5   3     2.874350713123   111.20600876    85.41059176
 H      1   2   3     2.054162466180   110.01398827    54.25008951
 H      1   2   3     2.051188966509   110.19063290   174.62761331
 H      1   2   3     2.053985571723   110.48296122   295.04296730
 H      2   1   3     2.064773609989   110.11270970   241.45646348
 H      2   1   3     2.059393616013   111.78823480   121.80758612
 H      6   5   3     2.060366654494   104.51638095   205.71208504
 H      6   5   3     2.067837389624   108.60299581   323.53182946
 H      7   6   5     2.053358461118   110.14224911    55.98709313
 H      7   6   5     2.050460379564   109.36276738   176.16359041
 H      7   6   5     2.055505149620   110.00031890   295.76036117

---------------------
BASIS SET INFORMATION
---------------------
There are 3 groups of distinct atoms

 Group   1 Type C   : 11s6p1d contracted to 5s3p1d pattern {62111/411/1}
 Group   2 Type O   : 11s6p2d contracted to 5s3p2d pattern {62111/411/11}
 Group   3 Type H   : 4s1p contracted to 2s1p pattern {31/1}

Atom   0C    basis set group =>   1
Atom   1C    basis set group =>   1
Atom   2C    basis set group =>   1
Atom   3O    basis set group =>   2
Atom   4O    basis set group =>   2
Atom   5C    basis set group =>   1
Atom   6C    basis set group =>   1
Atom   7H    basis set group =>   3
Atom   8H    basis set group =>   3
Atom   9H    basis set group =>   3
Atom  10H    basis set group =>   3
Atom  11H    basis set group =>   3
Atom  12H    basis set group =>   3
Atom  13H    basis set group =>   3
Atom  14H    basis set group =>   3
Atom  15H    basis set group =>   3
Atom  16H    basis set group =>   3
---------------------------------
AUXILIARY/J BASIS SET INFORMATION
---------------------------------
There are 3 groups of distinct atoms

 Group   1 Type C   : 12s5p4d2f1g contracted to 6s4p3d1f1g pattern {711111/2111/211/2/1}
 Group   2 Type O   : 12s5p4d2f1g contracted to 6s4p3d1f1g pattern {711111/2111/211/2/1}
 Group   3 Type H   : 5s2p1d contracted to 3s1p1d pattern {311/2/1}

Atom   0C    basis set group =>   1
Atom   1C    basis set group =>   1
Atom   2C    basis set group =>   1
Atom   3O    basis set group =>   2
Atom   4O    basis set group =>   2
Atom   5C    basis set group =>   1
Atom   6C    basis set group =>   1
Atom   7H    basis set group =>   3
Atom   8H    basis set group =>   3
Atom   9H    basis set group =>   3
Atom  10H    basis set group =>   3
Atom  11H    basis set group =>   3
Atom  12H    basis set group =>   3
Atom  13H    basis set group =>   3
Atom  14H    basis set group =>   3
Atom  15H    basis set group =>   3
Atom  16H    basis set group =>   3

Checking for AutoStart:
The File: sp_gas.gbw exists
Trying to determine its content:
     ... Fine, the file contains calculation information
     ... Fine, the calculation information was read
     ... Fine, the file contains a basis set
     ... Fine, the basis set was read
     ... Fine, the file contains a geometry
     ... Fine, the geometry was read
     ... Fine, the file contains a set of orbitals
     ... Fine, the orbitals can be read
     => possible old guess file was deleted
     => GBW file was renamed to GES file
     => GES file is set as startup file
     => Guess is set to MORead
     ... now leaving AutoStart

------------------------------------------------------------------------------
                             ORCA STARTUP CALCULATIONS
                           -- RI-GTO INTEGRALS CHOSEN --
------------------------------------------------------------------------------
------------------------------------------------------------------------------
                   ___                                                        
                  /   \      - P O W E R E D   B Y -                         
                 /     \                                                     
                 |  |  |   _    _      __       _____    __    __             
                 |  |  |  | |  | |    /  \     |  _  \  |  |  /  |          
                  \  \/   | |  | |   /    \    | | | |  |  | /  /          
                 / \  \   | |__| |  /  /\  \   | |_| |  |  |/  /          
                |  |  |   |  __  | /  /__\  \  |    /   |      \           
                |  |  |   | |  | | |   __   |  |    \   |  |\   \          
                \     /   | |  | | |  |  |  |  | |\  \  |  | \   \       
                 \___/    |_|  |_| |__|  |__|  |_| \__\ |__|  \__/        
                                                                              
                      - O R C A' S   B I G   F R I E N D -                    
                                      &                                       
                       - I N T E G R A L  F E E D E R -                       
                                                                              
 v1 FN, 2020, v2 2021, v3 2022-2024                                           
------------------------------------------------------------------------------


----------------------
SHARK INTEGRAL PACKAGE
----------------------

Number of atoms                             ...     17
Number of basis functions                   ...    193
Number of shells                            ...     95
Maximum angular momentum                    ...      2
Integral batch strategy                     ... SHARK/LIBINT Hybrid
RI-J (if used) integral strategy            ... SPLIT-RIJ (Revised 2003 algorithm where possible)
Printlevel                                  ...      1
Contraction scheme used                     ... SEGMENTED contraction
Prescreening option                         ... SCHWARTZ
   Thresh                                   ... 1.000e-10
   Tcut                                     ... 1.000e-11
   Tpresel                                  ... 1.000e-11 
Coulomb Range Separation                    ... NOT USED
Exchange Range Separation                   ... NOT USED
Multipole approximations                    ... NOT USED
Finite Nucleus Model                        ... NOT USED
CABS basis                                  ... NOT available
Auxiliary Coulomb fitting basis             ... AVAILABLE
   # of basis functions in Aux-J            ...    453
   # of shells in Aux-J                     ...    155
   Maximum angular momentum in Aux-J        ...      4
Auxiliary J/K fitting basis                 ... NOT available
Auxiliary Correlation fitting basis         ... NOT available
Auxiliary 'external' fitting basis          ... NOT available

Checking pre-screening integrals            ... done (  0.0 sec) Dimension = 95
Check shell pair data                       ... done (  0.0 sec)
Shell pair information
Shell pair cut-off parameter TPreSel        ...   1.0e-11
Total number of shell pairs                 ...      4560
Shell pairs after pre-screening             ...      4061
Total number of primitive shell pairs       ...     16115
Primitive shell pairs kept                  ...     10372
          la=0 lb=0:   1354 shell pairs
          la=1 lb=0:   1511 shell pairs
          la=1 lb=1:    442 shell pairs
          la=2 lb=0:    454 shell pairs
          la=2 lb=1:    257 shell pairs
          la=2 lb=2:     43 shell pairs

Calculating one electron integrals          ... done (  0.0 sec)
Calculating RI/J V-Matrix + Cholesky decomp.... done (  0.1 sec)
Calculating Nuclear repulsion               ... done (  0.0 sec) ENN=    317.371813780820 Eh

Diagonalization of the overlap matrix:
Smallest eigenvalue                        ... 1.947e-04
Time for diagonalization                   ...    0.004 sec
Threshold for overlap eigenvalues          ... 1.000e-07
Number of eigenvalues below threshold      ... 0
Time for construction of square roots      ...    0.016 sec
Total time needed                          ...    0.041 sec

-------------------
DFT GRID GENERATION
-------------------

General Integration Accuracy     IntAcc      ... 4.388
Radial Grid Type                 RadialGrid  ... OptM3 with GC (2021)
Angular Grid (max. ang.)         AngularGrid ... 4 (Lebedev-302)
Angular grid pruning method      GridPruning ... 4 (adaptive)
Weight generation scheme         WeightScheme... mBecke (2022)
Basis function cutoff            BFCut       ... 1.0000e-10
Integration weight cutoff        WCut        ... 1.0000e-14
Partially contracted basis set               ... off
Rotationally invariant grid construction     ... off
Angular grids for H and He will be reduced by one unit
Diffuse basis detected: some atoms will have their outermost
                        angular grid increased by 1.

Total number of grid points                  ...    75166
Total number of batches                      ...     1183
Average number of points per batch           ...       63
Average number of grid points per atom       ...     4422
Initializing property integral containers    ... done (  0.0 sec)

SHARK setup successfully completed in   1.1 seconds

Maximum memory used throughout the entire STARTUP-calculation: 33.5 MB
-------------------------------------------------------------------------------
                                 ORCA GUESS
                   Start orbitals & Density for SCF / CASSCF
-------------------------------------------------------------------------------

------------
SCF SETTINGS
------------
Hamiltonian:
 Density Functional     Method          .... DFT(GTOs)
  Functional kind                       .... Exchange
  Functional name                       .... Re-regularized SCAN exchange by Furness et al
  Functional family                     .... MGGA
  Functional refs                              
    [ 0] J. W. Furness, A. D. Kaplan, J. Ning, J. P. Perdew, and J. Sun.,  J. Phys. Chem. Lett. 11, 8208-8215 (2020), doi: 10.1021/acs.jpclett.0c02405
    [ 1] J. W. Furness, A. D. Kaplan, J. Ning, J. P. Perdew, and J. Sun.,  J. Phys. Chem. Lett. 11, 9248-9248 (2020), doi: 10.1021/acs.jpclett.0c03077
  Functional external parameters        .... 6
    Parameter  0 _c1        =  6.670000e-01 : c1 parameter        
    Parameter  1 _c2        =  8.000000e-01 : c2 parameter        
    Parameter  2 _d         =  1.240000e+00 : d parameter         
    Parameter  3 _k1        =  6.500000e-02 : k1 parameter        
    Parameter  4 _eta       =  1.000000e-03 : eta parameter       
    Parameter  5 _dp2       =  3.610000e-01 : dp2 parameter       
  Functional kind                       .... Correlation
  Functional name                       .... Re-regularized SCAN correlation by Furness et al
  Functional family                     .... MGGA
  Functional refs                              
    [ 0] J. W. Furness, A. D. Kaplan, J. Ning, J. P. Perdew, and J. Sun.,  J. Phys. Chem. Lett. 11, 8208-8215 (2020), doi: 10.1021/acs.jpclett.0c02405
    [ 1] J. W. Furness, A. D. Kaplan, J. Ning, J. P. Perdew, and J. Sun.,  J. Phys. Chem. Lett. 11, 9248-9248 (2020), doi: 10.1021/acs.jpclett.0c03077
  Functional external parameters        .... 1
    Parameter  0 _eta       =  1.000000e-03 : Regularization parameter
 Gradients option       PostSCFGGA      .... off
 RI-approximation to the Coulomb term is turned on
   Number of AuxJ basis functions       .... 453


General Settings:
 Integral files         IntName         .... sp_gas
 Hartree-Fock type      HFTyp           .... RHF
 Total Charge           Charge          ....    0
 Multiplicity           Mult            ....    1
 Number of Electrons    NEL             ....   56
 Basis Dimension        Dim             ....  193
 Nuclear Repulsion      ENuc            ....    317.3718137808 Eh

Convergence Acceleration:
 AO-DIIS                CNVDIIS         .... on
   Start iteration      DIISMaxIt       ....    12
   Startup error        DIISStart       ....  0.200000
   # of expansion vecs  DIISMaxEq       ....     5
   Bias factor          DIISBfac        ....   1.050
   Max. coefficient     DIISMaxC        ....  10.000
 MO-DIIS                CNVKDIIS        .... off
 Trust-Rad. Augm. Hess. CNVTRAH         .... auto
   Auto Start mean grad. ratio tolernc. ....  1.125000
   Auto Start start iteration           ....     1
   Auto Start num. interpolation iter.  ....    10
   Max. Number of Micro iterations      ....    24
   Max. Number of Macro iterations      .... Maxiter - #DIIS iter
   Number of Davidson start vectors     ....     2
   Converg. threshold    (grad. norm)   ....   3.330e-04
   Grad. Scal. Fac. for Micro threshold ....   0.100
   Minimum threshold for Micro iter.    ....   1.000e-02
   NR start threshold (gradient norm)   ....   1.000e-04
   Initial trust radius                 ....   0.400
   Minimum AH scaling param. (alpha)    ....   1.000
   Maximum AH scaling param. (alpha)    .... 1000.000
   Quad. conv. algorithm                .... NR
   White noise on init. David. guess    .... on
   Maximum white noise                  ....   0.010
   Pseudo random numbers                .... off
   Inactive MOs                         .... canonical
   Orbital update algorithm             .... Taylor
   Preconditioner                       .... Diag
   Full preconditioner red. dimension   ....   250
   COSX micro iterations for RIJONX calc.... off
 SOSCF                  CNVSOSCF        .... on
   Start iteration      SOSCFMaxIt      ....   150
   Startup grad/error   SOSCFStart      ....  0.003300
   Hessian update       SOSCFHessUp     .... L-BFGS
 Level Shifting         CNVShift        .... on
   Level shift para.    LevelShift      ....    0.2500
   Turn off err/grad.   ShiftErr        ....    0.0010
 Zerner damping         CNVZerner       .... off
 Static damping         CNVDamp         .... on
   Fraction old density DampFac         ....    0.7000
   Max. Damping (<1)    DampMax         ....    0.9800
   Min. Damping (>=0)   DampMin         ....    0.0000
   Turn off err/grad.   DampErr         ....    0.1000

SCF Procedure:
 Maximum # iterations   MaxIter         ....   125
 SCF integral mode      SCFMode         .... Direct
   Integral package                     .... SHARK and LIBINT hybrid scheme
 Reset frequency        DirectResetFreq ....    20
 Integral Threshold     Thresh          ....  1.000e-10 Eh
 Primitive CutOff       TCut            ....  1.000e-11 Eh

Convergence Tolerance:
 Convergence Check Mode ConvCheckMode   .... Total+1el-Energy
 Convergence forced     ConvForced      .... 0
 Energy Change          TolE            ....  1.000e-06 Eh
 1-El. energy change                    ....  1.000e-03 Eh
 Orbital Gradient       TolG            ....  3.330e-04
 Orbital Rotation angle TolX            ....  3.330e-04
 DIIS Error             TolErr          ....  1.000e-06

---------------------
INITIAL GUESS: MOREAD
---------------------
Guess MOs are being read from file: sp_gas.ges
Input Geometry matches current geometry (good)
Atom 0: N(Shells)= 9 and 6 - projection required
Input basis set needs projection
NBasis(read)= 118
NBasis(calc)= 193
Basis set overlap was calculated
Using GuessMode=FMatrix for the initial guess
C*T matrix was formed
Effective Fockian was calculated
Effective Fockian was diagonalized
Initial density was built
                      ------------------
                      INITIAL GUESS DONE (   0.0 sec)
                      ------------------
             **** ENERGY FILE WAS UPDATED (sp_gas.en.tmp) ****
Finished Guess after   0.3 sec
Maximum memory used throughout the entire GUESS-calculation: 12.9 MB

-------------------------------------------------------------------------------------------
                                      ORCA LEAN-SCF
                              memory conserving SCF solver
-------------------------------------------------------------------------------------------

----------------------------------------D-I-I-S--------------------------------------------
Iteration    Energy (Eh)           Delta-E    RMSDP     MaxDP     DIISErr   Damp  Time(sec)
-------------------------------------------------------------------------------------------
               ***  Starting incremental Fock matrix formation  ***
    1    -346.7697035539097783     0.00e+00  3.67e-03  1.27e-01  6.26e-01  0.700   2.7
    2    -346.8215463285910687    -5.18e-02  3.00e-03  9.45e-02  4.40e-01  0.700   2.1
    3    -346.8581753650135511    -3.66e-02  2.20e-03  6.70e-02  3.09e-01  0.700   2.0
    4    -346.8838882146376932    -2.57e-02  1.58e-03  4.73e-02  2.16e-01  0.700   2.0
                               ***Turning on AO-DIIS***
    5    -346.9019224404630108    -1.80e-02  1.14e-03  3.40e-02  1.51e-01  0.700   2.0
    6    -346.9145626241342484    -1.26e-02  8.09e-04  2.40e-02  1.06e-01  0.700   2.0
    7    -346.9234232292458842    -8.86e-03  5.70e-04  1.69e-02  7.41e-02  0.700   1.9
    8    -346.9296308538820881    -6.21e-03  1.34e-03  3.93e-02  5.19e-02  0.000   1.9
                              *** Initializing SOSCF ***
---------------------------------------S-O-S-C-F--------------------------------------
Iteration    Energy (Eh)           Delta-E    RMSDP     MaxDP     MaxGrad    Time(sec)
--------------------------------------------------------------------------------------
    9    -346.9441333346803162    -1.45e-02  8.46e-06  3.22e-04  9.95e-05     1.8
               *** Restarting incremental Fock matrix formation ***
   10    -346.9441333904433691    -5.58e-08  5.02e-06  1.45e-04  3.68e-05     2.0
                  *** Gradient check signals convergence ***

               *****************************************************
               *                     SUCCESS                       *
               *           SCF CONVERGED AFTER  10 CYCLES          *
               *****************************************************

             **** ENERGY FILE WAS UPDATED (sp_gas.en.tmp) ****

----------------
TOTAL SCF ENERGY
----------------

Total Energy       :       -346.94413339044337 Eh           -9440.82983 eV

Components:
Nuclear Repulsion  :        317.37181378082010 Eh            8636.12611 eV
Electronic Energy  :       -664.31594717126347 Eh          -18076.95594 eV
One Electron Energy:      -1100.10430860199131 Eh          -29935.36012 eV
Two Electron Energy:        435.78836143072783 Eh           11858.40418 eV

Virial components:
Potential Energy   :       -692.46853362824777 Eh          -18843.02676 eV
Kinetic Energy     :        345.52440023780446 Eh            9402.19693 eV
Virial Ratio       :          2.00410892299259

DFT components:
N(Alpha)           :       28.000027699993 electrons
N(Beta)            :       28.000027699993 electrons
N(Total)           :       56.000055399985 electrons
E(X)               :      -46.155629926585 Eh       
E(C)               :       -1.788022697288 Eh       
E(XC)              :      -47.943652623873 Eh       

---------------
SCF CONVERGENCE
---------------

  Last Energy change         ...    5.5763e-08  Tolerance :   1.0000e-06
  Last MAX-Density change    ...    1.4491e-04  Tolerance :   1.0000e-05
  Last RMS-Density change    ...    5.0237e-06  Tolerance :   1.0000e-06
  Last DIIS Error            ...    9.9454e-05  Tolerance :   1.0000e-06
  Last Orbital Gradient      ...    3.6793e-05  Tolerance :   3.3300e-04
  Last Orbital Rotation      ...    1.4272e-04  Tolerance :   3.3300e-04


----------------
ORBITAL ENERGIES
----------------

  NO   OCC          E(Eh)            E(eV) 
   0   2.0000     -18.995136      -516.8839 
   1   2.0000     -18.929245      -515.0909 
   2   2.0000     -10.152072      -276.2519 
   3   2.0000     -10.090657      -274.5807 
   4   2.0000     -10.044254      -273.3180 
   5   2.0000     -10.028134      -272.8794 
   6   2.0000     -10.022113      -272.7156 
   7   2.0000      -1.070169       -29.1208 
   8   2.0000      -0.976268       -26.5656 
   9   2.0000      -0.762511       -20.7490 
  10   2.0000      -0.729724       -19.8568 
  11   2.0000      -0.644582       -17.5400 
  12   2.0000      -0.592578       -16.1249 
  13   2.0000      -0.518515       -14.1095 
  14   2.0000      -0.473071       -12.8729 
  15   2.0000      -0.452688       -12.3183 
  16   2.0000      -0.445987       -12.1359 
  17   2.0000      -0.412095       -11.2137 
  18   2.0000      -0.406548       -11.0627 
  19   2.0000      -0.374475       -10.1900 
  20   2.0000      -0.363583        -9.8936 
  21   2.0000      -0.352187        -9.5835 
  22   2.0000      -0.337948        -9.1960 
  23   2.0000      -0.329694        -8.9714 
  24   2.0000      -0.318213        -8.6590 
  25   2.0000      -0.305142        -8.3033 
  26   2.0000      -0.271254        -7.3812 
  27   2.0000      -0.237276        -6.4566 
  28   0.0000      -0.013375        -0.3639 
  29   0.0000       0.077508         2.1091 
  30   0.0000       0.089807         2.4438 
  31   0.0000       0.114048         3.1034 
  32   0.0000       0.124609         3.3908 
  33   0.0000       0.136818         3.7230 
  34   0.0000       0.143750         3.9116 
  35   0.0000       0.153234         4.1697 
  36   0.0000       0.165317         4.4985 
  37   0.0000       0.173322         4.7163 
  38   0.0000       0.178953         4.8696 
*Only the first 10 virtual orbitals were printed.

                    ********************************
                    * MULLIKEN POPULATION ANALYSIS *
                    ********************************

-----------------------
MULLIKEN ATOMIC CHARGES
-----------------------
   0 C :   -0.459702
   1 C :   -0.272609
   2 C :    0.381299
   3 O :   -0.434343
   4 O :   -0.176684
   5 C :   -0.136257
   6 C :   -0.469330
   7 H :    0.165473
   8 H :    0.145732
   9 H :    0.147160
  10 H :    0.163259
  11 H :    0.161584
  12 H :    0.147778
  13 H :    0.165978
  14 H :    0.151193
  15 H :    0.146597
  16 H :    0.172872
Sum of atomic charges:   -0.0000000

--------------------------------
MULLIKEN REDUCED ORBITAL CHARGES
--------------------------------
  0 C s       :     3.316923  s :     3.316923
      pz      :     1.087570  p :     3.116378
      px      :     1.003244
      py      :     1.025564
      dz2     :     0.005058  d :     0.026401
      dxz     :     0.002522
      dyz     :     0.007272
      dx2y2   :     0.004244
      dxy     :     0.007304

  1 C s       :     3.173995  s :     3.173995
      pz      :     1.089283  p :     3.063025
      px      :     0.959622
      py      :     1.014119
      dz2     :     0.005815  d :     0.035589
      dxz     :     0.004650
      dyz     :     0.008409
      dx2y2   :     0.006889
      dxy     :     0.009826

  2 C s       :     3.129964  s :     3.129964
      pz      :     0.757212  p :     2.363965
      px      :     0.841099
      py      :     0.765655
      dz2     :     0.007387  d :     0.124772
      dxz     :     0.011710
      dyz     :     0.024477
      dx2y2   :     0.028808
      dxy     :     0.052389

  3 O s       :     3.844017  s :     3.844017
      pz      :     1.449725  p :     4.570878
      px      :     1.807346
      py      :     1.313806
      dz2     :     0.003846  d :     0.019448
      dxz     :     0.001173
      dyz     :     0.009360
      dx2y2   :     0.005322
      dxy     :    -0.000252

  4 O s       :     3.704346  s :     3.704346
      pz      :     1.737006  p :     4.446057
      px      :     1.092372
      py      :     1.616679
      dz2     :     0.002590  d :     0.026280
      dxz     :     0.007094
      dyz     :     0.008567
      dx2y2   :     0.000852
      dxy     :     0.007178

  5 C s       :     3.251305  s :     3.251305
      pz      :     1.006931  p :     2.831355
      px      :     0.769907
      py      :     1.054517
      dz2     :     0.008560  d :     0.053597
      dxz     :     0.011167
      dyz     :     0.010797
      dx2y2   :     0.010275
      dxy     :     0.012798

  6 C s       :     3.324549  s :     3.324549
      pz      :     0.972631  p :     3.119140
      px      :     1.069264
      py      :     1.077245
      dz2     :     0.005095  d :     0.025642
      dxz     :     0.003964
      dyz     :     0.008268
      dx2y2   :     0.003901
      dxy     :     0.004413

  7 H s       :     0.816156  s :     0.816156
      pz      :     0.006875  p :     0.018371
      px      :     0.003584
      py      :     0.007912

  8 H s       :     0.835898  s :     0.835898
      pz      :     0.003802  p :     0.018370
      px      :     0.009191
      py      :     0.005377

  9 H s       :     0.834523  s :     0.834523
      pz      :     0.009374  p :     0.018317
      px      :     0.003838
      py      :     0.005105

 10 H s       :     0.818512  s :     0.818512
      pz      :     0.008910  p :     0.018229
      px      :     0.004022
      py      :     0.005297

 11 H s       :     0.820390  s :     0.820390
      pz      :     0.006988  p :     0.018026
      px      :     0.003544
      py      :     0.007494

 12 H s       :     0.834844  s :     0.834844
      pz      :     0.004559  p :     0.017378
      px      :     0.004919
      py      :     0.007900

 13 H s       :     0.816193  s :     0.816193
      pz      :     0.007394  p :     0.017829
      px      :     0.002505
      py      :     0.007930

 14 H s       :     0.830594  s :     0.830594
      pz      :     0.007542  p :     0.018213
      px      :     0.003598
      py      :     0.007073

 15 H s       :     0.834913  s :     0.834913
      pz      :     0.003778  p :     0.018490
      px      :     0.010149
      py      :     0.004562

 16 H s       :     0.808916  s :     0.808916
      pz      :     0.004227  p :     0.018212
      px      :     0.005833
      py      :     0.008152


------------------------
MULLIKEN OVERLAP CHARGES
------------------------
B(  0-C ,  1-C ) :   0.4558 B(  0-C ,  2-C ) :  -0.1448 B(  0-C ,  3-O ) :   0.0709 
B(  0-C ,  7-H ) :   0.8256 B(  0-C ,  8-H ) :   0.8238 B(  0-C ,  9-H ) :   0.8341 
B(  0-C , 10-H ) :  -0.0531 B(  0-C , 11-H ) :  -0.0637 B(  1-C ,  2-C ) :   0.4836 
B(  1-C ,  3-O ) :  -0.2297 B(  1-C ,  4-O ) :  -0.1430 B(  1-C ,  8-H ) :  -0.1050 
B(  1-C ,  9-H ) :  -0.0683 B(  1-C , 10-H ) :   0.7578 B(  1-C , 11-H ) :   0.8456 
B(  2-C ,  3-O ) :   0.9994 B(  2-C ,  4-O ) :   0.4602 B(  2-C ,  5-C ) :  -0.2005 
B(  2-C , 11-H ) :  -0.0928 B(  3-O ,  4-O ) :  -0.2264 B(  4-O ,  5-C ) :   0.3190 
B(  4-O ,  6-C ) :  -0.1145 B(  4-O , 12-H ) :  -0.0950 B(  4-O , 13-H ) :  -0.0668 
B(  5-C ,  6-C ) :   0.5452 B(  5-C , 12-H ) :   0.7975 B(  5-C , 13-H ) :   0.8641 
B(  5-C , 14-H ) :  -0.0695 B(  5-C , 15-H ) :  -0.0660 B(  5-C , 16-H ) :  -0.0883 
B(  6-C , 12-H ) :  -0.0529 B(  6-C , 13-H ) :  -0.0817 B(  6-C , 14-H ) :   0.8286 
B(  6-C , 15-H ) :   0.7980 B(  6-C , 16-H ) :   0.8459 


                     *******************************
                     * LOEWDIN POPULATION ANALYSIS *
                     *******************************

----------------------
LOEWDIN ATOMIC CHARGES
----------------------
   0 C :   -0.401929
   1 C :   -0.239520
   2 C :    0.362665
   3 O :   -0.436814
   4 O :   -0.597801
   5 C :    0.026558
   6 C :   -0.390841
   7 H :    0.166205
   8 H :    0.150459
   9 H :    0.156896
  10 H :    0.180759
  11 H :    0.177284
  12 H :    0.177522
  13 H :    0.187188
  14 H :    0.156845
  15 H :    0.158996
  16 H :    0.165529

-------------------------------
LOEWDIN REDUCED ORBITAL CHARGES
-------------------------------
  0 C s       :     2.968229  s :     2.968229
      pz      :     1.155861  p :     3.371347
      px      :     1.092163
      py      :     1.123323
      dz2     :     0.012338  d :     0.062353
      dxz     :     0.005276
      dyz     :     0.017566
      dx2y2   :     0.009264
      dxy     :     0.017909

  1 C s       :     2.922520  s :     2.922520
      pz      :     1.128241  p :     3.242151
      px      :     1.025809
      py      :     1.088100
      dz2     :     0.012003  d :     0.074850
      dxz     :     0.009013
      dyz     :     0.019581
      dx2y2   :     0.013153
      dxy     :     0.021100

  2 C s       :     2.735491  s :     2.735491
      pz      :     0.722390  p :     2.630172
      px      :     0.928981
      py      :     0.978801
      dz2     :     0.019189  d :     0.271673
      dxz     :     0.021337
      dyz     :     0.046593
      dx2y2   :     0.066470
      dxy     :     0.118083

  3 O s       :     3.547144  s :     3.547144
      pz      :     1.440557  p :     4.667120
      px      :     1.746847
      py      :     1.479717
      dz2     :     0.027485  d :     0.222550
      dxz     :     0.013325
      dyz     :     0.046029
      dx2y2   :     0.066075
      dxy     :     0.069636

  4 O s       :     3.465319  s :     3.465319
      pz      :     1.705407  p :     4.661460
      px      :     1.319617
      py      :     1.636436
      dz2     :     0.054059  d :     0.471022
      dxz     :     0.099571
      dyz     :     0.047630
      dx2y2   :     0.137351
      dxy     :     0.132412

  5 C s       :     2.870588  s :     2.870588
      pz      :     1.061222  p :     2.982591
      px      :     0.855196
      py      :     1.066173
      dz2     :     0.017131  d :     0.120263
      dxz     :     0.024182
      dyz     :     0.025681
      dx2y2   :     0.022324
      dxy     :     0.030946

  6 C s       :     2.974218  s :     2.974218
      pz      :     1.089608  p :     3.356195
      px      :     1.124792
      py      :     1.141796
      dz2     :     0.012076  d :     0.060428
      dxz     :     0.008475
      dyz     :     0.019628
      dx2y2   :     0.009475
      dxy     :     0.010773

  7 H s       :     0.789651  s :     0.789651
      pz      :     0.017023  p :     0.044144
      px      :     0.007757
      py      :     0.019364

  8 H s       :     0.805883  s :     0.805883
      pz      :     0.008446  p :     0.043658
      px      :     0.022145
      py      :     0.013066

  9 H s       :     0.799832  s :     0.799832
      pz      :     0.023056  p :     0.043272
      px      :     0.008575
      py      :     0.011641

 10 H s       :     0.775029  s :     0.775029
      pz      :     0.022324  p :     0.044212
      px      :     0.009382
      py      :     0.012506

 11 H s       :     0.778676  s :     0.778676
      pz      :     0.017159  p :     0.044040
      px      :     0.008379
      py      :     0.018501

 12 H s       :     0.782657  s :     0.782657
      pz      :     0.010166  p :     0.039822
      px      :     0.009819
      py      :     0.019837

 13 H s       :     0.769936  s :     0.769936
      pz      :     0.017763  p :     0.042875
      px      :     0.006325
      py      :     0.018788

 14 H s       :     0.799668  s :     0.799668
      pz      :     0.018158  p :     0.043486
      px      :     0.007827
      py      :     0.017501

 15 H s       :     0.796981  s :     0.796981
      pz      :     0.008620  p :     0.044023
      px      :     0.025012
      py      :     0.010391

 16 H s       :     0.790325  s :     0.790325
      pz      :     0.009780  p :     0.044146
      px      :     0.014181
      py      :     0.020184


---------------------------------
LOEWDIN BOND ORDERS (THRESH 0.050000)
---------------------------------
B(  0-C ,  1-C ) :   1.1285 B(  0-C ,  2-C ) :   0.0705 B(  0-C ,  7-H ) :   0.9185 
B(  0-C ,  8-H ) :   0.9280 B(  0-C ,  9-H ) :   0.9270 B(  1-C ,  2-C ) :   0.9252 
B(  1-C ,  3-O ) :   0.1786 B(  1-C ,  4-O ) :   0.1877 B(  1-C , 10-H ) :   0.8641 
B(  1-C , 11-H ) :   0.8682 B(  2-C ,  3-O ) :   2.1703 B(  2-C ,  4-O ) :   1.4492 
B(  2-C ,  5-C ) :   0.0828 B(  3-O ,  4-O ) :   0.4581 B(  3-O ,  5-C ) :   0.0643 
B(  4-O ,  5-C ) :   1.3070 B(  4-O ,  6-C ) :   0.1561 B(  4-O , 12-H ) :   0.0966 
B(  4-O , 13-H ) :   0.0913 B(  5-C ,  6-C ) :   1.0838 B(  5-C , 12-H ) :   0.8340 
B(  5-C , 13-H ) :   0.8196 B(  6-C , 14-H ) :   0.9252 B(  6-C , 15-H ) :   0.9189 
B(  6-C , 16-H ) :   0.9193 

------------------------------------------
LOEWDIN REDUCED ORBITAL POPULATIONS PER MO
-------------------------------------------
THRESHOLD FOR PRINTING IS 0.1%%
                      0         1         2         3         4         5   
                 -18.99514 -18.92924 -10.15207 -10.09066 -10.04425 -10.02813
                   2.00000   2.00000   2.00000   2.00000   2.00000   2.00000
                  --------  --------  --------  --------  --------  --------
 1 C  s               0.0       0.0       0.0       0.0      99.7       0.0
 2 C  s               0.0       0.0      98.9       0.0       0.0       0.0
 3 O  s               0.0      99.9       0.0       0.0       0.0       0.0
 3 O  py              0.0       0.0       0.2       0.0       0.0       0.0
 3 O  dx2y2           0.0       0.0       0.2       0.0       0.0       0.0
 4 O  s              99.9       0.0       0.0       0.0       0.0       0.0
 4 O  dxy             0.0       0.0       0.2       0.1       0.0       0.0
 5 C  s               0.0       0.0       0.0      99.4       0.0       0.0
 6 C  s               0.0       0.0       0.0       0.0       0.0      99.7

                      6         7         8         9        10        11   
                 -10.02211  -1.07017  -0.97627  -0.76251  -0.72972  -0.64458
                   2.00000   2.00000   2.00000   2.00000   2.00000   2.00000
                  --------  --------  --------  --------  --------  --------
 0 C  s              99.7       0.1       0.1      10.2      11.7      12.8
 0 C  pz              0.0       0.0       0.0       0.2       0.1       0.1
 0 C  px              0.0       0.2       0.2       1.3       0.6       0.5
 0 C  py              0.0       0.0       0.0       0.8       0.4       0.1
 1 C  s               0.0       1.0       0.2      20.9      10.3       0.6
 1 C  pz              0.0       0.1       0.0       0.0       0.1       0.5
 1 C  px              0.0       1.6       0.0       0.1       1.7       6.9
 1 C  py              0.0       0.3       0.5       0.3       0.5       0.9
 1 C  dxy             0.0       0.0       0.0       0.0       0.0       0.2
 2 C  s               0.0      16.4       3.9       3.9       0.3       3.7
 2 C  pz              0.0       0.1       0.6       0.4       0.1       0.2
 2 C  px              0.0       4.8       2.0       4.7       3.5       0.2
 2 C  py              0.0       0.0      20.7       6.3       0.1       3.5
 2 C  dz2             0.0       0.6       0.1       0.0       0.0       0.0
 2 C  dyz             0.0       0.1       0.2       0.0       0.0       0.0
 2 C  dx2y2           0.0       0.1       1.3       0.1       0.0       0.0
 2 C  dxy             0.0       0.4       0.4       0.0       0.2       0.0
 3 O  s               0.0      12.5      41.8       1.9       0.0       0.8
 3 O  pz              0.0       0.1       0.2       0.0       0.0       0.0
 3 O  px              0.0       0.0       0.1       0.2       0.1       0.0
 3 O  py              0.0       3.1       3.4       0.5       0.0       0.6
 3 O  dz2             0.0       0.4       0.0       0.1       0.0       0.0
 3 O  dyz             0.0       0.1       0.0       0.1       0.0       0.0
 3 O  dx2y2           0.0       0.7       0.1       0.3       0.1       0.4
 3 O  dxy             0.0       0.2       0.2       0.4       0.1       0.0
 4 O  s               0.0      41.3      16.7       0.0       1.5       0.8
 4 O  pz              0.0       0.1       0.0       0.1       0.0       0.6
 4 O  px              0.0       0.3       0.7      10.3       4.6      14.0
 4 O  py              0.0       2.5       0.4       0.1       0.1       0.3
 4 O  dz2             0.0       0.5       0.1       0.0       0.3       0.0
 4 O  dxz             0.0       0.0       0.0       0.0       0.0       0.2
 4 O  dx2y2           0.0       0.0       0.4       0.1       0.9       0.1
 4 O  dxy             0.0       0.3       0.9       0.6       0.7       0.2
 5 C  s               0.0       4.4       1.9       9.6      13.2       1.3
 5 C  pz              0.0       0.1       0.1       0.4       1.3       2.7
 5 C  px              0.0       5.0       1.2       0.2       1.8       3.1
 5 C  py              0.0       0.3       0.6       0.0       0.4       2.8
 5 C  dz2             0.0       0.1       0.0       0.0       0.0       0.1
 5 C  dx2y2           0.0       0.2       0.1       0.0       0.0       0.0
 5 C  dxy             0.0       0.1       0.1       0.0       0.0       0.0
 6 C  s               0.0       0.3       0.2       6.4      18.4      15.1
 6 C  pz              0.0       0.3       0.1       0.7       1.0       0.6
 6 C  px              0.0       0.4       0.1       0.1       0.1       0.3
 6 C  py              0.0       0.1       0.1       0.2       0.2       0.3
 7 H  s               0.0       0.0       0.0       1.3       1.8       3.1
 7 H  pz              0.0       0.0       0.0       0.1       0.1       0.1
 7 H  py              0.0       0.0       0.0       0.1       0.1       0.1
 8 H  s               0.0       0.0       0.0       1.4       1.9       3.5
 8 H  px              0.0       0.0       0.0       0.1       0.1       0.2
 9 H  s               0.0       0.0       0.0       1.4       1.8       3.1
 9 H  pz              0.0       0.0       0.0       0.1       0.1       0.2
10 H  s               0.0       0.0       0.0       3.2       1.8       0.2
10 H  pz              0.0       0.0       0.0       0.2       0.1       0.0
11 H  s               0.0       0.1       0.0       3.4       1.5       0.3
11 H  pz              0.0       0.0       0.0       0.1       0.1       0.0
11 H  py              0.0       0.0       0.0       0.2       0.1       0.0
12 H  s               0.0       0.3       0.2       1.7       2.5       0.7
12 H  py              0.0       0.0       0.0       0.1       0.1       0.0
13 H  s               0.0       0.3       0.1       1.4       2.1       0.3
13 H  pz              0.0       0.0       0.0       0.1       0.1       0.0
14 H  s               0.0       0.0       0.0       0.9       3.1       3.7
14 H  pz              0.0       0.0       0.0       0.0       0.2       0.1
14 H  py              0.0       0.0       0.0       0.0       0.1       0.2
15 H  s               0.0       0.0       0.0       0.9       3.3       4.4
15 H  px              0.0       0.0       0.0       0.1       0.2       0.3
16 H  s               0.0       0.0       0.0       0.9       3.0       3.9
16 H  px              0.0       0.0       0.0       0.0       0.1       0.1
16 H  py              0.0       0.0       0.0       0.0       0.2       0.2

                     12        13        14        15        16        17   
                  -0.59258  -0.51851  -0.47307  -0.45269  -0.44599  -0.41210
                   2.00000   2.00000   2.00000   2.00000   2.00000   2.00000
                  --------  --------  --------  --------  --------  --------
 0 C  s              12.1       0.7       0.1       0.1       0.1       0.0
 0 C  pz              0.5       0.2       0.0       3.1       4.4       0.0
 0 C  px              2.8       0.6       0.6       2.5       0.3       3.3
 0 C  py              1.6       1.0       6.8       0.1       0.3       5.1
 1 C  s               7.7       1.7       2.1       0.1       0.1       0.0
 1 C  pz              0.9       0.0       0.0      12.9       9.6       0.0
 1 C  px              2.4       0.7       7.4       0.7       0.5       2.9
 1 C  py              2.0       1.4      13.9       0.4       4.3       3.2
 1 C  dz2             0.0       0.0       0.1       0.0       0.0       0.0
 1 C  dxy             0.1       0.0       0.1       0.0       0.0       0.0
 2 C  s               0.3       2.9       2.3       0.3       1.2       0.9
 2 C  pz              0.1       0.2       0.8      14.4       2.9       0.2
 2 C  px              6.1       1.7       9.2       0.1       1.2       4.2
 2 C  py              0.4       1.2       0.1       1.3       1.6       3.0
 2 C  dx2y2           0.0       0.0       0.0       0.1       0.3       0.0
 2 C  dxy             0.3       0.0       0.0       0.1       0.1       0.0
 3 O  s               0.0       2.3       1.2       1.4       8.2       3.5
 3 O  pz              0.0       0.0       0.8       7.6       0.0       0.5
 3 O  px              0.4       0.7       7.5       0.2       0.5       1.2
 3 O  py              0.0       2.7       2.1       1.3      17.2      16.5
 3 O  dz2             0.0       0.1       0.0       0.0       0.3       0.1
 3 O  dyz             0.0       0.0       0.1       1.0       0.0       0.0
 3 O  dx2y2           0.0       0.1       0.1       0.0       0.1       0.4
 3 O  dxy             0.2       0.1       1.0       0.0       0.1       0.2
 4 O  s               0.7       4.4       0.5       0.8       0.6       0.6
 4 O  pz              0.6       1.6       0.7      13.2       2.6       0.4
 4 O  px              4.8      12.5       0.1       2.2       6.0       0.2
 4 O  py              0.5       7.6       6.8       7.0       6.7       2.3
 4 O  dz2             0.3       0.2       0.0       0.1       0.0       0.0
 4 O  dxz             0.4       0.4       0.0       0.2       0.5       0.1
 4 O  dyz             0.1       0.2       0.1       0.3       0.0       0.0
 4 O  dx2y2           1.3       0.1       1.2       0.1       0.2       0.1
 4 O  dxy             0.1       0.1       0.9       0.1       0.0       0.8
 5 C  s               6.1       5.4       0.1       0.3       0.3       0.0
 5 C  pz              3.4       8.5       0.3       3.8       0.2       1.6
 5 C  px              0.0       5.1       2.4       1.4       8.9       3.2
 5 C  py              1.0       6.5       8.4       2.1       1.7       8.0
 5 C  dxy             0.0       0.4       0.0       0.0       0.1       0.1
 6 C  s               5.5       1.1       0.0       0.4       0.1       0.0
 6 C  pz              2.4       6.6       0.0       0.6       1.3       0.2
 6 C  px              0.3       0.0       0.6       6.8       1.8       1.2
 6 C  py              0.6       0.1       2.8       0.1       1.3      15.1
 7 H  s               3.9       0.5       1.1       1.1       0.6       0.8
 7 H  pz              0.2       0.0       0.0       0.0       0.0       0.0
 7 H  py              0.1       0.0       0.0       0.0       0.0       0.0
 8 H  s               4.5       0.3       0.6       0.6       0.4       2.8
 8 H  px              0.2       0.0       0.0       0.0       0.0       0.1
 8 H  py              0.1       0.0       0.0       0.0       0.0       0.0
 9 H  s               4.3       0.6       0.8       0.6       0.9       0.6
 9 H  pz              0.2       0.0       0.1       0.0       0.0       0.0
10 H  s               3.5       1.2       4.6       3.4       1.3       0.7
10 H  pz              0.2       0.1       0.3       0.0       0.0       0.0
10 H  py              0.0       0.0       0.0       0.1       0.1       0.0
11 H  s               2.7       1.2       4.2       1.9       4.8       0.2
11 H  pz              0.1       0.0       0.1       0.0       0.0       0.0
11 H  px              0.0       0.0       0.1       0.0       0.0       0.0
11 H  py              0.1       0.0       0.0       0.1       0.1       0.0
12 H  s               3.6       2.3       3.1       1.4       3.9       3.4
12 H  py              0.2       0.2       0.1       0.0       0.1       0.0
13 H  s               2.2       9.9       1.7       0.0       0.0       3.4
13 H  pz              0.1       0.3       0.1       0.0       0.0       0.1
13 H  py              0.1       0.3       0.0       0.0       0.0       0.0
14 H  s               2.1       2.4       0.4       0.4       0.0       3.1
14 H  pz              0.1       0.0       0.0       0.0       0.0       0.1
14 H  py              0.1       0.1       0.0       0.0       0.0       0.0
15 H  s               2.0       0.1       0.0       2.8       0.2       0.1
15 H  px              0.1       0.0       0.0       0.1       0.0       0.0
16 H  s               2.3       0.7       0.9       0.0       1.4       4.7

                     18        19        20        21        22        23   
                  -0.40655  -0.37448  -0.36358  -0.35219  -0.33795  -0.32969
                   2.00000   2.00000   2.00000   2.00000   2.00000   2.00000
                  --------  --------  --------  --------  --------  --------
 0 C  s               0.0       0.0       0.1       0.0       0.3       0.1
 0 C  pz             11.9       4.9       3.8       8.6       0.0       0.6
 0 C  px              2.0       0.0      21.3       0.8       2.5      13.5
 0 C  py              0.8       2.1       1.2       1.5      31.5       1.5
 0 C  dz2             0.0       0.0       0.0       0.1       0.2       0.1
 0 C  dx2y2           0.0       0.0       0.0       0.0       0.2       0.1
 0 C  dxy             0.0       0.0       0.4       0.0       0.0       0.2
 1 C  s               0.0       0.0       0.7       0.0       0.2       0.0
 1 C  pz             12.2       0.0       0.4       0.2       1.3       0.3
 1 C  px              0.2       3.1       4.3       0.3       5.4       6.7
 1 C  py              0.1       0.4       4.1       0.4      16.7       0.1
 1 C  dz2             0.0       0.0       0.0       0.1       0.1       0.0
 1 C  dxz             0.0       0.0       0.0       0.0       0.2       0.0
 1 C  dyz             0.0       0.0       0.0       0.0       0.0       0.1
 1 C  dx2y2           0.0       0.0       0.0       0.0       0.2       0.1
 1 C  dxy             0.0       0.0       0.2       0.0       0.0       0.2
 2 C  s               0.1       0.1       0.4       0.0       0.0       0.4
 2 C  pz              1.1       3.2       0.5       6.2       1.1       1.3
 2 C  px              0.0       0.1       2.5       0.3       0.6       3.9
 2 C  py              1.3       2.2       1.1       0.1       0.7       0.8
 2 C  dxz             0.3       0.0       0.0       0.0       0.0       0.0
 2 C  dyz             0.0       0.0       0.0       0.1       0.0       0.0
 2 C  dx2y2           0.0       0.0       0.4       0.0       0.1       0.1
 2 C  dxy             0.0       0.0       0.0       0.0       0.3       0.0
 3 O  s               1.6       0.5       0.5       0.0       0.2       0.3
 3 O  pz              0.1       6.0       0.1      10.9       4.2       0.1
 3 O  px              0.0       0.2       1.7       0.3       1.1       2.0
 3 O  py              6.7       1.6       4.8       0.3       0.6       2.6
 3 O  dxz             0.1       0.0       0.1       0.0       0.0       0.1
 3 O  dyz             0.1       0.2       0.0       0.2       0.0       0.1
 3 O  dxy             0.0       0.0       0.1       0.0       0.1       0.0
 4 O  s               0.0       1.5       0.3       0.0       0.3       0.1
 4 O  pz             14.4       3.5       0.4       0.0       0.2       0.0
 4 O  px              1.1       0.3       0.1       0.7       1.4       2.7
 4 O  py              0.2       1.3       9.5       0.4       0.8       2.1
 4 O  dxz             0.4       0.3       0.1       1.6       0.3       0.2
 4 O  dyz             0.2       0.1       0.0       0.1       0.0       0.1
 4 O  dx2y2           0.1       0.5       0.1       0.0       0.0       0.1
 4 O  dxy             0.2       0.1       0.0       0.2       0.0       0.2
 5 C  s               0.4       0.1       0.0       0.3       0.0       0.0
 5 C  pz              7.5       0.0       0.6      13.6       0.6       0.7
 5 C  px              1.8       0.7       0.3       0.0       0.5       5.6
 5 C  py              0.8       0.2       0.1       2.6       0.6       3.9
 5 C  dz2             0.1       0.1       0.0       0.0       0.0       0.0
 5 C  dxz             0.0       0.0       0.0       0.1       0.0       0.0
 5 C  dyz             0.0       0.0       0.0       0.0       0.0       0.3
 5 C  dx2y2           0.0       0.0       0.1       0.1       0.0       0.1
 5 C  dxy             0.0       0.1       0.0       0.2       0.0       0.1
 6 C  s               0.3       0.0       0.0       0.3       0.0       0.0
 6 C  pz              4.1      10.7       1.3      17.3       0.4       0.8
 6 C  px              6.5      15.6       7.6       2.9       2.0       7.6
 6 C  py              3.4       9.9       6.7       2.6       0.4       5.6
 6 C  dyz             0.1       0.1       0.1       0.0       0.0       0.3
 6 C  dx2y2           0.0       0.2       0.0       0.1       0.0       0.0
 6 C  dxy             0.0       0.1       0.1       0.2       0.0       0.1
 7 H  s               3.8       0.0       1.0       0.6      10.0       0.0
 7 H  pz              0.0       0.0       0.0       0.0       0.3       0.0
 7 H  px              0.0       0.0       0.2       0.0       0.0       0.1
 7 H  py              0.1       0.0       0.0       0.1       0.0       0.0
 8 H  s               0.1       0.1      11.4       0.8       1.8       8.5
 8 H  px              0.0       0.0       0.1       0.0       0.2       0.0
 8 H  py              0.0       0.0       0.1       0.0       0.1       0.1
 9 H  s               3.0       3.2       0.1       5.7       2.1       3.0
 9 H  px              0.0       0.0       0.2       0.0       0.1       0.1
 9 H  py              0.1       0.0       0.0       0.0       0.2       0.0
10 H  s               3.3       0.0       0.0       0.3       3.5       1.5
10 H  px              0.0       0.0       0.0       0.0       0.1       0.0
11 H  s               3.0       0.3       0.3       0.1       4.3       0.1
11 H  pz              0.0       0.0       0.0       0.0       0.2       0.0
11 H  py              0.1       0.0       0.0       0.0       0.0       0.0
12 H  s               0.0       0.1       0.0       4.9       0.1       5.0
13 H  s               0.2       0.1       0.0       1.3       0.0       3.0
13 H  py              0.0       0.0       0.0       0.1       0.0       0.0
14 H  s               0.2      10.1       3.5       1.8       0.0       3.6
14 H  px              0.0       0.1       0.1       0.0       0.0       0.1
14 H  py              0.1       0.1       0.0       0.1       0.0       0.0
15 H  s               3.9      14.2       1.2       1.9       1.1       1.7
15 H  pz              0.1       0.0       0.0       0.1       0.0       0.0
15 H  px              0.1       0.3       0.0       0.0       0.0       0.0
16 H  s               0.5       0.4       4.9       7.0       0.0       6.6
16 H  px              0.1       0.1       0.0       0.0       0.0       0.0
16 H  py              0.0       0.1       0.1       0.1       0.0       0.0

                     24        25        26        27        28        29   
                  -0.31821  -0.30514  -0.27125  -0.23728  -0.01337   0.07751
                   2.00000   2.00000   2.00000   2.00000   0.00000   0.00000
                  --------  --------  --------  --------  --------  --------
 0 C  s               0.0       0.0       0.0       0.2       0.5       5.8
 0 C  pz             18.3       0.7       0.1       0.1       0.1       0.2
 0 C  px              0.0       1.5       0.0       0.2       0.2       1.4
 0 C  py              1.1       0.1       0.0       0.0       0.2       1.2
 0 C  dyz             0.5       0.1       0.0       0.0       0.0       0.1
 0 C  dxy             0.1       0.0       0.0       0.0       0.0       0.2
 1 C  s               0.0       0.1       0.0       0.6       0.2      15.3
 1 C  pz             16.5       1.1       0.1       0.1       0.1       0.2
 1 C  px              0.1       2.7       0.0       3.7       0.1       0.9
 1 C  py              0.6       0.5       0.1       3.7       0.0       0.8
 1 C  dz2             0.1       0.0       0.0       0.0       0.0       0.1
 1 C  dxz             0.0       0.0       0.0       0.0       0.9       0.0
 1 C  dyz             0.6       0.1       0.0       0.0       0.8       0.0
 1 C  dxy             0.2       0.0       0.0       0.0       0.2       0.0
 2 C  s               0.1       0.4       0.0       0.2       0.1      13.6
 2 C  pz              2.3       0.1       0.4       0.0      38.5       0.3
 2 C  px              0.1       0.1       0.0       1.2       0.4       0.3
 2 C  py              0.5       3.3       0.0       0.6       1.4       0.6
 2 C  dz2             0.0       0.0       0.1       0.0       0.2       1.5
 2 C  dxz             0.1       0.1       0.3       0.2       0.3       0.0
 2 C  dyz             0.3       0.0       1.5       0.0       0.5       0.3
 2 C  dx2y2           0.1       0.6       0.1       0.0       0.0       0.0
 2 C  dxy             0.0       0.1       0.0       3.9       0.0       0.0
 3 O  s               0.2       0.6       0.0       0.0       0.0       2.6
 3 O  pz              8.4       2.1      30.7       0.2      22.9       0.1
 3 O  px              0.3       0.1       0.0      70.7       0.2       0.1
 3 O  py              4.0       4.4       1.2       0.3       0.8       0.6
 3 O  dz2             0.0       0.0       0.0       0.0       1.3       1.8
 3 O  dxz             0.0       0.1       0.0       0.0       0.2       0.1
 3 O  dyz             0.1       0.0       0.1       0.0       5.5       0.5
 3 O  dx2y2           0.1       0.3       0.0       0.0       0.1       0.0
 3 O  dxy             0.0       0.0       0.0       0.6       0.2       0.0
 4 O  s               0.2       2.6       0.0       0.3       0.0       3.6
 4 O  pz              0.4       3.0      43.4       0.0       9.0       0.0
 4 O  px              0.3       1.4       0.7       1.5       0.1       0.2
 4 O  py              2.8      21.9       1.5       7.0       0.5       0.4
 4 O  dz2             0.0       0.2       0.1       0.3       0.1       3.6
 4 O  dxz             0.0       0.0       0.2       0.0       4.0       0.4
 4 O  dyz             0.2       0.2       0.5       0.0       1.6       0.1
 4 O  dx2y2           0.0       1.3       0.0       0.1       0.2       1.3
 4 O  dxy             0.1       0.5       0.1       0.2       0.1       0.5
 5 C  s               0.0       0.2       0.1       0.1       0.0       4.0
 5 C  pz              0.7       2.6       4.1       0.4       0.0       1.4
 5 C  px              0.2       0.2       0.1       0.6       0.1       4.7
 5 C  py              0.8      12.0       0.5       0.1       0.0       2.1
 5 C  dz2             0.0       0.2       0.0       0.0       0.0       0.2
 5 C  dxz             0.0       0.0       0.7       0.0       0.2       0.0
 5 C  dyz             0.0       0.5       0.2       0.0       0.1       0.0
 5 C  dx2y2           0.0       0.2       0.0       0.1       0.0       0.3
 5 C  dxy             0.0       0.1       0.1       0.0       0.0       0.2
 6 C  s               0.1       0.0       0.6       0.0       0.4       4.3
 6 C  pz              0.6       0.8       4.4       0.2       0.3       1.2
 6 C  px              0.9       0.0       1.2       0.1       0.1       1.0
 6 C  py              0.3       5.4       2.0       0.1       0.1       0.8
 6 C  dz2             0.0       0.2       0.0       0.0       0.0       0.5
 6 C  dyz             0.0       0.3       0.0       0.0       0.0       0.0
 6 C  dx2y2           0.0       0.0       0.0       0.0       0.0       0.1
 7 H  s               9.7       0.1       0.0       0.0       0.0       1.0
 7 H  pz              0.0       0.0       0.0       0.0       0.0       0.4
 7 H  py              0.1       0.0       0.0       0.0       0.0       0.1
 8 H  s               0.6       0.9       0.0       0.1       0.1       0.7
 8 H  pz              0.2       0.0       0.0       0.0       0.0       0.0
 8 H  py              0.0       0.0       0.0       0.0       0.0       0.3
 9 H  s               7.4       1.2       0.1       0.1       0.1       1.0
 9 H  pz              0.0       0.0       0.0       0.0       0.0       0.3
 9 H  px              0.0       0.0       0.0       0.0       0.0       0.3
10 H  s               8.2       1.7       0.0       0.3       4.1       2.6
10 H  pz              0.0       0.0       0.0       0.0       0.0       1.0
10 H  px              0.0       0.0       0.0       0.0       0.2       0.1
10 H  py              0.1       0.0       0.0       0.0       0.1       0.1
11 H  s               9.5       0.3       0.0       0.7       1.8       1.9
11 H  pz              0.0       0.0       0.0       0.0       0.0       0.8
11 H  py              0.1       0.0       0.0       0.0       0.1       0.3
12 H  s               0.4       4.1       1.3       0.2       0.1       0.9
12 H  py              0.0       0.0       0.0       0.0       0.0       0.7
13 H  s               0.0      10.9       1.5       0.1       0.2       1.5
13 H  pz              0.0       0.1       0.0       0.0       0.0       0.4
13 H  px              0.0       0.0       0.0       0.0       0.0       0.4
13 H  py              0.0       0.0       0.0       0.0       0.0       0.2
14 H  s               0.0       4.7       0.0       0.0       0.0       0.3
14 H  py              0.0       0.0       0.0       0.0       0.0       0.3
15 H  s               0.5       0.6       0.6       0.1       0.0       2.8
15 H  px              0.0       0.0       0.0       0.0       0.0       0.4
16 H  s               0.0       2.0       0.2       0.1       0.0       0.8
16 H  px              0.0       0.0       0.0       0.0       0.0       0.4

                     30        31        32        33        34        35   
                   0.08981   0.11405   0.12461   0.13682   0.14375   0.15323
                   0.00000   0.00000   0.00000   0.00000   0.00000   0.00000
                  --------  --------  --------  --------  --------  --------
 0 C  s               4.2      15.6       0.0       9.4       3.6       0.1
 0 C  pz              0.3       0.2       0.2       1.5       0.6       5.1
 0 C  px              1.4       2.2       0.4       8.2       7.8       3.2
 0 C  py              0.5       0.5       0.2       9.5       0.9       1.7
 0 C  dz2             0.0       0.1       0.0       0.0       0.0       0.5
 0 C  dxz             0.0       0.0       0.0       0.0       0.2       0.0
 0 C  dyz             0.0       0.0       0.0       0.1       0.0       0.7
 0 C  dx2y2           0.1       0.0       0.0       0.3       0.2       0.0
 0 C  dxy             0.0       0.1       0.1       1.0       0.0       0.2
 1 C  s               0.6       4.9       0.4       8.6       0.3       0.6
 1 C  pz              0.3       0.4       0.3       0.8       0.7       6.6
 1 C  px              0.5       3.9       0.0       9.7       0.7       4.8
 1 C  py              1.7       1.5       0.5       7.4       5.8      10.5
 1 C  dz2             0.2       0.1       0.1       0.1       0.0       0.1
 1 C  dxz             0.1       0.0       0.0       0.0       0.1       0.2
 1 C  dyz             0.1       0.2       0.0       0.1       0.2       0.7
 1 C  dx2y2           0.2       0.0       0.0       0.4       0.4       0.0
 1 C  dxy             0.2       0.3       0.0       0.9       0.0       0.3
 2 C  s               0.5       0.4       0.1       1.0       2.8       0.9
 2 C  pz              1.0       0.4       3.3       0.2       0.0       8.8
 2 C  px              0.7       3.5       0.1       0.6       1.0       0.5
 2 C  py              2.5       0.3       0.4       4.0       0.7       1.6
 2 C  dz2             0.0       0.1       0.0       0.0       0.8       0.0
 2 C  dx2y2           1.1       0.1       0.1       0.0       0.1       0.0
 3 O  s               0.2       0.0       0.0       0.3       0.4       0.3
 3 O  pz              0.1       0.1       0.5       0.1       0.0       0.2
 3 O  px              0.4       2.2       0.2       0.3       0.1       0.1
 3 O  py              0.2       0.1       0.1       0.1       0.1       0.4
 3 O  dz2             0.0       0.0       0.1       0.0       2.3       0.3
 3 O  dxz             0.2       0.0       0.1       0.0       0.0       1.1
 3 O  dyz             0.0       0.1       0.0       0.0       0.2       0.2
 3 O  dx2y2           0.0       0.1       0.2       0.0       1.4       0.6
 3 O  dxy             0.6       0.0       0.0       0.1       0.0       0.1
 4 O  s               7.4       0.3       0.5       0.2       0.2       0.3
 4 O  pz              1.2       0.3       0.8       0.1       0.0       0.8
 4 O  px              4.7       0.1       0.6       1.2       1.9       0.1
 4 O  py              1.6       0.3       0.4       1.5       0.6       0.1
 4 O  dz2             1.1       0.1       2.8       0.3       1.5       3.0
 4 O  dxz             0.5       0.4       0.0       0.0       0.3       0.9
 4 O  dyz             0.0       0.3       0.5       0.0       0.0       0.0
 4 O  dx2y2           1.1       0.6       0.2       0.7       2.1       0.2
 4 O  dxy             1.1       0.1       0.1       2.1       0.6       0.7
 5 C  s               4.3       9.2       5.9       0.5       1.3       1.0
 5 C  pz              0.5       1.9      19.5       1.0       0.8       3.2
 5 C  px             28.3       5.2       0.0       3.7       4.5       0.1
 5 C  py              5.1       2.0       0.4       1.0      15.0       1.5
 5 C  dz2             0.8       0.0       0.5       0.2       0.2       0.0
 5 C  dxz             0.3       0.0       0.0       0.1       0.1       0.0
 5 C  dyz             0.1       0.0       0.3       0.1       0.8       0.5
 5 C  dx2y2           1.3       0.0       0.1       0.5       0.1       0.1
 5 C  dxy             0.7       0.1       0.2       0.2       0.9       0.0
 6 C  s               5.8       7.5      22.4       0.2       0.1       0.0
 6 C  pz              0.5       2.5      15.1       0.6       0.9       2.4
 6 C  px              0.0       2.7       5.7       0.6       3.4       5.6
 6 C  py              0.3       0.4       2.8       0.5       4.8       2.7
 6 C  dz2             0.2       0.4       0.2       0.3       0.0       0.0
 6 C  dxz             0.4       0.1       0.4       0.0       0.3       0.2
 6 C  dyz             0.0       0.2       0.2       0.0       0.6       0.1
 6 C  dx2y2           0.2       0.0       0.0       0.0       0.0       0.5
 6 C  dxy             0.5       0.0       0.0       0.0       0.0       0.1
 7 H  s               0.1       1.7       0.0       1.5       0.2       1.1
 7 H  pz              0.0       0.7       0.0       0.2       0.0       0.0
 7 H  px              0.0       0.0       0.0       0.4       0.0       0.1
 7 H  py              0.1       0.3       0.0       1.0       0.0       0.4
 8 H  s               0.4       1.5       0.0       1.1       2.0       1.8
 8 H  px              0.4       0.7       0.0       0.1       1.2       0.1
[...]
 3 O  pz              0.1       0.1       0.0       0.0       0.0       1.0
 3 O  px              0.2       0.1       8.3       0.1       0.2       0.1
 3 O  py              0.1       0.1       0.8       0.7       0.3      20.7
 3 O  dz2             0.1       0.1       0.7       0.2       0.4       6.2
 3 O  dxz             0.0       0.1       0.6       0.0       0.2       0.0
 3 O  dyz             0.1       0.3       0.0       0.2       0.1       4.0
 3 O  dx2y2           0.1       0.0       0.1       1.6       0.1      23.2
 3 O  dxy             1.8       0.7      22.4       0.1       1.6       0.4
 4 O  s               0.3       0.6       4.8      27.1       5.3       0.9
 4 O  pz              0.0       0.0       0.2       0.5       0.0       0.0
 4 O  px              0.0       0.2       0.1       6.9      27.8       0.7
 4 O  py              0.7       0.7       5.7       7.2       3.3       0.1
 4 O  dz2             0.0       0.0       0.5      11.7       2.9       0.5
 4 O  dxz             0.1       1.1       0.0       1.2       0.5       0.2
 4 O  dyz             0.2       0.8       0.6       0.3       0.0       0.0
 4 O  dx2y2           0.7       0.4       9.2      10.8       0.1       0.7
 4 O  dxy             0.0       0.2       0.1       0.9      27.0       0.6
 5 C  s               0.0       0.1       0.1       1.3       0.5       0.2
 5 C  pz              0.3       0.1       0.1       0.5       0.1       0.0
 5 C  px              0.6       0.8       0.3       6.3       1.7       0.3
 5 C  py              4.8       5.9       0.3       0.7       0.3       0.0
 5 C  dz2             1.5       2.1       0.0       2.2       0.4       0.1
 5 C  dxz             0.8       1.0       0.0       0.7       0.1       0.0
 5 C  dyz             6.4       7.6       1.6       0.1       0.0       0.0
 5 C  dx2y2           0.0       0.0       0.6       4.6       1.3       0.2
 5 C  dxy             0.7       1.2       1.3       5.2       1.1       0.4
 6 C  s               0.0       0.2       0.1       0.0       0.0       0.0
 6 C  pz              0.0       0.0       0.2       0.1       0.0       0.0
 6 C  px              0.0       0.3       0.0       0.1       0.0       0.0
 6 C  py              0.4       0.1       0.3       0.0       0.0       0.0
 6 C  dz2             0.3       0.2       0.2       0.1       0.0       0.0
 6 C  dxz             0.1       0.1       0.0       0.0       0.0       0.0
 6 C  dyz             1.1       0.1       1.7       0.1       0.0       0.0
 6 C  dx2y2           0.2       0.3       0.1       0.2       0.0       0.0
 6 C  dxy             0.4       0.1       0.1       0.2       0.0       0.0
 7 H  s               2.7       2.1       0.1       0.0       0.0       0.0
 7 H  pz              3.5       2.3       0.2       0.0       0.0       0.0
 7 H  px              0.3       0.4       0.0       0.0       0.0       0.0
 7 H  py              3.3       2.7       0.1       0.0       0.0       0.0
 8 H  s               0.5       0.9       0.1       0.0       0.0       0.0
 8 H  px              0.7       1.5       0.3       0.0       0.0       0.0
 8 H  py              0.1       0.5       0.1       0.0       0.0       0.0
 9 H  s               0.1       0.1       0.0       0.0       0.0       0.0
 9 H  pz              0.1       0.2       0.0       0.0       0.0       0.0
 9 H  py              0.3       0.2       0.1       0.0       0.0       0.0
10 H  s               1.6       1.4       0.1       0.0       0.0       0.0
10 H  pz              2.3       1.8       0.2       0.0       0.0       0.0
10 H  px              0.0       0.1       0.0       0.0       0.0       0.0
10 H  py              1.4       0.9       0.0       0.0       0.0       0.0
11 H  s               3.2       2.9       0.3       0.0       0.0       0.0
11 H  pz              3.2       2.7       0.5       0.0       0.0       0.0
11 H  px              0.1       0.3       0.1       0.0       0.0       0.0
11 H  py              4.3       4.3       0.3       0.0       0.0       0.0
12 H  s               2.9       4.0       0.4       0.4       0.1       0.0
12 H  pz              1.3       1.4       0.2       0.0       0.0       0.0
12 H  px              1.7       3.0       0.0       0.0       0.0       0.0
12 H  py              3.3       4.4       0.8       1.2       0.1       0.0
13 H  s               3.3       3.7       0.5       0.3       0.1       0.0
13 H  pz              4.6       5.4       0.7       0.3       0.1       0.0
13 H  px              0.0       0.0       0.7       0.3       0.1       0.0
13 H  py              3.1       3.3       0.5       0.2       0.0       0.0
14 H  s               0.4       0.1       0.6       0.0       0.0       0.0
14 H  pz              0.7       0.3       0.8       0.0       0.0       0.0
14 H  px              0.1       0.2       0.0       0.0       0.0       0.0
14 H  py              0.4       0.1       0.7       0.0       0.0       0.0
15 H  s               0.0       0.2       0.0       0.1       0.0       0.0
15 H  px              0.0       0.1       0.0       0.2       0.0       0.0
15 H  py              0.1       0.3       0.0       0.0       0.0       0.0
16 H  s               0.3       0.0       0.2       0.0       0.0       0.0
16 H  pz              0.2       0.0       0.0       0.0       0.0       0.0
16 H  py              0.6       0.0       0.2       0.0       0.0       0.0

                    186       187       188       189       190       191   
                  21.92450  21.94963  21.98473  22.06155  22.24863  43.68760
                   0.00000   0.00000   0.00000   0.00000   0.00000   0.00000
                  --------  --------  --------  --------  --------  --------
 0 C  s              68.4       7.5      21.8       1.9       0.0       0.0
 1 C  s              22.2       1.1      64.7       9.9       1.7       0.0
 2 C  s               0.3       0.0       0.8       0.9      97.0       0.0
 3 O  s               0.0       0.0       0.0       0.0       0.2      99.4
 3 O  py              0.0       0.0       0.0       0.0       0.1       0.0
 4 O  s               0.0       0.0       0.0       0.1       0.1       0.5
 4 O  px              0.0       0.0       0.0       0.0       0.1       0.0
 5 C  s               0.2       0.0      12.3      86.7       0.4       0.0
 6 C  s               8.4      91.0       0.2       0.0       0.0       0.0

                    192   
                  43.75324
                   0.00000
                  --------
 3 O  s               0.5
 4 O  s              99.4


                      *****************************
                      * MAYER POPULATION ANALYSIS *
                      *****************************

  NA   - Mulliken gross atomic population
  ZA   - Total nuclear charge
  QA   - Mulliken gross atomic charge
  VA   - Mayer's total valence
  BVA  - Mayer's bonded valence
  FA   - Mayer's free valence

  ATOM       NA         ZA         QA         VA         BVA        FA
  0 C      6.4597     6.0000    -0.4597     3.8526     3.8526    -0.0000
  1 C      6.2726     6.0000    -0.2726     3.7479     3.7479    -0.0000
  2 C      5.6187     6.0000     0.3813     3.8389     3.8389    -0.0000
  3 O      8.4343     8.0000    -0.4343     1.9412     1.9412    -0.0000
  4 O      8.1767     8.0000    -0.1767     1.9088     1.9088    -0.0000
  5 C      6.1363     6.0000    -0.1363     3.6903     3.6903     0.0000
  6 C      6.4693     6.0000    -0.4693     3.8148     3.8148     0.0000
  7 H      0.8345     1.0000     0.1655     0.9600     0.9600    -0.0000
  8 H      0.8543     1.0000     0.1457     0.9611     0.9611    -0.0000
  9 H      0.8528     1.0000     0.1472     0.9644     0.9644    -0.0000
 10 H      0.8367     1.0000     0.1633     0.9578     0.9578     0.0000
 11 H      0.8384     1.0000     0.1616     0.9612     0.9612     0.0000
 12 H      0.8522     1.0000     0.1478     0.9519     0.9519    -0.0000
 13 H      0.8340     1.0000     0.1660     0.9593     0.9593    -0.0000
 14 H      0.8488     1.0000     0.1512     0.9623     0.9623    -0.0000
 15 H      0.8534     1.0000     0.1466     0.9648     0.9648     0.0000
 16 H      0.8271     1.0000     0.1729     0.9580     0.9580     0.0000

  Mayer bond orders larger than 0.100000
B(  0-C ,  1-C ) :   0.9265 B(  0-C ,  7-H ) :   0.9690 B(  0-C ,  8-H ) :   0.9731 
B(  0-C ,  9-H ) :   0.9775 B(  1-C ,  2-C ) :   0.9826 B(  1-C , 10-H ) :   0.9273 
B(  1-C , 11-H ) :   0.9659 B(  2-C ,  3-O ) :   1.8309 B(  2-C ,  4-O ) :   1.0762 
B(  4-O ,  5-C ) :   0.8198 B(  5-C ,  6-C ) :   0.9380 B(  5-C , 12-H ) :   0.9613 
B(  5-C , 13-H ) :   0.9671 B(  6-C , 14-H ) :   0.9737 B(  6-C , 15-H ) :   0.9651 
B(  6-C , 16-H ) :   0.9716 

-------
TIMINGS
-------

Total SCF time: 0 days 0 hours 0 min 20 sec 

Total time                  ....      20.764 sec
Sum of individual times     ....      20.230 sec  ( 97.4%)

SCF preparation             ....       0.195 sec  (  0.9%)
Fock matrix formation       ....      19.078 sec  ( 91.9%)
  Startup                   ....       0.056 sec  (  0.3% of F)
  Split-RI-J                ....       3.266 sec  ( 17.1% of F)
  XC integration            ....      15.149 sec  ( 79.4% of F)
    Basis function eval.    ....       2.623 sec  ( 17.3% of XC)
    Density eval.           ....       4.170 sec  ( 27.5% of XC)
    XC-Functional eval.     ....       2.064 sec  ( 13.6% of XC)
    XC-Potential eval.      ....       4.788 sec  ( 31.6% of XC)
Diagonalization             ....       0.000 sec  (  0.0%)
Density matrix formation    ....       0.261 sec  (  1.3%)
Total Energy calculation    ....       0.037 sec  (  0.2%)
Population analysis         ....       0.115 sec  (  0.6%)
Orbital Transformation      ....       0.060 sec  (  0.3%)
Orbital Orthonormalization  ....       0.000 sec  (  0.0%)
DIIS solution               ....       0.430 sec  (  2.1%)
  MO trafo                  ....       0.000 sec  (  0.0 % of DIIS)
  Orb grad                  ....       0.000 sec  (  0.0 % of DIIS)
  Energy W gradient         ....       0.000 sec  (  0.0 % of DIIS)
  DIIS error                ....       0.009 sec  (  2.2 % of DIIS)
  DIIS work                 ....       0.357 sec  ( 82.9 % of DIIS)
  Form Q                    ....       0.000 sec  (  0.0 % of DIIS)
  Form QpQm                 ....       0.000 sec  (  0.0 % of DIIS)
  Exp/Cayley                ....       0.000 sec  (  0.0 % of DIIS)
  Orb update                ....       0.000 sec  (  0.0 % of DIIS)
  Wake-sleep                ....       0.034 sec  (  8.0 % of DIIS)
SOSCF solution              ....       0.055 sec  (  0.3%)
  MO trafo                  ....       0.036 sec  ( 66.4 % of SOSCF)
  Orb grad                  ....       0.002 sec  (  3.1 % of SOSCF)
  Rot update                ....       0.000 sec  (  0.1 % of SOSCF)
  Step                      ....       0.017 sec  ( 30.2 % of SOSCF)
Finished LeanSCF after  20.8 sec

Maximum memory used throughout the entire LEANSCF-calculation: 20.2 MB


-------------------------------------------------------------------------------
                          DFT DISPERSION CORRECTION                            
                                                                               
                                DFTD4 V3.4.0                                   
-------------------------------------------------------------------------------
The R2SCAN3C composite method is recognized
Using three-body term ABC
Active option DFTDOPT                   ...         5   

-------------------------   ----------------
Dispersion correction           -0.003947871
-------------------------   ----------------

------------------   -----------------
gCP correction             0.010443259
------------------   -----------------

-------------------------   --------------------
FINAL SINGLE POINT ENERGY      -346.937638003212
-------------------------   --------------------


------------------------------------------------------------------------------
                              ORCA PROPERTY CALCULATIONS
------------------------------------------------------------------------------

GBWName                                 ... sp_gas.gbw
Number of atoms                         ...     17
Number of basis functions               ...    193
Max core memory                         ...   1024 MB

Electric properties:
Dipole moment                           ... YES
Quadrupole moment                       ...  NO
Static polarizability (Dipole/Dipole)   ...  NO
Static polarizability (Dipole/Quad.)    ...  NO
Static polarizability (Quad./Quad.)     ...  NO
Static polarizability (Velocity)        ...  NO

Atomic electric properties:
Dipole moment                           ...  NO
Quadrupole moment                       ...  NO
Static polarizability                   ...  NO

Choice of electric origin               ... Center of mass
Position of electric origin             ...    -0.000003     0.000004    -0.000010

General magnetic properties:
Magnetizability                         ...  NO

EPR properties:
g-Tensor (aka g-matrix)                 ...  NO
Zero-Field splitting spin-orbit         ...  NO
Zero-field splitting spin-spin          ...  NO
Hyperfine couplings                     ...  NO (   0 nuclei)
Quadrupole couplings                    ...  NO (   0 nuclei)
Contact density                         ...  NO (   0 nuclei)

NMR properties:
Chemical shifts                         ...  NO (   0 nuclei)
Spin-rotation constants                 ...  NO (   0 nuclei)
Spin-spin couplings                     ...  NO (   0 nuclei,    0 pairs)

Choice of magnetic origin               ... GIAO
Position of magnetic origin             ...     0.000000     0.000000     0.000000

Properties with geometric perturbations:
SCF Hessian                             ...  NO
IR spectrum                             ...  NO
VCD spectrum                            ...  NO
X-ray spectroscopy properties:
SCF XES/XAS/RIXS spectra                ...  NO


-------------
DIPOLE MOMENT
-------------

Method             : SCF
Type of density    : Electron Density
Multiplicity       :   1
Irrep              :   0
Energy             :  -346.9441333904433691 Eh
Relativity type    : 
Basis              : AO
                                X                 Y                 Z
Electronic contribution:      0.464710897       0.047545264       2.619707293
Nuclear contribution   :     -0.200885105       0.613694684      -2.776173973
                        -----------------------------------------
Total Dipole Moment    :      0.263825792       0.661239948      -0.156466680
                        -----------------------------------------
Magnitude (a.u.)       :      0.728919845
Magnitude (Debye)      :      1.852767003



--------------------
Rotational spectrum 
--------------------
 
Rotational constants in cm-1:             0.211544             0.046710             0.043959 
Rotational constants in MHz :          6341.942655          1400.326336          1317.868874 

Dipole components along the rotational axes: 
x,y,z [a.u.] :    -0.262060     0.659095    -0.168054 
x,y,z [Debye]:    -0.666103     1.675287    -0.427159 

 

Dipole moment calculation done in   0.0 sec 

Maximum memory used throughout the entire PROP-calculation: 11.4 MB

--------------------------------
SUGGESTED CITATIONS FOR THIS RUN
--------------------------------

Below you find a list of papers that are relevant to this ORCA run
We neither can nor want to force you to cite these papers, but we appreciate if you do
You receive ORCA, which is the product of decades of hard work by many enthusiastic individuals, for free
The only thing we kindly ask in return is that you cite our papers,
We deeply appreciate it, if you show your appreciation for ORCA by not just citing the generic ORCA reference.

Please note that relegating all ORCA citations to the supporting information does *not* help us.
SI sections are not indexed - citations you put there will not count into any citation statistics
But we need these citations in order to attract the funding resources that allow us to do what we are doing

Therefore, if you are a happy ORCA user, please consider citing a few of the papers listed below in the main body of your paper

In addition to the list printed below, the program has created the file sp_gas.bibtex that contains the list in bibtex format
You can import this file easily into all common literature databanks and citation aid programs


List of essential papers. We consider these as the minimum necessary citations

  1. Neese,F.
     Software update: the ORCA program system, version 5.0
     WIRES Comput. Molec. Sci., 2022 12(1)e1606
     doi.org/10.1002/wcms.1606
  2. Grimme,S.; Hansen,A.; Ehlert,S.; Mewes,J.
     r2SCAN-3c: A 'Swiss army knife' composite electronic-structure method
     J. Chem. Phys., 2021 154 064103
     doi.org/10.1063/5.0040021

List of papers to cite with high priority. The work reported in these papers was absolutely
necessary for this run to complete.
Our perspective: the developers of density functionals and basis sets usually get cited in chemistry papers
Good! But without the algorithms to do something with them, the functionals or basis sets would not do anything.
Hence, in our opinion, the algorithm design and method developments papers are equally worthy of getting cited

  1. Neese,F.
     An improvement of the resolution of the identity approximation for the formation of the Coulomb matrix
     J. Comp. Chem., 2003 24(14)1740-1747
     doi.org/10.1002/jcc.10318
  2. Neese,F.
     The SHARK Integral Generation and Digestion System
     J. Comp. Chem., 2022  1-16
     doi.org/10.1002/jcc.26942
  3. Lehtola,S.; Steigemann,C.; Oliveira,M.; Marques,M.
     Recent developments in Libxc - A comprehensive library of functionals for density functional theory
     Software X, 2018 7 
     doi.org/10.1016/j.softx.2017.11.002
  4. Caldeweyher,E.; Bannwarth,C.; Grimme,S.
     Extension of the D3 dispersion coefficient model
     J. Chem. Phys., 2017 147 034112-XXXX
     doi.org/10.1063/1.4993215
  5. Caldeweyher,E.; Ehlert,S.; Hansen,A.; Neugebauer,H.; Spicher,S.; Bannwarth,C.; Grimme,S.
     A generally applicable atomic-charge dependent London dispersion correction
     J. Chem. Phys., 2019 150 154122-XXXX
     doi.org/10.1063/1.5090222
  6. Caldeweyher,E.; Mewes,J.; Ehlert,S.; Grimme,S.
     Extension and evaluation of the D4 London-dispersion model for periodic systems
     Phys. Chem. Chem. Phys., 2020 22(16)8499-8512
     doi.org/10.1039/D0CP00502A

List of suggested additional citations. These are papers that are important in the 'surrounding' of 
of this run, or papers that preceded the highly important papers. If you like your results we are grateful for a citation.

  1. Neese,F.
     The ORCA program system
     WIRES Comput. Molec. Sci., 2012 2(1)73-78
     doi.org/10.1002/wcms.81
  2. Neese,F.
     Software update: the ORCA program system, version 4.0
     WIRES Comput. Molec. Sci., 2018 8(1)1-6
     doi.org/10.1002/wcms.1327
  3. Neese,F.; Wennmohs,F.; Becker,U.; Riplinger,C.
     The ORCA quantum chemistry program package
     J. Chem. Phys., 2020 152 Art. No. L224108
     doi.org/10.1063/5.0004608

List of optional additional citations

  1. Neese,F.
     Approximate second-order SCF convergence for spin unrestricted wavefunctions
     Chem. Phys. Lett., 2000 325(1-3)93-98
     doi.org/10.1016/s0009-2614(00)00662-x

Timings for individual modules:

Sum of individual times          ...       22.395 sec (=   0.373 min)
Startup calculation              ...        1.110 sec (=   0.019 min)   5.0 %
SCF iterations                   ...       21.185 sec (=   0.353 min)  94.6 %
Property calculations            ...        0.099 sec (=   0.002 min)   0.4 %
                             ****ORCA TERMINATED NORMALLY****
TOTAL RUN TIME: 0 days 0 hours 0 minutes 23 seconds 197 msec
