
                                 *****************
                                 * O   R   C   A *
                                 *****************

                                            #,                                       
                                            ###                                      
                                            ####                                     
                                            #####                                    
                                            ######                                   
                                           ########,                                 
                                     ,,################,,,,,                         
                               ,,#################################,,                 
                          ,,##########################################,,             
                       ,#########################################, ''#####,          
                    ,#############################################,,   '####,        
                  ,##################################################,,,,####,       
                ,###########''''           ''''###############################       
              ,#####''   ,,,,##########,,,,          '''####'''          '####       
            ,##' ,,,,###########################,,,                        '##       
           ' ,,###''''                  '''############,,,                           
         ,,##''                                '''############,,,,        ,,,,,,###''
      ,#''                                            '''#######################'''  
     '                                                          ''''####''''         
             ,#######,   #######,   ,#######,      ##                                
            ,#'     '#,  ##    ##  ,#'     '#,    #''#        ,####,   ,####,        
            ##       ##  ##   ,#'  ##            #'  '#       #'       #'  '#        
            ##       ##  #######   ##           ,######,      #####,   #    #        
            '#,     ,#'  ##    ##  '#,     ,#' ,#      #,     #,   #   #,  ,#        
             '#######'   ##     ##  '#######'  #'      '#     '####' # '####'        



                #########################################################
                #                        -***-                          #
                #          Department of theory and spectroscopy        #
                #                                                       #
                #                      Frank Neese                      #
                #                                                       #
                #     Directorship, Architecture, Infrastructure        #
                #                    SHARK, DRIVERS                     #
                #        Core code/Algorithms in most modules           #
                #                                                       #
                #        Max Planck Institute fuer Kohlenforschung      #
                #                Kaiser Wilhelm Platz 1                 #
                #                 D-45470 Muelheim/Ruhr                 #
                #                      Germany                          #
                #                                                       #
                #                  All rights reserved                  #
                #                        -***-                          #
                #########################################################


                         Program Version 6.0.0  -   RELEASE  -


 With contributions from (in alphabetic order):
   Daniel Aravena         : Magnetic Suceptibility
   Michael Atanasov       : Ab Initio Ligand Field Theory (pilot matlab implementation)
   Alexander A. Auer      : GIAO ZORA, VPT2 properties, NMR spectrum
   Ute Becker             : All parallelization in ORCA, NUMFREQ, NUMCALC
   Giovanni Bistoni       : ED, misc. LED, open-shell LED, HFLD
   Martin Brehm           : Molecular dynamics
   Dmytro Bykov           : pre 5.0 version of the SCF Hessian
   Marcos Casanova-Páez   : Triplet and SCS-CIS(D). UHF-(DLPNO)-IP/EA/STEOM-CCSD. UHF-CVS-IP/STEOM-CCSD
   Vijay G. Chilkuri      : MRCI spin determinant printing, contributions to CSF-ICE
   Pauline Colinet        : FMM embedding
   Dipayan Datta          : RHF DLPNO-CCSD density
   Achintya Kumar Dutta   : EOM-CC, STEOM-CC
   Nicolas Foglia         : Exact transition moments, OPA infrastructure, MCD improvements
   Dmitry Ganyushin       : Spin-Orbit,Spin-Spin,Magnetic field MRCI
   Miquel Garcia          : C-PCM and meta-GGA Hessian, CCSD/C-PCM, Gaussian charge scheme
   Tiago L. C. Gouveia    : GS-ROHF, GS-ROCIS
   Yang Guo               : DLPNO-NEVPT2, F12-NEVPT2, CIM, IAO-localization
   Andreas Hansen         : Spin unrestricted coupled pair/coupled cluster methods
   Ingolf Harden          : AUTO-CI MPn and infrastructure 
   Benjamin Helmich-Paris : MC-RPA, TRAH-(SCF,CASSCF), AVAS, COSX integrals, SCF dyn. polar.
   Lee Huntington         : MR-EOM, pCC
   Robert Izsak           : Overlap fitted RIJCOSX, COSX-SCS-MP3, EOM
   Riya Kayal             : Wick's Theorem for AUTO-CI, AUTO-CI UHF-CCSDT
   Emily Kempfer          : AUTO-CI, RHF CISDT and CCSDT
   Christian Kollmar      : KDIIS, OOCD, Brueckner-CCSD(T), CCSD density, CASPT2, CASPT2-K, improved NEVPT2
   Axel Koslowski         : Symmetry handling
   Simone Kossmann        : Meta GGA functionals, TD-DFT gradient, OOMP2, (MP2 Hessian; deprecated post 5.0)
   Lucas Lang             : DCDCAS
   Marvin Lechner         : AUTO-CI (C++ implementation), FIC-MRCC
   Spencer Leger          : CASSCF response
   Dagmar Lenk            : GEPOL surface, SMD, ORCA-2-JSON
   Dimitrios Liakos       : Extrapolation schemes; Compound Job, initial MDCI parallelization
   Dimitrios Manganas     : Further ROCIS development; embedding schemes. LFT, Crystal Embedding
   Dimitrios Pantazis     : SARC Basis sets
   Anastasios Papadopoulos: AUTO-CI, single reference methods and gradients
   Taras Petrenko         : pre 6.0 DFT Hessian and TD-DFT gradient, (ASA, deprecated), ECA, 1-Electron XAS/XES, NRVS
   Peter Pinski           : DLPNO-MP2, DLPNO-MP2 Gradient
   Christoph Reimann      : Effective Core Potentials
   Marius Retegan         : Local ZFS, SOC
   Christoph Riplinger    : Optimizer, TS searches, QM/MM, DLPNO-CCSD(T), (RO)-DLPNO pert. Triples
   Michael Roemelt        : Original ROCIS implementation
   Masaaki Saitow         : Open-shell DLPNO-CCSD energy and density
   Barbara Sandhoefer     : DKH picture change effects
   Kantharuban Sivalingam : CASSCF convergence/infrastructure, NEVPT2 and variants, FIC-MRCI
   Bernardo de Souza      : ESD, SOC TD-DFT
   Georgi Stoychev        : AutoAux, RI-MP2 NMR, DLPNO-MP2 response, X2C
   Van Anh Tran           : RI-MP2 g-tensors
   Willem Van den Heuvel  : Paramagnetic NMR
   Zikuan Wang            : NOTCH, Electric field optimization 
   Frank Wennmohs         : Technical directorship and infrastructure
   Hang Xu                : AUTO-CI-Response properties 


 We gratefully acknowledge several colleagues who have allowed us to
 interface, adapt or use parts of their codes:
   Stefan Grimme, W. Hujo, H. Kruse, P. Pracht,  : VdW corrections, initial TS optimization,
                  C. Bannwarth, S. Ehlert,         DFT functionals, gCP, sTDA/sTD-DF
                  L. Wittmann, M. Mueller
   Ed Valeev, F. Pavosevic, A. Kumar             : LibInt (2-el integral package), F12 methods
   Garnet Chan, S. Sharma, J. Yang, R. Olivares  : DMRG
   Ulf Ekstrom                                   : XCFun DFT Library
   Mihaly Kallay                                 : mrcc  (arbitrary order and MRCC methods)
   Frank Weinhold                                : gennbo (NPA and NBO analysis)
   Simon Mueller                                 : openCOSMO-RS
   Christopher J. Cramer and Donald G. Truhlar   : smd solvation model
   Lars Goerigk                                  : TD-DFT with DH, B97 family of functionals
   V. Asgeirsson, H. Jonsson                     : NEB implementation
   FAccTs GmbH                                   : IRC, NEB, NEB-TS, DLPNO-Multilevel, CI-OPT
                                                   MM, QMMM, 2- and 3-layer-ONIOM, Crystal-QMMM,
                                                   LR-CPCM, SF, NACMEs, symmetry and pop. for TD-DFT,
                                                   nearIR, NL-DFT gradient (VV10), updates on ESD,
                                                   ML-optimized integration grids, MBIS, APM,
                                                   GOAT, DOCKER, SOLVATOR, interface openCOSMO-RS
   S Lehtola, MJT Oliveira, MAL Marques          : LibXC Library
   Liviu Ungur et al                             : ANISO software


 Your calculation uses the libint2 library for the computation of 2-el integrals
 For citations please refer to: http://libint.valeyev.net

 Your ORCA version has been built with support for libXC version: 6.2.2
 For citations please refer to: https://libxc.gitlab.io

 This ORCA versions uses:
   CBLAS   interface :  Fast vector & matrix operations
   LAPACKE interface :  Fast linear algebra routines
   SCALAPACK package :  Parallel linear algebra routines
   Shared memory     :  Shared parallel matrices
   BLAS/LAPACK       :  OpenBLAS 0.3.27  USE64BITINT DYNAMIC_ARCH NO_AFFINITY SkylakeX SINGLE_THREADED
        Core in use  :  SkylakeX
   Copyright (c) 2011-2014, The OpenBLAS Project


Your calculation utilizes the geometrical counterpoise correction gCP
Please cite in your paper:
H.Kruse, S. Grimme J.Chem.Phys., 136, (2012), 154101 
   

Your calculation utilizes the atom-pairwise dispersion correction
based on EEQ partial charges (D4)


Your calculation utilizes the SMD solvation module
Please cite in your paper:
A.V. Marenich, C.J. Cramer, D.G. Truhlar J. Phys. Chem. B, 113, (2009), 6378 

================================================================================

----- Orbital basis set information -----
Your calculation utilizes the basis: def2-mTZVPP
   Stefan Grimme, Andreas Hansen, Sebastian Ehlert, and Jan-Michael Mewes 
   J. Chem. Phys. 154, 064103 (2021). DOI: 10.1063/5.0040021

----- AuxJ basis set information -----
Your calculation utilizes the auxiliary basis: def2/J
   F. Weigend, Phys. Chem. Chem. Phys. 8, 1057 (2006).

================================================================================
                                        WARNINGS
                       Please study these warnings very carefully!
================================================================================

Using LibXC functional ID 497 : Re-regularized SCAN exchange by Furness et al
[ 1]  J. W. Furness, A. D. Kaplan, J. Ning, J. P. Perdew, and J. Sun.,  J. Phys. Chem. Lett. 11, 8208-8215 (2020)
[ 2]  J. W. Furness, A. D. Kaplan, J. Ning, J. P. Perdew, and J. Sun.,  J. Phys. Chem. Lett. 11, 9248-9248 (2020)
Using LibXC functional ID 498 : Re-regularized SCAN correlation by Furness et al
[ 1]  J. W. Furness, A. D. Kaplan, J. Ning, J. P. Perdew, and J. Sun.,  J. Phys. Chem. Lett. 11, 8208-8215 (2020)
[ 2]  J. W. Furness, A. D. Kaplan, J. Ning, J. P. Perdew, and J. Sun.,  J. Phys. Chem. Lett. 11, 9248-9248 (2020)
Using LibXC functional ID 497 : Re-regularized SCAN exchange by Furness et al
[ 1]  J. W. Furness, A. D. Kaplan, J. Ning, J. P. Perdew, and J. Sun.,  J. Phys. Chem. Lett. 11, 8208-8215 (2020)
[ 2]  J. W. Furness, A. D. Kaplan, J. Ning, J. P. Perdew, and J. Sun.,  J. Phys. Chem. Lett. 11, 9248-9248 (2020)
Using LibXC functional ID 498 : Re-regularized SCAN correlation by Furness et al
[ 1]  J. W. Furness, A. D. Kaplan, J. Ning, J. P. Perdew, and J. Sun.,  J. Phys. Chem. Lett. 11, 8208-8215 (2020)
[ 2]  J. W. Furness, A. D. Kaplan, J. Ning, J. P. Perdew, and J. Sun.,  J. Phys. Chem. Lett. 11, 9248-9248 (2020)

================================================================================
                                       INPUT FILE
================================================================================
NAME = sp_solv.inp
|  1> ! r2scan-3c def2/J RI DEFGRID2 scfconv6 printgap
|  2> %output
|  3>     printlevel normal
|  4> end
|  5> %cpcm
|  6>     smd true
|  7>     smdsolvent "water"
|  8> end
|  9> * xyz 0 1
| 10> C 1.8116063758 -0.6657517138 -0.5288243789
| 11> C 1.3860140012 0.5577559681 0.2750470254
| 12> C -0.0349057962 0.4308883974 0.827717625
| 13> C -1.1213588116 0.5014958153 -0.2594582085
| 14> C -2.0270972991 -0.7252751396 -0.2605489774
| 15> H 2.822319214 -0.5380950922 -0.9092041866
| 16> H 1.1473231543 -0.8269339865 -1.3740188012
| 17> H 1.7898481484 -1.5549686954 0.097490574
| 18> H 2.0783480472 0.6893047334 1.1100059613
| 19> H 1.4518690683 1.4503955619 -0.3512587383
| 20> H -0.1958933154 1.2253909134 1.5587441642
| 21> H -0.1146099193 -0.518617635 1.3608275384
| 22> H -1.7343137643 1.3926961909 -0.1121390565
| 23> H -0.6534999569 0.5957270961 -1.2408579953
| 24> H -2.7800618685 -0.6434787465 -1.0413919444
| 25> H -2.5353681689 -0.8249735947 0.6960728642
| 26> H -1.4458767857 -1.6275660777 -0.4369832387
| 27> *
| 28> 
| 29>                          ****END OF INPUT****
================================================================================

                       ****************************
                       * Single Point Calculation *
                       ****************************

---------------------------------
CARTESIAN COORDINATES (ANGSTROEM)
---------------------------------
  C      1.811606   -0.665752   -0.528824
  C      1.386014    0.557756    0.275047
  C     -0.034906    0.430888    0.827718
  C     -1.121359    0.501496   -0.259458
  C     -2.027097   -0.725275   -0.260549
  H      2.822319   -0.538095   -0.909204
  H      1.147323   -0.826934   -1.374019
  H      1.789848   -1.554969    0.097491
  H      2.078348    0.689305    1.110006
  H      1.451869    1.450396   -0.351259
  H     -0.195893    1.225391    1.558744
  H     -0.114610   -0.518618    1.360828
  H     -1.734314    1.392696   -0.112139
  H     -0.653500    0.595727   -1.240858
  H     -2.780062   -0.643479   -1.041392
  H     -2.535368   -0.824974    0.696073
  H     -1.445877   -1.627566   -0.436983

----------------------------
CARTESIAN COORDINATES (A.U.)
----------------------------
  NO LB      ZA    FRAG     MASS         X           Y           Z
   0 C     6.0000    0    12.011    3.423440   -1.258088   -0.999333
   1 C     6.0000    0    12.011    2.619187    1.054006    0.519764
   2 C     6.0000    0    12.011   -0.065962    0.814261    1.564160
   3 C     6.0000    0    12.011   -2.119061    0.947690   -0.490305
   4 C     6.0000    0    12.011   -3.830659   -1.370571   -0.492366
   5 H     1.0000    0     1.008    5.333410   -1.016852   -1.718147
   6 H     1.0000    0     1.008    2.168127   -1.562679   -2.596519
   7 H     1.0000    0     1.008    3.382323   -2.938465    0.184230
   8 H     1.0000    0     1.008    3.927509    1.302597    2.097607
   9 H     1.0000    0     1.008    2.743635    2.740850   -0.663783
  10 H     1.0000    0     1.008   -0.370185    2.315653    2.945600
  11 H     1.0000    0     1.008   -0.216581   -0.980045    2.571591
  12 H     1.0000    0     1.008   -3.277378    2.631814   -0.211912
  13 H     1.0000    0     1.008   -1.234936    1.125761   -2.344882
  14 H     1.0000    0     1.008   -5.253556   -1.215999   -1.967946
  15 H     1.0000    0     1.008   -4.791151   -1.558974    1.315387
  16 H     1.0000    0     1.008   -2.732311   -3.075654   -0.825779

--------------------------------
INTERNAL COORDINATES (ANGSTROEM)
--------------------------------
 C      0   0   0     0.000000000000     0.00000000     0.00000000
 C      1   0   0     1.524568513264     0.00000000     0.00000000
 C      2   1   0     1.529886676457   112.53212078     0.00000000
 C      3   2   1     1.538608740090   113.37638292   290.04936055
 C      4   3   2     1.524903398023   112.51971485   123.35018792
 H      1   2   3     1.087439861531   110.46822292   179.71023467
 H      1   2   3     1.087016805246   111.00084487    59.60259189
 H      1   2   3     1.087865194338   110.29357379   299.54905654
 H      2   1   3     1.092606028513   108.82483592   120.68067502
 H      2   1   3     1.092429056702   109.67180370   238.08103492
 H      3   2   1     1.091581893530   108.57501190   167.97413505
 H      3   2   1     1.091842769161   108.43940922    51.84925840
 H      4   3   2     1.091629431655   109.79163481   244.76539787
 H      4   3   2     1.091291429332   109.67441969     2.00958479
 H      5   4   3     1.087824448985   110.55760028   180.15365443
 H      5   4   3     1.087843925783   110.52508681    60.20017068
 H      5   4   3     1.087692636150   110.49261832   300.16961430

---------------------------
INTERNAL COORDINATES (A.U.)
---------------------------
 C      0   0   0     0.000000000000     0.00000000     0.00000000
 C      1   0   0     2.881016962469     0.00000000     0.00000000
 C      2   1   0     2.891066834439   112.53212078     0.00000000
 C      3   2   1     2.907549146027   113.37638292   290.04936055
 C      4   3   2     2.881649802949   112.51971485   123.35018792
 H      1   2   3     2.054963525403   110.46822292   179.71023467
 H      1   2   3     2.054164064884   111.00084487    59.60259189
 H      1   2   3     2.055767287923   110.29357379   299.54905654
 H      2   1   3     2.064726166160   108.82483592   120.68067502
 H      2   1   3     2.064391737904   109.67180370   238.08103492
 H      3   2   1     2.062790831519   108.57501190   167.97413505
 H      3   2   1     2.063283815016   108.43940922    51.84925840
 H      4   3   2     2.062880665556   109.79163481   244.76539787
 H      4   3   2     2.062241933733   109.67441969     2.00958479
 H      5   4   3     2.055690290365   110.55760028   180.15365443
 H      5   4   3     2.055727096179   110.52508681    60.20017068
 H      5   4   3     2.055441200206   110.49261832   300.16961430

---------------------
BASIS SET INFORMATION
---------------------
There are 2 groups of distinct atoms

 Group   1 Type C   : 11s6p1d contracted to 5s3p1d pattern {62111/411/1}
 Group   2 Type H   : 4s1p contracted to 2s1p pattern {31/1}

Atom   0C    basis set group =>   1
Atom   1C    basis set group =>   1
Atom   2C    basis set group =>   1
Atom   3C    basis set group =>   1
Atom   4C    basis set group =>   1
Atom   5H    basis set group =>   2
Atom   6H    basis set group =>   2
Atom   7H    basis set group =>   2
Atom   8H    basis set group =>   2
Atom   9H    basis set group =>   2
Atom  10H    basis set group =>   2
Atom  11H    basis set group =>   2
Atom  12H    basis set group =>   2
Atom  13H    basis set group =>   2
Atom  14H    basis set group =>   2
Atom  15H    basis set group =>   2
Atom  16H    basis set group =>   2
---------------------------------
AUXILIARY/J BASIS SET INFORMATION
---------------------------------
There are 2 groups of distinct atoms

 Group   1 Type C   : 12s5p4d2f1g contracted to 6s4p3d1f1g pattern {711111/2111/211/2/1}
 Group   2 Type H   : 5s2p1d contracted to 3s1p1d pattern {311/2/1}

Atom   0C    basis set group =>   1
Atom   1C    basis set group =>   1
Atom   2C    basis set group =>   1
Atom   3C    basis set group =>   1
Atom   4C    basis set group =>   1
Atom   5H    basis set group =>   2
Atom   6H    basis set group =>   2
Atom   7H    basis set group =>   2
Atom   8H    basis set group =>   2
Atom   9H    basis set group =>   2
Atom  10H    basis set group =>   2
Atom  11H    basis set group =>   2
Atom  12H    basis set group =>   2
Atom  13H    basis set group =>   2
Atom  14H    basis set group =>   2
Atom  15H    basis set group =>   2
Atom  16H    basis set group =>   2

Checking for AutoStart:
The File: sp_solv.gbw exists
Trying to determine its content:
     ... Fine, the file contains calculation information
     ... Fine, the calculation information was read
     ... Fine, the file contains a basis set
     ... Fine, the basis set was read
     ... Fine, the file contains a geometry
     ... Fine, the geometry was read
     ... Fine, the file contains a set of orbitals
     ... Fine, the orbitals can be read
     => possible old guess file was deleted
     => GBW file was renamed to GES file
     => GES file is set as startup file
     => Guess is set to MORead
     ... now leaving AutoStart

------------------------------------------------------------------------------
                             ORCA STARTUP CALCULATIONS
                           -- RI-GTO INTEGRALS CHOSEN --
------------------------------------------------------------------------------
------------------------------------------------------------------------------
                   ___                                                        
                  /   \      - P O W E R E D   B Y -                         
                 /     \                                                     
                 |  |  |   _    _      __       _____    __    __             
                 |  |  |  | |  | |    /  \     |  _  \  |  |  /  |          
                  \  \/   | |  | |   /    \    | | | |  |  | /  /          
                 / \  \   | |__| |  /  /\  \   | |_| |  |  |/  /          
                |  |  |   |  __  | /  /__\  \  |    /   |      \           
                |  |  |   | |  | | |   __   |  |    \   |  |\   \          
                \     /   | |  | | |  |  |  |  | |\  \  |  | \   \       
                 \___/    |_|  |_| |__|  |__|  |_| \__\ |__|  \__/        
                                                                              
                      - O R C A' S   B I G   F R I E N D -                    
                                      &                                       
                       - I N T E G R A L  F E E D E R -                       
                                                                              
 v1 FN, 2020, v2 2021, v3 2022-2024                                           
------------------------------------------------------------------------------


----------------------
SHARK INTEGRAL PACKAGE
----------------------

Number of atoms                             ...     17
Number of basis functions                   ...    155
Number of shells                            ...     81
Maximum angular momentum                    ...      2
Integral batch strategy                     ... SHARK/LIBINT Hybrid
RI-J (if used) integral strategy            ... SPLIT-RIJ (Revised 2003 algorithm where possible)
Printlevel                                  ...      1
Contraction scheme used                     ... SEGMENTED contraction
Prescreening option                         ... SCHWARTZ
   Thresh                                   ... 1.000e-10
   Tcut                                     ... 1.000e-11
   Tpresel                                  ... 1.000e-11 
Coulomb Range Separation                    ... NOT USED
Exchange Range Separation                   ... NOT USED
Multipole approximations                    ... NOT USED
Finite Nucleus Model                        ... NOT USED
CABS basis                                  ... NOT available
Auxiliary Coulomb fitting basis             ... AVAILABLE
   # of basis functions in Aux-J            ...    377
   # of shells in Aux-J                     ...    135
   Maximum angular momentum in Aux-J        ...      4
Auxiliary J/K fitting basis                 ... NOT available
Auxiliary Correlation fitting basis         ... NOT available
Auxiliary 'external' fitting basis          ... NOT available

Checking pre-screening integrals            ... done (  0.0 sec) Dimension = 81
Check shell pair data                       ... done (  0.0 sec)
Shell pair information
Shell pair cut-off parameter TPreSel        ...   1.0e-11
Total number of shell pairs                 ...      3321
Shell pairs after pre-screening             ...      3132
Total number of primitive shell pairs       ...     11471
Primitive shell pairs kept                  ...      8141
          la=0 lb=0:   1153 shell pairs
          la=1 lb=0:   1242 shell pairs
          la=1 lb=1:    356 shell pairs
          la=2 lb=0:    236 shell pairs
          la=2 lb=1:    130 shell pairs
          la=2 lb=2:     15 shell pairs

Calculating one electron integrals          ... done (  0.0 sec)
Calculating RI/J V-Matrix + Cholesky decomp.... done (  0.1 sec)
Calculating Nuclear repulsion               ... done (  0.0 sec) ENN=    189.992825836228 Eh

Diagonalization of the overlap matrix:
Smallest eigenvalue                        ... 2.555e-04
Time for diagonalization                   ...    0.006 sec
Threshold for overlap eigenvalues          ... 1.000e-07
Number of eigenvalues below threshold      ... 0
Time for construction of square roots      ...    0.013 sec
Total time needed                          ...    0.027 sec

-------------------
DFT GRID GENERATION
-------------------

General Integration Accuracy     IntAcc      ... 4.388
Radial Grid Type                 RadialGrid  ... OptM3 with GC (2021)
Angular Grid (max. ang.)         AngularGrid ... 4 (Lebedev-302)
Angular grid pruning method      GridPruning ... 4 (adaptive)
Weight generation scheme         WeightScheme... mBecke (2022)
Basis function cutoff            BFCut       ... 1.0000e-10
Integration weight cutoff        WCut        ... 1.0000e-14
Partially contracted basis set               ... off
Rotationally invariant grid construction     ... off
Angular grids for H and He will be reduced by one unit

Total number of grid points                  ...    68578
Total number of batches                      ...     1081
Average number of points per batch           ...       63
Average number of grid points per atom       ...     4034
Initializing property integral containers    ... done (  0.0 sec)

SHARK setup successfully completed in   1.0 seconds

Maximum memory used throughout the entire STARTUP-calculation: 28.1 MB
-------------------------------------------------------------------------------
                                 ORCA GUESS
                   Start orbitals & Density for SCF / CASSCF
-------------------------------------------------------------------------------

------------
SCF SETTINGS
------------
Hamiltonian:
 Density Functional     Method          .... DFT(GTOs)
  Functional kind                       .... Exchange
  Functional name                       .... Re-regularized SCAN exchange by Furness et al
  Functional family                     .... MGGA
  Functional refs                              
    [ 0] J. W. Furness, A. D. Kaplan, J. Ning, J. P. Perdew, and J. Sun.,  J. Phys. Chem. Lett. 11, 8208-8215 (2020), doi: 10.1021/acs.jpclett.0c02405
    [ 1] J. W. Furness, A. D. Kaplan, J. Ning, J. P. Perdew, and J. Sun.,  J. Phys. Chem. Lett. 11, 9248-9248 (2020), doi: 10.1021/acs.jpclett.0c03077
  Functional external parameters        .... 6
    Parameter  0 _c1        =  6.670000e-01 : c1 parameter        
    Parameter  1 _c2        =  8.000000e-01 : c2 parameter        
    Parameter  2 _d         =  1.240000e+00 : d parameter         
    Parameter  3 _k1        =  6.500000e-02 : k1 parameter        
    Parameter  4 _eta       =  1.000000e-03 : eta parameter       
    Parameter  5 _dp2       =  3.610000e-01 : dp2 parameter       
  Functional kind                       .... Correlation
  Functional name                       .... Re-regularized SCAN correlation by Furness et al
  Functional family                     .... MGGA
  Functional refs                              
    [ 0] J. W. Furness, A. D. Kaplan, J. Ning, J. P. Perdew, and J. Sun.,  J. Phys. Chem. Lett. 11, 8208-8215 (2020), doi: 10.1021/acs.jpclett.0c02405
    [ 1] J. W. Furness, A. D. Kaplan, J. Ning, J. P. Perdew, and J. Sun.,  J. Phys. Chem. Lett. 11, 9248-9248 (2020), doi: 10.1021/acs.jpclett.0c03077
  Functional external parameters        .... 1
    Parameter  0 _eta       =  1.000000e-03 : Regularization parameter
 Gradients option       PostSCFGGA      .... off
 RI-approximation to the Coulomb term is turned on
   Number of AuxJ basis functions       .... 377


General Settings:
 Integral files         IntName         .... sp_solv
 Hartree-Fock type      HFTyp           .... RHF
 Total Charge           Charge          ....    0
 Multiplicity           Mult            ....    1
 Number of Electrons    NEL             ....   42
 Basis Dimension        Dim             ....  155
 Nuclear Repulsion      ENuc            ....    189.9928258362 Eh

Convergence Acceleration:
 AO-DIIS                CNVDIIS         .... on
   Start iteration      DIISMaxIt       ....    12
   Startup error        DIISStart       ....  0.200000
   # of expansion vecs  DIISMaxEq       ....     5
   Bias factor          DIISBfac        ....   1.050
   Max. coefficient     DIISMaxC        ....  10.000
 MO-DIIS                CNVKDIIS        .... off
 Trust-Rad. Augm. Hess. CNVTRAH         .... auto
   Auto Start mean grad. ratio tolernc. ....  1.125000
   Auto Start start iteration           ....     1
   Auto Start num. interpolation iter.  ....    10
   Max. Number of Micro iterations      ....    24
   Max. Number of Macro iterations      .... Maxiter - #DIIS iter
   Number of Davidson start vectors     ....     2
   Converg. threshold    (grad. norm)   ....   3.330e-04
   Grad. Scal. Fac. for Micro threshold ....   0.100
   Minimum threshold for Micro iter.    ....   1.000e-02
   NR start threshold (gradient norm)   ....   1.000e-04
   Initial trust radius                 ....   0.400
   Minimum AH scaling param. (alpha)    ....   1.000
   Maximum AH scaling param. (alpha)    .... 1000.000
   Quad. conv. algorithm                .... NR
   White noise on init. David. guess    .... on
   Maximum white noise                  ....   0.010
   Pseudo random numbers                .... off
   Inactive MOs                         .... canonical
   Orbital update algorithm             .... Taylor
   Preconditioner                       .... Diag
   Full preconditioner red. dimension   ....   250
   COSX micro iterations for RIJONX calc.... off
 SOSCF                  CNVSOSCF        .... on
   Start iteration      SOSCFMaxIt      ....   150
   Startup grad/error   SOSCFStart      ....  0.003300
   Hessian update       SOSCFHessUp     .... L-BFGS
 Level Shifting         CNVShift        .... on
   Level shift para.    LevelShift      ....    0.2500
   Turn off err/grad.   ShiftErr        ....    0.0010
 Zerner damping         CNVZerner       .... off
 Static damping         CNVDamp         .... on
   Fraction old density DampFac         ....    0.7000
   Max. Damping (<1)    DampMax         ....    0.9800
   Min. Damping (>=0)   DampMin         ....    0.0000
   Turn off err/grad.   DampErr         ....    0.1000

SCF Procedure:
 Maximum # iterations   MaxIter         ....   125
 SCF integral mode      SCFMode         .... Direct
   Integral package                     .... SHARK and LIBINT hybrid scheme
 Reset frequency        DirectResetFreq ....    20
 Integral Threshold     Thresh          ....  1.000e-10 Eh
 Primitive CutOff       TCut            ....  1.000e-11 Eh

Convergence Tolerance:
 Convergence Check Mode ConvCheckMode   .... Total+1el-Energy
 Convergence forced     ConvForced      .... 0
 Energy Change          TolE            ....  1.000e-06 Eh
 1-El. energy change                    ....  1.000e-03 Eh
 Orbital Gradient       TolG            ....  3.330e-04
 Orbital Rotation angle TolX            ....  3.330e-04
 DIIS Error             TolErr          ....  1.000e-06

---------------------
INITIAL GUESS: MOREAD
---------------------
Guess MOs are being read from file: sp_solv.ges
Input Geometry matches current geometry (good)
Atom 0: N(Shells)= 9 and 6 - projection required
Input basis set needs projection
NBasis(read)= 94
NBasis(calc)= 155
Basis set overlap was calculated
Using GuessMode=FMatrix for the initial guess
C*T matrix was formed
Effective Fockian was calculated
Effective Fockian was diagonalized
Initial density was built
                      ------------------
                      INITIAL GUESS DONE (   0.0 sec)
                      ------------------
             **** ENERGY FILE WAS UPDATED (sp_solv.en.tmp) ****
Finished Guess after   0.3 sec
Maximum memory used throughout the entire GUESS-calculation: 10.6 MB

-------------------------------------------------------------------------------------------
                                      ORCA LEAN-SCF
                              memory conserving SCF solver
-------------------------------------------------------------------------------------------

--------------------
CPCM SOLVATION MODEL
--------------------
CPCM parameters:
  Epsilon                                         ...      78.3550
  Refrac                                          ...       1.3328
  Rsolv                                           ...       1.3000
  Surface type                                    ... GAUSSIAN VDW
  Discretization scheme                           ... Constant charge density
    Threshold for H atoms                         ...       5.0000 (charges/Ang^2)
    Threshold for non-H atoms                     ...       5.0000 (charges/Ang^2)
  Epsilon function type                           ...         CPCM
Solvent:                                          ... WATER
SMD-CDS solvent descriptors:
  Soln                                            ...       1.3328
  Soln25                                          ...       1.3323
  Sola                                            ...       0.0000
  Solb                                            ...       0.0000
  Solg                                            ...       0.0000
  Solc                                            ...       0.0000
  Solh                                            ...       0.0000
Radii:
  Scheme                                          ... Element-dependent radii
  Radius for C  used is    3.4960 Bohr (=   1.8500 Ang.)
  Radius for H  used is    2.2677 Bohr (=   1.2000 Ang.)
Calculating surface                               ...        done! (  0.0s)
Cavity surface points                             ...         1270
Cavity Volume                                     ...     684.4499
Cavity Surface-area                               ...     464.7433
Calculating surface distance matrix               ...        done! (  0.0s)
Performing Cholesky decomposition & store         ...        done! (  0.1s)
Overall time for CPCM initialization              ...                 0.1s

----------------------------------------D-I-I-S--------------------------------------------
Iteration    Energy (Eh)           Delta-E    RMSDP     MaxDP     DIISErr   Damp  Time(sec)
-------------------------------------------------------------------------------------------
               ***  Starting incremental Fock matrix formation  ***
    1    -197.5824171581190853     0.00e+00  3.93e-03  9.22e-02  2.81e-01  0.700   1.9
    2    -197.6139282202423146    -3.15e-02  3.22e-03  7.50e-02  1.97e-01  0.700   2.3
                               ***Turning on AO-DIIS***
    3    -197.6362705471922254    -2.23e-02  2.42e-03  5.56e-02  1.38e-01  0.700   1.9
    4    -197.6519708700830620    -1.57e-02  1.74e-03  3.97e-02  9.67e-02  0.700   1.7
    5    -197.6629903498290446    -1.10e-02  4.13e-03  9.35e-02  6.76e-02  0.000   1.6
                              *** Initializing SOSCF ***
---------------------------------------S-O-S-C-F--------------------------------------
Iteration    Energy (Eh)           Delta-E    RMSDP     MaxDP     MaxGrad    Time(sec)
--------------------------------------------------------------------------------------
    6    -197.6888116217975266    -2.58e-02  6.58e-05  1.28e-03  2.07e-04     1.7
               *** Restarting incremental Fock matrix formation ***
    7    -197.6888124578626957    -8.36e-07  2.48e-05  3.78e-04  3.38e-05     1.9
                  *** Gradient check signals convergence ***

               *****************************************************
               *                     SUCCESS                       *
               *           SCF CONVERGED AFTER   7 CYCLES          *
               *****************************************************


SMD CDS free energy correction energy :                 3.00044     Kcal/mol
Total Energy after SMD CDS correction =              -197.684030948 Eh
             **** ENERGY FILE WAS UPDATED (sp_solv.en.tmp) ****

----------------
TOTAL SCF ENERGY
----------------

Total Energy       :       -197.68403094770051 Eh           -5379.25596 eV

Components:
Nuclear Repulsion  :        189.99282583622778 Eh            5169.96763 eV
Electronic Energy  :       -387.67976228597581 Eh          -10549.30265 eV
One Electron Energy:       -640.47027252477289 Eh          -17428.08214 eV
Two Electron Energy:        252.79051023879705 Eh            6878.77949 eV
CPCM Dielectric    :         -0.00187600811462 Eh              -0.05105 eV
SMD CDS (Gcds)     :          0.00478151016219 Eh               0.13011 eV

Virial components:
Potential Energy   :       -394.41673100433843 Eh          -10732.62489 eV
Kinetic Energy     :        196.73270005663795 Eh            5353.36893 eV
Virial Ratio       :          2.00483565208422

DFT components:
N(Alpha)           :       20.999986740588 electrons
N(Beta)            :       20.999986740588 electrons
N(Total)           :       41.999973481176 electrons
E(X)               :      -30.291478654477 Eh       
E(C)               :       -1.278705991932 Eh       
E(XC)              :      -31.570184646410 Eh       

CPCM Solvation Model Properties:
Surface-charge          :         -0.04611036641989
Corrected charge        :          0.00000000000000
Outlying charge corr.   :          0.00018076020878 Eh               0.00492 eV
Free-energy (cav+disp)  :          0.00478151016219 Eh               0.13011 eV

---------------
SCF CONVERGENCE
---------------

  Last Energy change         ...    8.3607e-07  Tolerance :   1.0000e-06
  Last MAX-Density change    ...    3.7769e-04  Tolerance :   1.0000e-05
  Last RMS-Density change    ...    2.4828e-05  Tolerance :   1.0000e-06
  Last DIIS Error            ...    2.0678e-04  Tolerance :   1.0000e-06
  Last Orbital Gradient      ...    3.3796e-05  Tolerance :   3.3300e-04
  Last Orbital Rotation      ...    6.9882e-05  Tolerance :   3.3300e-04


----------------
ORBITAL ENERGIES
----------------

  NO   OCC          E(Eh)            E(eV) 
   0   2.0000     -10.014632      -272.5120 
   1   2.0000     -10.013511      -272.4815 
   2   2.0000     -10.011321      -272.4219 
   3   2.0000     -10.006919      -272.3021 
   4   2.0000     -10.006298      -272.2852 
   5   2.0000      -0.760170       -20.6853 
   6   2.0000      -0.706469       -19.2240 
   7   2.0000      -0.635571       -17.2948 
   8   2.0000      -0.565467       -15.3872 
   9   2.0000      -0.524007       -14.2590 
  10   2.0000      -0.427859       -11.6426 
  11   2.0000      -0.408734       -11.1222 
  12   2.0000      -0.391533       -10.6542 
  13   2.0000      -0.373203       -10.1554 
  14   2.0000      -0.350842        -9.5469 
  15   2.0000      -0.330022        -8.9804 
  16   2.0000      -0.313733        -8.5371 
  17   2.0000      -0.308748        -8.4015 
  18   2.0000      -0.283792        -7.7224 
  19   2.0000      -0.273600        -7.4450 
  20   2.0000      -0.272499        -7.4151 
  21   0.0000       0.097683         2.6581 
  22   0.0000       0.112570         3.0632 
  23   0.0000       0.125216         3.4073 
  24   0.0000       0.132274         3.5993 
  25   0.0000       0.144064         3.9202 
  26   0.0000       0.146813         3.9950 
  27   0.0000       0.158332         4.3084 
  28   0.0000       0.176342         4.7985 
  29   0.0000       0.183302         4.9879 
  30   0.0000       0.189603         5.1594 
  31   0.0000       0.194569         5.2945 
*Only the first 10 virtual orbitals were printed.

                    ********************************
                    * MULLIKEN POPULATION ANALYSIS *
                    ********************************

-----------------------
MULLIKEN ATOMIC CHARGES
-----------------------
   0 C :   -0.514101
   1 C :   -0.267963
   2 C :   -0.264579
   3 C :   -0.263345
   4 C :   -0.521006
   5 H :    0.155489
   6 H :    0.155008
   7 H :    0.155085
   8 H :    0.144211
   9 H :    0.147124
  10 H :    0.152788
  11 H :    0.154147
  12 H :    0.149750
  13 H :    0.156592
  14 H :    0.151021
  15 H :    0.154853
  16 H :    0.154927
Sum of atomic charges:   -0.0000000

--------------------------------
MULLIKEN REDUCED ORBITAL CHARGES
--------------------------------
  0 C s       :     3.333396  s :     3.333396
      pz      :     1.058185  p :     3.153566
      px      :     1.105155
      py      :     0.990226
      dz2     :     0.003066  d :     0.027139
      dxz     :     0.006379
      dyz     :     0.007441
      dx2y2   :     0.007749
      dxy     :     0.002504

  1 C s       :     3.227604  s :     3.227604
      pz      :     1.048820  p :     3.003015
      px      :     0.975047
      py      :     0.979147
      dz2     :     0.003889  d :     0.037344
      dxz     :     0.009601
      dyz     :     0.008926
      dx2y2   :     0.009804
      dxy     :     0.005125

  2 C s       :     3.215549  s :     3.215549
      pz      :     0.980267  p :     3.013057
      px      :     0.919046
      py      :     1.113743
      dz2     :     0.004302  d :     0.035973
      dxz     :     0.009093
      dyz     :     0.009130
      dx2y2   :     0.009250
      dxy     :     0.004198

  3 C s       :     3.218995  s :     3.218995
      pz      :     1.010979  p :     3.008075
      px      :     1.004520
      py      :     0.992577
      dz2     :     0.008366  d :     0.036274
      dxz     :     0.008769
      dyz     :     0.003507
      dx2y2   :     0.005760
      dxy     :     0.009873

  4 C s       :     3.347824  s :     3.347824
      pz      :     1.102635  p :     3.145706
      px      :     1.051514
      py      :     0.991557
      dz2     :     0.004946  d :     0.027476
      dxz     :     0.007917
      dyz     :     0.002182
      dx2y2   :     0.005051
      dxy     :     0.007381

  5 H s       :     0.826170  s :     0.826170
      pz      :     0.004653  p :     0.018341
      px      :     0.009973
      py      :     0.003716

  6 H s       :     0.826537  s :     0.826537
      pz      :     0.008092  p :     0.018455
      px      :     0.006516
      py      :     0.003847

  7 H s       :     0.826657  s :     0.826657
      pz      :     0.005977  p :     0.018258
      px      :     0.003672
      py      :     0.008609

  8 H s       :     0.837901  s :     0.837901
      pz      :     0.007792  p :     0.017888
      px      :     0.006498
      py      :     0.003598

  9 H s       :     0.834989  s :     0.834989
      pz      :     0.005968  p :     0.017887
      px      :     0.003456
      py      :     0.008463

 10 H s       :     0.829177  s :     0.829177
      pz      :     0.006924  p :     0.018035
      px      :     0.003683
      py      :     0.007428

 11 H s       :     0.827871  s :     0.827871
      pz      :     0.005290  p :     0.017982
      px      :     0.003502
      py      :     0.009191

 12 H s       :     0.832214  s :     0.832214
      pz      :     0.003679  p :     0.018036
      px      :     0.005851
      py      :     0.008507

 13 H s       :     0.825324  s :     0.825324
      pz      :     0.009530  p :     0.018084
      px      :     0.004871
      py      :     0.003683

 14 H s       :     0.830683  s :     0.830683
      pz      :     0.007427  p :     0.018296
      px      :     0.007225
      py      :     0.003644

 15 H s       :     0.826888  s :     0.826888
      pz      :     0.009290  p :     0.018259
      px      :     0.005251
      py      :     0.003719

 16 H s       :     0.826835  s :     0.826835
      pz      :     0.003875  p :     0.018238
      px      :     0.005617
      py      :     0.008746


------------------------
MULLIKEN OVERLAP CHARGES
------------------------
B(  0-C ,  1-C ) :   0.4405 B(  0-C ,  2-C ) :  -0.2302 B(  0-C ,  5-H ) :   0.7953 
B(  0-C ,  6-H ) :   0.8395 B(  0-C ,  7-H ) :   0.8536 B(  0-C ,  8-H ) :  -0.0686 
B(  0-C ,  9-H ) :  -0.0657 B(  1-C ,  2-C ) :   0.3921 B(  1-C ,  5-H ) :  -0.0750 
B(  1-C ,  6-H ) :  -0.0812 B(  1-C ,  7-H ) :  -0.0961 B(  1-C ,  8-H ) :   0.8527 
B(  1-C ,  9-H ) :   0.8543 B(  1-C , 10-H ) :  -0.0604 B(  1-C , 11-H ) :  -0.0969 
B(  2-C ,  3-C ) :   0.2128 B(  2-C ,  4-C ) :  -0.0750 B(  2-C ,  8-H ) :  -0.1017 
B(  2-C ,  9-H ) :  -0.0907 B(  2-C , 10-H ) :   0.7868 B(  2-C , 11-H ) :   0.9099 
B(  2-C , 13-H ) :  -0.1745 B(  3-C ,  4-C ) :   0.3850 B(  3-C , 11-H ) :  -0.1756 
B(  3-C , 12-H ) :   0.8023 B(  3-C , 13-H ) :   0.9037 B(  3-C , 14-H ) :  -0.0842 
B(  3-C , 15-H ) :  -0.0789 B(  3-C , 16-H ) :  -0.1027 B(  4-C , 13-H ) :  -0.0675 
B(  4-C , 14-H ) :   0.8124 B(  4-C , 15-H ) :   0.8452 B(  4-C , 16-H ) :   0.8558 
B(  6-H ,  7-H ) :  -0.0512 B( 15-H , 16-H ) :  -0.0501 


                     *******************************
                     * LOEWDIN POPULATION ANALYSIS *
                     *******************************

----------------------
LOEWDIN ATOMIC CHARGES
----------------------
   0 C :   -0.436150
   1 C :   -0.319824
   2 C :   -0.317439
   3 C :   -0.324125
   4 C :   -0.434444
   5 H :    0.152127
   6 H :    0.151739
   7 H :    0.151824
   8 H :    0.152079
   9 H :    0.152564
  10 H :    0.156494
  11 H :    0.155985
  12 H :    0.153456
  13 H :    0.153753
  14 H :    0.150517
  15 H :    0.151027
  16 H :    0.150417

-------------------------------
LOEWDIN REDUCED ORBITAL CHARGES
-------------------------------
  0 C s       :     2.974127  s :     2.974127
      pz      :     1.139721  p :     3.398821
      px      :     1.148078
      py      :     1.111022
      dz2     :     0.006354  d :     0.063202
      dxz     :     0.015467
      dyz     :     0.017911
      dx2y2   :     0.018425
      dxy     :     0.005045

  1 C s       :     2.941640  s :     2.941640
      pz      :     1.120278  p :     3.297633
      px      :     1.078225
      py      :     1.099130
      dz2     :     0.007403  d :     0.080551
      dxz     :     0.021301
      dyz     :     0.020528
      dx2y2   :     0.021805
      dxy     :     0.009514

  2 C s       :     2.939977  s :     2.939977
      pz      :     1.101545  p :     3.300088
      px      :     1.056219
      py      :     1.142324
      dz2     :     0.007933  d :     0.077373
      dxz     :     0.019661
      dyz     :     0.021255
      dx2y2   :     0.021459
      dxy     :     0.007065

  3 C s       :     2.939575  s :     2.939575
      pz      :     1.112496  p :     3.306627
      px      :     1.085111
      py      :     1.109020
      dz2     :     0.018906  d :     0.077923
      dxz     :     0.019928
      dyz     :     0.005864
      dx2y2   :     0.010986
      dxy     :     0.022239

  4 C s       :     2.977382  s :     2.977382
      pz      :     1.159139  p :     3.393222
      px      :     1.127149
      py      :     1.106935
      dz2     :     0.012370  d :     0.063840
      dxz     :     0.019193
      dyz     :     0.004078
      dx2y2   :     0.010482
      dxy     :     0.017716

  5 H s       :     0.804057  s :     0.804057
      pz      :     0.010680  p :     0.043816
      px      :     0.024708
      py      :     0.008428

  6 H s       :     0.803920  s :     0.803920
      pz      :     0.019911  p :     0.044341
      px      :     0.015707
      py      :     0.008722

  7 H s       :     0.804527  s :     0.804527
      pz      :     0.014475  p :     0.043649
      px      :     0.008108
      py      :     0.021066

  8 H s       :     0.804724  s :     0.804724
      pz      :     0.019047  p :     0.043198
      px      :     0.015867
      py      :     0.008283

  9 H s       :     0.804272  s :     0.804272
      pz      :     0.014497  p :     0.043164
      px      :     0.007974
      py      :     0.020693

 10 H s       :     0.799738  s :     0.799738
      pz      :     0.016679  p :     0.043768
      px      :     0.008896
      py      :     0.018193

 11 H s       :     0.800275  s :     0.800275
      pz      :     0.012787  p :     0.043741
      px      :     0.008023
      py      :     0.022930

 12 H s       :     0.802993  s :     0.802993
      pz      :     0.008613  p :     0.043551
      px      :     0.014202
      py      :     0.020736

 13 H s       :     0.802337  s :     0.802337
      pz      :     0.023758  p :     0.043910
      px      :     0.011416
      py      :     0.008736

 14 H s       :     0.805838  s :     0.805838
      pz      :     0.017995  p :     0.043645
      px      :     0.017406
      py      :     0.008245

 15 H s       :     0.805399  s :     0.805399
      pz      :     0.023042  p :     0.043574
      px      :     0.012221
      py      :     0.008311

 16 H s       :     0.805892  s :     0.805892
      pz      :     0.008614  p :     0.043691
      px      :     0.013550
      py      :     0.021528


---------------------------------
LOEWDIN BOND ORDERS (THRESH 0.050000)
---------------------------------
B(  0-C ,  1-C ) :   1.1425 B(  0-C ,  2-C ) :   0.0646 B(  0-C ,  5-H ) :   0.9307 
B(  0-C ,  6-H ) :   0.9262 B(  0-C ,  7-H ) :   0.9300 B(  1-C ,  2-C ) :   1.1161 
B(  1-C ,  3-C ) :   0.0683 B(  1-C ,  8-H ) :   0.8960 B(  1-C ,  9-H ) :   0.8953 
B(  2-C ,  3-C ) :   1.0871 B(  2-C ,  4-C ) :   0.0741 B(  2-C , 10-H ) :   0.8971 
B(  2-C , 11-H ) :   0.8898 B(  3-C ,  4-C ) :   1.1473 B(  3-C , 12-H ) :   0.9020 
B(  3-C , 13-H ) :   0.8938 B(  4-C , 14-H ) :   0.9306 B(  4-C , 15-H ) :   0.9299 
B(  4-C , 16-H ) :   0.9301 

------------------------------------------
LOEWDIN REDUCED ORBITAL POPULATIONS PER MO
-------------------------------------------
THRESHOLD FOR PRINTING IS 0.1%%
                      0         1         2         3         4         5   
                 -10.01463 -10.01351 -10.01132 -10.00692 -10.00630  -0.76017
                   2.00000   2.00000   2.00000   2.00000   2.00000   2.00000
                  --------  --------  --------  --------  --------  --------
 0 C  s               0.0       0.0       0.0       0.0      99.7       7.6
 0 C  pz              0.0       0.0       0.0       0.0       0.0       0.6
 0 C  px              0.0       0.0       0.0       0.0       0.0       0.4
 0 C  py              0.1       0.0       0.0       0.0       0.0       1.2
 1 C  s              99.6       0.0       0.1       0.0       0.0      16.9
 1 C  px              0.0       0.0       0.1       0.0       0.0       1.6
 1 C  py              0.0       0.0       0.0       0.0       0.1       0.5
 2 C  s               0.1       0.1      99.6       0.0       0.0      20.7
 2 C  pz              0.0       0.0       0.0       0.0       0.0       1.7
 3 C  s               0.0      99.6       0.1       0.0       0.0      16.2
 3 C  pz              0.0       0.0       0.0       0.0       0.0       0.8
 3 C  px              0.0       0.0       0.0       0.0       0.0       0.7
 3 C  py              0.0       0.0       0.0       0.1       0.0       0.4
 4 C  s               0.0       0.0       0.0      99.7       0.0       6.8
 4 C  px              0.0       0.0       0.0       0.0       0.0       0.9
 4 C  py              0.0       0.1       0.0       0.0       0.0       1.1
 5 H  s               0.0       0.0       0.0       0.0       0.0       0.9
 6 H  s               0.0       0.0       0.0       0.0       0.0       1.0
 7 H  s               0.0       0.0       0.0       0.0       0.0       1.0
 8 H  s               0.0       0.0       0.0       0.0       0.0       2.2
 8 H  pz              0.0       0.0       0.0       0.0       0.0       0.1
 9 H  s               0.0       0.0       0.0       0.0       0.0       2.2
 9 H  py              0.0       0.0       0.0       0.0       0.0       0.1
10 H  s               0.0       0.0       0.0       0.0       0.0       2.6
10 H  pz              0.0       0.0       0.0       0.0       0.0       0.1
10 H  py              0.0       0.0       0.0       0.0       0.0       0.1
11 H  s               0.0       0.0       0.0       0.0       0.0       2.8
11 H  py              0.0       0.0       0.0       0.0       0.0       0.2
12 H  s               0.0       0.0       0.0       0.0       0.0       2.0
12 H  py              0.0       0.0       0.0       0.0       0.0       0.1
13 H  s               0.0       0.0       0.0       0.0       0.0       2.2
13 H  pz              0.0       0.0       0.0       0.0       0.0       0.2
14 H  s               0.0       0.0       0.0       0.0       0.0       0.9
15 H  s               0.0       0.0       0.0       0.0       0.0       0.9
16 H  s               0.0       0.0       0.0       0.0       0.0       0.9

                      6         7         8         9        10        11   
                  -0.70647  -0.63557  -0.56547  -0.52401  -0.42786  -0.40873
                   2.00000   2.00000   2.00000   2.00000   2.00000   2.00000
                  --------  --------  --------  --------  --------  --------
 0 C  s              14.8      16.7       6.0       2.3       0.2       0.1
 0 C  pz              0.3       0.3       1.7       0.4       0.3      19.0
 0 C  px              0.0       0.3       0.1       0.0       9.7       0.0
 0 C  py              0.7       0.3       2.9       5.1       0.1       1.2
 1 C  s              12.7       0.1       8.7       7.1       0.1       0.1
 1 C  pz              0.4       3.4       2.0       0.8       3.4      12.7
 1 C  px              0.8       5.2       0.2       2.6       7.2       2.8
 1 C  py              1.0       2.4       2.5       4.3       0.9      10.9
 1 C  dx2y2           0.0       0.2       0.0       0.0       0.0       0.0
 2 C  s               0.0      15.1       0.0       8.7       0.1       0.3
 2 C  pz              0.2       0.5       1.2       7.2       8.2       0.4
 2 C  px              7.3       0.0       6.8       0.8       1.6       1.0
 2 C  py              0.0       0.4       0.0       2.2       6.1      12.0
 2 C  dxz             0.1       0.0       0.2       0.0       0.0       0.0
 2 C  dx2y2           0.0       0.0       0.0       0.2       0.0       0.0
 3 C  s              13.1       0.1      10.2       5.6       0.1       0.7
 3 C  pz              0.0       2.0       0.1       6.3       4.8       1.7
 3 C  px              2.0       4.8       0.7       0.4      11.4       1.4
 3 C  py              1.2       2.3       3.5       2.6       7.0       1.3
 3 C  dxz             0.0       0.1       0.0       0.1       0.0       0.0
 4 C  s              17.3      13.2       9.5       0.8       0.0       0.2
 4 C  pz              0.0       0.1       0.0       0.9       1.7       0.4
 4 C  px              0.3       0.3       2.1       0.2       5.4       2.1
 4 C  py              0.8       0.3       4.3       2.8       3.6       2.3
 5 H  s               2.6       4.4       2.3       0.8       3.0       1.2
 5 H  px              0.2       0.3       0.1       0.0       0.1       0.1
 6 H  s               2.3       4.0       3.0       1.2       1.2       4.5
 6 H  pz              0.1       0.2       0.1       0.1       0.0       0.0
 6 H  px              0.1       0.1       0.1       0.0       0.0       0.1
 7 H  s               2.4       3.9       2.3       2.2       0.4       3.3
 7 H  pz              0.1       0.1       0.1       0.1       0.0       0.0
 7 H  py              0.2       0.2       0.1       0.1       0.0       0.1
 8 H  s               2.2       0.0       4.2       3.1       3.1       4.9
 8 H  pz              0.1       0.0       0.2       0.2       0.1       0.1
 8 H  px              0.1       0.0       0.2       0.0       0.0       0.1
 8 H  py              0.0       0.0       0.0       0.0       0.0       0.1
 9 H  s               2.0       0.0       2.9       6.0       0.0       6.2
 9 H  pz              0.1       0.0       0.1       0.1       0.0       0.0
 9 H  py              0.1       0.0       0.1       0.2       0.0       0.1
10 H  s               0.0       4.2       0.0       4.1       4.8       2.9
10 H  pz              0.0       0.2       0.0       0.1       0.1       0.1
10 H  py              0.0       0.2       0.0       0.2       0.1       0.0
11 H  s               0.0       2.9       0.1       7.8       0.1       2.4
11 H  py              0.0       0.2       0.0       0.4       0.0       0.0
12 H  s               2.3       0.0       4.2       3.3       6.7       0.1
12 H  px              0.1       0.0       0.1       0.1       0.0       0.0
12 H  py              0.2       0.0       0.2       0.1       0.2       0.0
13 H  s               1.9       0.0       3.8       5.0       2.8       0.4
13 H  pz              0.1       0.0       0.3       0.2       0.1       0.0
14 H  s               2.9       3.5       3.8       0.1       0.2       0.3
14 H  pz              0.1       0.2       0.2       0.0       0.0       0.0
14 H  px              0.1       0.1       0.1       0.0       0.0       0.0
15 H  s               2.9       3.0       3.9       1.0       1.4       1.2
15 H  pz              0.2       0.2       0.2       0.0       0.0       0.0
16 H  s               2.9       3.2       3.8       0.9       2.8       0.2
16 H  px              0.1       0.1       0.1       0.0       0.0       0.0
16 H  py              0.2       0.2       0.1       0.0       0.1       0.0

                     12        13        14        15        16        17   
                  -0.39153  -0.37320  -0.35084  -0.33002  -0.31373  -0.30875
                   2.00000   2.00000   2.00000   2.00000   2.00000   2.00000
                  --------  --------  --------  --------  --------  --------
 0 C  s               0.1       0.1       0.0       0.1       0.3       0.0
 0 C  pz              0.0       1.1       7.6       9.3       1.1       7.0
 0 C  px              1.1      19.4       0.0      12.0       9.2       0.3
 0 C  py              6.1       0.1      12.6       6.5       8.1       3.5
 0 C  dz2             0.0       0.0       0.0       0.1       0.0       0.0
 0 C  dxz             0.0       0.0       0.0       0.4       0.0       0.0
 0 C  dyz             0.0       0.0       0.1       0.0       0.2       0.1
 0 C  dx2y2           0.0       0.1       0.1       0.0       0.1       0.2
 1 C  s               0.2       0.4       0.0       0.1       0.1       0.0
 1 C  pz              3.8       1.3       2.0       4.9       2.2       6.2
 1 C  px              4.5       5.1       0.3       0.4       4.0       0.0
 1 C  py              0.0       3.6       0.6       6.5       7.3       2.9
 1 C  dz2             0.0       0.0       0.1       0.1       0.0       0.1
 1 C  dyz             0.0       0.0       0.0       0.0       0.2       0.1
 1 C  dx2y2           0.0       0.0       0.0       0.0       0.1       0.2
 2 C  s               0.3       0.1       0.2       0.8       0.2       0.1
 2 C  pz              1.4       2.2       6.0       4.8       2.8       0.8
 2 C  px              6.9       1.5       0.0       0.5       3.0       3.3
 2 C  py              6.4       0.6       9.1       0.2       0.5       0.7
 2 C  dxy             0.0       0.0       0.0       0.1       0.2       0.0
 3 C  s               0.4       0.1       0.1       0.0       0.1       0.2
 3 C  pz             11.1       2.1       1.0       0.2       1.8       8.4
 3 C  px              0.0       2.7       4.2       6.8       1.7       1.3
 3 C  py              3.9       2.9       2.1       3.2       7.4       6.5
 3 C  dxz             0.0       0.0       0.0       0.1       0.0       0.3
 3 C  dx2y2           0.0       0.1       0.0       0.1       0.2       0.0
 3 C  dxy             0.0       0.0       0.0       0.0       0.2       0.1
 4 C  s               0.1       0.0       0.0       0.1       0.1       0.2
 4 C  pz             21.2       6.6       7.0       1.4       3.7      10.4
 4 C  px              6.2      13.2       1.3       9.7       3.3       1.4
 4 C  py              0.2       4.0      11.7       2.3      10.2       6.1
 4 C  dz2             0.0       0.1       0.0       0.1       0.1       0.1
 4 C  dxz             0.1       0.0       0.1       0.1       0.0       0.3
 4 C  dx2y2           0.0       0.0       0.0       0.1       0.1       0.0
 4 C  dxy             0.0       0.0       0.1       0.0       0.2       0.0
 5 H  s               0.4       9.0       1.0       3.8       4.1       1.6
 5 H  pz              0.0       0.0       0.0       0.2       0.0       0.0
 5 H  px              0.0       0.1       0.1       0.0       0.0       0.0
 5 H  py              0.0       0.0       0.1       0.0       0.1       0.0
 6 H  s               0.8       1.2       1.1      13.3       0.5       1.7
 6 H  pz              0.0       0.1       0.0       0.1       0.1       0.0
 6 H  py              0.0       0.0       0.1       0.0       0.1       0.0
 7 H  s               1.9       0.3       9.8       0.1       1.2       6.6
 7 H  px              0.0       0.1       0.0       0.1       0.1       0.0
 7 H  py              0.0       0.0       0.1       0.0       0.0       0.1
 8 H  s               0.0       1.8       0.4       4.0       0.0       2.2
 9 H  s               1.1       0.1       0.0       0.6       0.8       5.6
10 H  s               3.2       1.8       0.0       0.5       1.8       0.1
11 H  s               0.8       0.1       7.6       0.0       0.0       0.5
11 H  py              0.0       0.0       0.2       0.0       0.0       0.0
12 H  s               0.2       2.2       0.1       0.0       6.6       0.9
12 H  pz              0.1       0.0       0.0       0.0       0.0       0.1
13 H  s               2.7       1.5       0.0       0.1       1.5       7.6
14 H  s              10.6       0.3       4.3       4.6       0.0       2.5
14 H  px              0.2       0.0       0.1       0.0       0.0       0.1
15 H  s               2.5       6.1       2.4       0.1       3.6       7.9
15 H  pz              0.0       0.1       0.0       0.0       0.0       0.1
15 H  px              0.2       0.0       0.1       0.1       0.0       0.0
16 H  s               0.0       6.6       5.0       0.1       9.6       0.3
16 H  pz              0.1       0.0       0.1       0.0       0.0       0.1
16 H  py              0.0       0.2       0.0       0.0       0.1       0.0

                     18        19        20        21        22        23   
                  -0.28379  -0.27360  -0.27250   0.09768   0.11257   0.12522
                   2.00000   2.00000   2.00000   0.00000   0.00000   0.00000
                  --------  --------  --------  --------  --------  --------
 0 C  s               0.2       0.4       0.0      14.2       0.4       8.7
 0 C  pz              1.4       6.7       0.2       1.0       3.2       4.7
 0 C  px              0.1       0.7       4.0       1.3       1.1       6.8
 0 C  py              4.2       2.8       0.1       1.0       4.8       0.2
 0 C  dz2             0.0       0.0       0.1       0.0       0.0       0.3
 0 C  dxz             0.0       0.0       0.2       0.0       0.0       0.1
 0 C  dyz             0.2       0.0       0.0       0.1       0.5       0.0
 0 C  dx2y2           0.2       0.1       0.0       0.4       0.1       0.1
 0 C  dxy             0.0       0.0       0.0       0.1       0.1       0.2
 1 C  s               0.4       0.0       0.3       5.7      13.1       1.1
 1 C  pz              6.1       5.5       1.3       0.0       1.8       2.0
 1 C  px              1.7       0.8      16.6       1.1       0.4       1.7
 1 C  py              9.0       2.4       0.0       0.8       3.3       7.5
 1 C  dz2             0.0       0.0       0.0       0.0       0.0       0.3
 1 C  dxz             0.0       0.1       0.6       0.2       0.0       0.1
 1 C  dyz             0.4       0.1       0.0       0.0       0.0       1.1
 1 C  dx2y2           0.3       0.2       0.0       0.0       0.1       0.0
 1 C  dxy             0.1       0.2       0.0       0.0       0.0       0.0
 2 C  s               0.5       0.2       0.0       6.0       2.7       1.1
 2 C  pz              6.8      10.0       0.6       3.0       0.4       5.2
 2 C  px              1.2       0.2      18.3       0.3       9.2       0.1
 2 C  py             10.4       8.3       0.0       0.0       0.3       0.0
 2 C  dz2             0.0       0.1       0.1       0.0       0.1       0.0
 2 C  dxz             0.0       0.1       0.4       0.1       0.6       0.0
 2 C  dyz             0.4       0.5       0.0       0.2       0.1       0.1
 2 C  dx2y2           0.5       0.2       0.0       0.3       0.9       1.1
 2 C  dxy             0.0       0.0       0.0       0.0       0.0       0.1
 3 C  s               0.4       0.1       0.1      10.8       0.8       0.3
 3 C  pz              4.4       9.8       1.0       0.8       0.3       7.0
 3 C  px              0.0       0.3      15.7       0.2       7.8       3.8
 3 C  py              5.6       5.0       0.6       1.1       4.4       1.1
 3 C  dz2             0.1       0.2       0.4       0.1       1.2       0.2
 3 C  dxz             0.1       0.2       0.1       0.1       0.0       0.6
 3 C  dx2y2           0.0       0.0       0.1       0.0       0.2       0.0
 3 C  dxy             0.2       0.3       0.0       0.1       0.5       0.3
 4 C  s               0.5       0.1       0.1      11.1      14.6       5.2
 4 C  pz              0.3       3.7       0.5       0.1       1.6       2.0
 4 C  px              1.5       0.3       8.1       0.9       1.9       0.3
 4 C  py              3.3       2.5       0.0       2.9       0.9       1.4
 4 C  dxz             0.0       0.2       0.1       0.0       0.1       0.0
 4 C  dyz             0.0       0.1       0.0       0.0       0.0       0.3
 4 C  dx2y2           0.0       0.0       0.3       0.1       0.1       0.0
 4 C  dxy             0.1       0.1       0.0       0.4       0.0       0.0
 5 H  s               0.8       1.2       2.9       3.3       0.1       0.9
 5 H  px              0.0       0.0       0.0       0.9       0.0       0.2
 5 H  py              0.0       0.0       0.0       0.2       0.3       0.0
 6 H  s               0.4       1.0       2.9       2.4       0.6       2.9
 6 H  pz              0.0       0.0       0.0       0.3       0.2       1.4
 6 H  px              0.0       0.1       0.0       1.0       0.0       0.2
 6 H  py              0.0       0.0       0.0       0.0       0.2       0.1
 7 H  s               4.6       0.3       0.0       1.1       0.4       1.3
 7 H  pz              0.0       0.0       0.0       0.5       0.2       0.4
 7 H  px              0.0       0.0       0.0       0.1       0.1       0.4
 7 H  py              0.0       0.1       0.0       0.2       0.0       0.2
 8 H  s               0.8       2.2       9.2       1.4       0.8       0.5
 8 H  pz              0.0       0.0       0.1       0.4       0.9       0.2
 8 H  px              0.1       0.1       0.0       0.3       0.3       0.0
 8 H  py              0.1       0.0       0.0       0.0       0.0       0.8
 9 H  s              12.5       0.0       0.4       0.7       1.2       4.1
 9 H  pz              0.0       0.1       0.0       0.2       0.3       1.3
 9 H  px              0.0       0.0       0.2       0.0       0.0       0.1
 9 H  py              0.0       0.0       0.0       0.2       0.9       0.0
10 H  s               0.4      13.2       0.0       3.1       0.2       2.4
10 H  pz              0.1       0.0       0.0       0.2       0.0       0.0
10 H  px              0.0       0.0       0.2       0.0       0.4       0.1
10 H  py              0.0       0.1       0.0       1.0       0.4       0.6
11 H  s              13.8       1.1       0.1       1.4       2.7       1.5
11 H  pz              0.0       0.2       0.0       0.0       0.1       0.2
11 H  px              0.0       0.0       0.2       0.0       0.3       0.1
11 H  py              0.1       0.0       0.0       0.9       0.6       0.6
12 H  s               1.2       5.7       4.6       2.6       0.0       0.9
12 H  pz              0.1       0.0       0.0       0.1       0.0       0.3
12 H  px              0.0       0.0       0.0       0.4       0.5       0.1
12 H  py              0.0       0.0       0.1       0.7       0.1       0.1
13 H  s               3.2       6.1       1.2       1.2       2.8       7.3
13 H  pz              0.0       0.0       0.1       0.6       0.8       0.8
13 H  px              0.0       0.0       0.1       0.4       0.0       0.9
13 H  py              0.1       0.1       0.0       0.0       0.3       0.1
14 H  s               0.0       1.8       4.3       1.3       0.6       0.8
14 H  pz              0.0       0.0       0.0       0.3       0.5       0.1
14 H  px              0.0       0.0       0.0       0.2       0.2       0.2
14 H  py              0.0       0.0       0.0       0.3       0.0       0.1
15 H  s               0.6       2.6       0.3       1.0       2.3       0.3
15 H  pz              0.0       0.0       0.0       0.5       0.9       0.3
15 H  px              0.0       0.0       0.1       0.0       0.3       0.2
15 H  py              0.0       0.0       0.0       0.2       0.0       0.1
16 H  s               0.2       1.4       2.4       3.6       1.0       0.9
16 H  pz              0.0       0.0       0.0       0.0       0.2       0.1
16 H  px              0.0       0.0       0.0       1.2       0.1       0.3
16 H  py              0.0       0.0       0.0       0.3       0.8       0.2

                     24        25        26        27        28        29   
                   0.13227   0.14406   0.14681   0.15833   0.17634   0.18330
                   0.00000   0.00000   0.00000   0.00000   0.00000   0.00000
                  --------  --------  --------  --------  --------  --------
 0 C  s               9.6       3.1       1.8       1.1       0.5       0.3
 0 C  pz              0.6       0.1       2.3       2.3       1.6      15.4
 0 C  px              1.4       0.3       0.3       2.7      20.6       1.0
 0 C  py              1.1       7.4       6.0      12.0       0.7       5.3
 0 C  dz2             0.1       0.0       0.0       0.2       0.0       0.0
 0 C  dxz             0.0       0.1       0.0       0.2       0.3       1.2
 0 C  dyz             0.0       0.1       0.1       0.7       0.2       0.6
 0 C  dx2y2           0.0       0.2       0.3       0.2       0.1       0.1
 0 C  dxy             0.1       0.1       0.1       0.4       0.2       0.0
 1 C  s               1.6       1.4       0.9       4.3       0.9       1.3
 1 C  pz              1.6       1.1       3.0       3.9       0.8       5.2
 1 C  px             13.9       3.6       2.2       0.1       5.1       5.1
 1 C  py              0.1       1.6       5.3       1.9       0.7       8.0
 1 C  dz2             0.0       0.1       0.5       0.0       0.1       0.0
 1 C  dxz             0.2       0.1       0.1       0.6       0.4       0.2
 1 C  dyz             0.1       0.0       0.0       0.0       0.1       0.3
 1 C  dx2y2           0.4       0.6       0.0       0.3       0.1       0.8
 1 C  dxy             0.6       0.2       0.1       0.3       0.1       0.0
 2 C  s               4.6       3.1       7.1       1.0       2.3       2.0
 2 C  pz              3.0       7.0      15.5       2.3       0.3       0.6
 2 C  px              7.6       0.0       0.4       1.9       2.4       0.6
 2 C  py              1.3       9.5       4.0       4.2       4.8       0.6
 2 C  dz2             0.2       0.2       0.1       0.3       0.0       0.1
 2 C  dxz             0.2       0.0       0.1       0.6       0.3       0.3
 2 C  dyz             0.9       0.9       0.3       0.4       0.0       0.2
 2 C  dx2y2           0.1       0.6       0.1       0.1       0.0       0.0
 2 C  dxy             0.2       0.0       0.0       0.0       0.0       0.1
 3 C  s               4.5       2.5       8.8       2.1       0.2       1.4
 3 C  pz              1.1       3.3       4.5       4.6       8.7       0.1
 3 C  px              0.2       0.1       1.3       2.5       4.2       0.3
 3 C  py              6.3       5.9       3.5       1.6       2.5       5.4
 3 C  dz2             0.1       0.0       0.0       0.4       0.2       0.0
 3 C  dxz             0.0       0.7       0.1       0.0       0.7       0.1
 3 C  dyz             0.0       0.0       0.1       0.0       0.3       0.3
 3 C  dx2y2           0.1       0.1       0.0       0.1       0.0       0.1
 3 C  dxy             0.6       1.3       0.2       0.3       0.0       0.1
 4 C  s               0.5       1.2       1.3       6.6       0.4       0.1
 4 C  pz              1.2       0.4       3.4       2.1       2.2       3.0
 4 C  px              6.0      12.1       0.6       1.2       7.1       0.0
 4 C  py              1.9       4.5       7.5      10.6       2.4       6.3
 4 C  dz2             0.8       0.1       0.1       0.1       0.0       0.1
 4 C  dxz             0.3       0.0       0.0       0.0       0.5       1.0
 4 C  dyz             0.0       0.1       0.0       0.1       0.3       0.0
 4 C  dx2y2           0.1       0.0       0.0       0.2       0.0       0.0
 4 C  dxy             0.2       0.9       0.2       0.0       0.2       0.1
 5 H  s               2.2       0.3       0.0       0.3       1.1       1.0
 5 H  pz              0.1       0.0       0.1       0.2       0.6       0.8
 5 H  px              0.9       0.0       0.0       0.2       0.4       0.0
 5 H  py              0.2       0.0       0.0       0.5       0.0       0.1
 6 H  s               0.4       0.5       0.3       0.8       3.6       3.1
 6 H  pz              0.1       0.4       0.0       0.1       0.3       0.0
 6 H  px              0.3       0.0       0.1       0.1       0.7       0.3
 6 H  py              0.1       0.1       0.0       0.3       0.2       0.3
 7 H  s               0.8       1.0       2.5       0.4       1.7       0.4
 7 H  pz              0.1       0.1       0.3       0.4       0.0       0.3
 7 H  px              0.1       0.0       0.0       0.0       0.0       0.4
 7 H  py              0.6       0.6       1.0       0.3       0.3       0.0
 8 H  s               0.3       0.8       0.7       1.4       3.6       5.0
 8 H  pz              0.0       0.8       0.3       0.0       0.5       0.8
 8 H  px              0.5       0.1       0.0       0.1       0.6       1.4
 9 H  s               0.0       1.3       0.5       1.1       0.3       3.8
 9 H  pz              0.1       0.1       0.0       0.0       0.1       0.2
 9 H  px              1.0       0.0       0.2       0.0       0.0       0.1
 9 H  py              0.0       0.3       0.9       0.9       0.0       0.8
10 H  s               2.5       2.3       0.3       4.5       0.3       1.4
10 H  pz              0.0       2.0       0.3       0.9       0.2       0.1
10 H  px              0.2       0.0       0.0       0.5       0.0       0.0
10 H  py              0.0       0.1       0.0       0.5       0.3       0.4
11 H  s               3.3       5.9       2.3       0.5       0.3       0.5
11 H  pz              0.6       0.0       1.5       0.1       0.0       0.1
11 H  px              0.7       0.0       0.0       0.0       0.3       0.0
11 H  py              0.6       0.6       1.0       0.0       0.0       0.1
12 H  s               1.0       2.6       1.6       3.6       0.9       0.5
12 H  pz              0.0       0.4       0.0       0.0       0.9       0.0
12 H  px              0.0       0.3       0.5       0.3       0.0       0.2
12 H  py              0.3       0.0       0.9       1.4       0.0       0.0
13 H  s               1.5       0.9       0.2       1.2       0.1       0.6
13 H  pz              0.5       0.0       0.9       0.3       0.1       0.1
13 H  px              0.1       0.1       0.0       0.0       0.4       0.0
13 H  py              0.3       0.3       0.0       0.0       0.4       0.3
14 H  s               2.9       0.1       0.1       0.7       3.9       3.7
14 H  pz              0.6       0.0       0.0       0.2       0.8       0.1
14 H  px              0.0       0.3       0.0       0.3       0.3       0.5
14 H  py              0.1       0.7       0.1       0.0       0.0       0.0
15 H  s               0.8       0.3       0.5       0.2       0.3       2.7
15 H  pz              0.6       0.0       0.2       0.0       0.2       0.3
15 H  px              0.4       0.2       0.0       0.0       0.1       0.4
15 H  py              0.0       0.1       0.0       0.0       0.5       0.1
16 H  s               1.0       0.8       0.3       1.8       1.9       0.4
16 H  pz              0.0       0.1       0.0       0.0       0.7       0.4
16 H  px              0.0       0.4       0.0       0.1       0.3       0.0
16 H  py              0.3       0.0       0.3       1.2       0.1       0.1

                     30        31        32        33        34        35   
                   0.18960   0.19457   0.20670   0.20852   0.21723   0.22339
                   0.00000   0.00000   0.00000   0.00000   0.00000   0.00000
                  --------  --------  --------  --------  --------  --------
 0 C  s               0.1       0.3       0.3       1.3       0.1       1.8
 0 C  pz              3.9       0.6       6.5       1.7       5.8       1.8
 0 C  px              5.8       4.2       5.0       1.5       6.9       1.4
 0 C  py              2.7       0.1      10.2       2.7       2.8       4.1
 0 C  dz2             0.1       0.6       0.0       0.0       0.0       0.1
 0 C  dxz             0.2       0.9       1.1       0.0       0.1       0.1
 0 C  dyz             0.8       0.3       0.8       0.3       0.9       0.2
 0 C  dx2y2           1.6       0.1       0.0       0.4       1.3       0.3
 0 C  dxy             0.0       0.0       0.3       0.1       0.0       0.0
 1 C  s               0.9       0.2       0.0       2.6       0.3       0.9
 1 C  pz              0.8       0.3       7.5       0.7       0.2       8.6
 1 C  px              3.9       2.8       1.9       0.1       0.1       3.1
 1 C  py              6.3       1.0       0.0       7.7       1.5       3.3
 1 C  dz2             0.4       0.2       0.0       0.0       0.0       0.0
 1 C  dxz             0.2       0.6       0.4       0.1       0.0       0.1
 1 C  dyz             0.0       0.5       0.0       0.4       0.2       0.0
 1 C  dx2y2           0.5       0.0       0.0       0.1       0.2       0.1
 1 C  dxy             0.0       0.2       0.2       0.0       0.0       0.1
 2 C  s               0.6       0.3       0.1       2.0       0.6       0.4
 2 C  pz              0.2       0.1       1.8       0.6       3.4       6.3
 2 C  px              5.2       1.8       0.8       0.6       0.3       2.3
 2 C  py              0.8       1.5       5.3       0.3       4.1       0.4
 2 C  dz2             0.2       0.0       0.0       0.1       0.1       0.3
 2 C  dxz             0.7       0.4       0.1       0.0       0.0       0.3
 2 C  dyz             0.1       0.2       0.0       0.1       0.1       0.0
 2 C  dx2y2           0.0       0.2       0.3       0.0       0.0       0.1
 2 C  dxy             0.0       0.0       0.1       0.2       0.0       0.1
 3 C  s               0.5       0.4       0.8       0.3       0.1       0.5
 3 C  pz              0.7       0.9       4.3       0.5       2.0       2.5
[...]
 2 C  pz              0.0       1.8       2.0       0.4       1.6       1.0
 2 C  px              0.1       0.3       0.1       2.3       1.3       0.0
 2 C  py              1.0       1.7       0.3       0.3       1.0       7.3
 2 C  dz2             0.0       0.1       0.1       0.4       0.0       0.6
 2 C  dxz             0.0       2.1       0.2       3.5       0.1       0.4
 2 C  dyz             1.3       1.1       0.4       0.5       1.0      14.0
 2 C  dx2y2           0.1       3.5       3.9       0.0       6.4       0.0
 2 C  dxy             0.1       0.1       0.0       0.1       0.0       0.6
 3 C  s               0.4       0.2       0.3       1.2       0.0       0.2
 3 C  pz              0.9       0.8       1.7       2.9       1.3       0.4
 3 C  px              0.9       1.5       0.1       0.0       3.4       1.3
 3 C  py              0.3       0.1       0.0       1.2       0.2       3.0
 3 C  dz2             0.9       0.7       1.1       1.2       6.3       2.4
 3 C  dxz             1.2       1.8       3.0       6.3       0.7       0.0
 3 C  dyz             0.1       0.0       0.0       0.0       0.3       0.7
 3 C  dx2y2           0.2       0.7       0.0       0.2       1.5       0.6
 3 C  dxy             0.6       0.0       0.4       0.8       0.5       5.5
 4 C  s               0.3       0.0       0.0       0.1       0.1       0.0
 4 C  pz              0.2       0.0       2.0       2.0       0.4       0.2
 4 C  px              2.5       0.1       0.0       0.3       0.9       0.2
 4 C  py              5.7       0.1       0.0       0.3       0.1       0.9
 4 C  dz2             2.7       0.3       0.4       1.8       3.0       0.4
 4 C  dxz             0.7       0.0       4.3       3.8       0.2       0.3
 4 C  dyz             0.9       0.0       0.0       0.0       0.1       0.1
 4 C  dx2y2           2.2       0.1       0.1       0.0       0.5       0.2
 4 C  dxy             8.8       0.2       0.1       0.1       0.1       2.0
 5 H  s               1.1       0.7       4.1       0.5       0.0       0.3
 5 H  pz              0.6       0.1       1.8       0.3       0.1       0.1
 5 H  px              1.9       1.4       7.8       1.1       0.1       0.5
 5 H  py              0.3       0.2       0.1       0.0       0.0       0.0
 6 H  s               0.3       0.4       3.7       2.2       0.4       0.3
 6 H  pz              0.6       0.3       6.6       3.4       0.8       1.0
 6 H  px              0.1       0.4       2.5       1.9       0.2       0.0
 6 H  py              0.1       0.4       0.1       0.1       0.1       0.0
 7 H  s               0.1       7.0       0.2       0.3       0.4       0.0
 7 H  pz              0.2       6.9       0.3       0.1       0.1       0.0
 7 H  px              0.1       0.0       0.3       0.0       0.0       0.1
 7 H  py              0.2      11.8       0.3       0.7       0.9       0.0
 8 H  s               1.9       0.1       0.3       3.4       1.2       0.4
 8 H  pz              2.9       0.0       0.8       5.7       0.7       0.4
 8 H  px              2.0       0.7       0.1       3.4       1.5       0.3
 8 H  py              0.0       0.2       0.0       0.4       0.2       0.0
 9 H  s               0.2       1.2       0.6       0.4       3.9       0.6
 9 H  pz              0.0       1.3       0.7       0.1       2.4       0.3
 9 H  px              0.1       0.0       0.1       0.0       0.1       0.0
 9 H  py              0.4       2.2       1.2       0.7       7.2       1.1
10 H  s               0.4       0.0       0.2       0.4       0.0       5.8
10 H  pz              0.8       0.0       0.1       0.7       0.0       5.8
10 H  px              0.0       0.1       0.0       0.2       0.0       0.5
10 H  py              0.2       0.3       0.8       0.3       0.2       5.8
11 H  s               0.7       2.3       1.0       0.1       2.2       3.3
11 H  pz              0.8       1.4       0.3       0.0       1.4       3.5
11 H  px              0.0       0.0       0.0       0.1       0.0       0.1
11 H  py              1.3       5.1       3.3       0.0       4.9       3.8
12 H  s               0.0       0.2       0.2       0.3       1.8       3.8
12 H  pz              0.0       0.1       0.0       0.2       0.0       0.1
12 H  px              0.0       0.1       0.1       0.6       0.7       2.2
12 H  py              0.0       0.8       0.1       0.5       3.5       5.8
13 H  s               1.1       0.0       1.5       2.3       2.9       0.8
13 H  pz              2.4       0.1       3.6       5.9       4.9       1.1
13 H  px              0.4       0.1       0.6       1.7       1.0       0.2
13 H  py              0.0       0.0       0.2       0.0       0.1       0.3
14 H  s               1.0       0.1       1.3       0.6       0.0       0.3
14 H  pz              1.7       0.1       1.4       0.4       0.0       0.2
14 H  px              0.4       0.1       1.6       1.0       0.1       0.6
14 H  py              0.2       0.0       0.0       0.0       0.0       0.0
15 H  s               0.6       0.1       1.4       2.2       0.9       0.0
15 H  pz              1.1       0.1       2.5       4.1       1.7       0.0
15 H  px              0.0       0.0       1.2       1.4       0.7       0.0
15 H  py              0.3       0.0       0.0       0.1       0.1       0.0
16 H  s               7.1       0.0       0.0       0.0       0.5       1.0
16 H  pz              0.4       0.0       0.0       0.0       0.0       0.2
16 H  px              5.6       0.0       0.0       0.0       0.1       0.4
16 H  py             12.9       0.0       0.1       0.0       1.1       1.7

                    150       151       152       153       154   
                  21.91158  21.96177  21.97831  22.03496  22.08761
                   0.00000   0.00000   0.00000   0.00000   0.00000
                  --------  --------  --------  --------  --------
 0 C  s              45.6      46.6       1.1       6.3       0.1
 1 C  s               0.6       4.0      45.4      27.3      22.3
 2 C  s               9.9       0.3       1.4      48.3      39.7
 3 C  s               0.2       0.1      50.0      15.1      34.3
 4 C  s              43.3      48.6       1.7       2.7       3.3


                      *****************************
                      * MAYER POPULATION ANALYSIS *
                      *****************************

  NA   - Mulliken gross atomic population
  ZA   - Total nuclear charge
  QA   - Mulliken gross atomic charge
  VA   - Mayer's total valence
  BVA  - Mayer's bonded valence
  FA   - Mayer's free valence

  ATOM       NA         ZA         QA         VA         BVA        FA
  0 C      6.5141     6.0000    -0.5141     3.7837     3.7837     0.0000
  1 C      6.2680     6.0000    -0.2680     3.6770     3.6770     0.0000
  2 C      6.2646     6.0000    -0.2646     3.5181     3.5181    -0.0000
  3 C      6.2633     6.0000    -0.2633     3.5861     3.5861    -0.0000
  4 C      6.5210     6.0000    -0.5210     3.8381     3.8381     0.0000
  5 H      0.8445     1.0000     0.1555     0.9593     0.9593    -0.0000
  6 H      0.8450     1.0000     0.1550     0.9614     0.9614     0.0000
  7 H      0.8449     1.0000     0.1551     0.9608     0.9608     0.0000
  8 H      0.8558     1.0000     0.1442     0.9601     0.9601    -0.0000
  9 H      0.8529     1.0000     0.1471     0.9582     0.9582     0.0000
 10 H      0.8472     1.0000     0.1528     0.9603     0.9603    -0.0000
 11 H      0.8459     1.0000     0.1541     0.9640     0.9640    -0.0000
 12 H      0.8503     1.0000     0.1497     0.9608     0.9608    -0.0000
 13 H      0.8434     1.0000     0.1566     0.9599     0.9599    -0.0000
 14 H      0.8490     1.0000     0.1510     0.9603     0.9603     0.0000
 15 H      0.8451     1.0000     0.1549     0.9586     0.9586    -0.0000
 16 H      0.8451     1.0000     0.1549     0.9589     0.9589     0.0000

  Mayer bond orders larger than 0.100000
B(  0-C ,  1-C ) :   0.8944 B(  0-C ,  5-H ) :   0.9692 B(  0-C ,  6-H ) :   0.9740 
B(  0-C ,  7-H ) :   0.9804 B(  1-C ,  2-C ) :   0.8881 B(  1-C ,  8-H ) :   0.9727 
B(  1-C ,  9-H ) :   0.9787 B(  2-C ,  3-C ) :   0.8208 B(  2-C , 10-H ) :   0.9657 
B(  2-C , 11-H ) :   1.0009 B(  3-C ,  4-C ) :   0.8882 B(  3-C , 12-H ) :   0.9640 
B(  3-C , 13-H ) :   0.9931 B(  4-C , 14-H ) :   0.9722 B(  4-C , 15-H ) :   0.9787 
B(  4-C , 16-H ) :   0.9798 

-------
TIMINGS
-------

Total SCF time: 0 days 0 hours 0 min 13 sec 

Total time                  ....      13.438 sec
Sum of individual times     ....      12.490 sec  ( 92.9%)

SCF preparation             ....       0.305 sec  (  2.3%)
Fock matrix formation       ....      11.393 sec  ( 84.8%)
  Startup                   ....       0.059 sec  (  0.5% of F)
  Split-RI-J                ....       1.474 sec  ( 12.9% of F)
  XC integration            ....       7.369 sec  ( 64.7% of F)
    Basis function eval.    ....       1.468 sec  ( 19.9% of XC)
    Density eval.           ....       1.848 sec  ( 25.1% of XC)
    XC-Functional eval.     ....       1.120 sec  ( 15.2% of XC)
    XC-Potential eval.      ....       2.205 sec  ( 29.9% of XC)
  CPCM terms                ....       2.066 sec  ( 18.1% of F)
Diagonalization             ....       0.000 sec  (  0.0%)
Density matrix formation    ....       0.169 sec  (  1.3%)
Total Energy calculation    ....       0.038 sec  (  0.3%)
Population analysis         ....       0.091 sec  (  0.7%)
Orbital Transformation      ....       0.057 sec  (  0.4%)
Orbital Orthonormalization  ....       0.000 sec  (  0.0%)
DIIS solution               ....       0.387 sec  (  2.9%)
  MO trafo                  ....       0.000 sec  (  0.0 % of DIIS)
  Orb grad                  ....       0.000 sec  (  0.0 % of DIIS)
  Energy W gradient         ....       0.000 sec  (  0.0 % of DIIS)
  DIIS error                ....       0.007 sec  (  1.8 % of DIIS)
  DIIS work                 ....       0.332 sec  ( 85.9 % of DIIS)
  Form Q                    ....       0.000 sec  (  0.0 % of DIIS)
  Form QpQm                 ....       0.000 sec  (  0.0 % of DIIS)
  Exp/Cayley                ....       0.000 sec  (  0.0 % of DIIS)
  Orb update                ....       0.000 sec  (  0.0 % of DIIS)
  Wake-sleep                ....       0.016 sec  (  4.2 % of DIIS)
SOSCF solution              ....       0.050 sec  (  0.4%)
  MO trafo                  ....       0.034 sec  ( 68.8 % of SOSCF)
  Orb grad                  ....       0.001 sec  (  1.6 % of SOSCF)
  Rot update                ....       0.000 sec  (  0.1 % of SOSCF)
  Step                      ....       0.015 sec  ( 29.4 % of SOSCF)
Finished LeanSCF after  13.8 sec

Maximum memory used throughout the entire LEANSCF-calculation: 21.1 MB


-------------------------------------------------------------------------------
                          DFT DISPERSION CORRECTION                            
                                                                               
                                DFTD4 V3.4.0                                   
-------------------------------------------------------------------------------
The R2SCAN3C composite method is recognized
Using three-body term ABC
Active option DFTDOPT                   ...         5   

-------------------------   ----------------
Dispersion correction           -0.003788510
-------------------------   ----------------

------------------   -----------------
gCP correction             0.007978289
------------------   -----------------

-------------------------   --------------------
FINAL SINGLE POINT ENERGY      -197.679841169270
-------------------------   --------------------


------------------------------------------------------------------------------
                              ORCA PROPERTY CALCULATIONS
------------------------------------------------------------------------------

GBWName                                 ... sp_solv.gbw
Number of atoms                         ...     17
Number of basis functions               ...    155
Max core memory                         ...   1024 MB

Electric properties:
Dipole moment                           ... YES
Quadrupole moment                       ...  NO
Static polarizability (Dipole/Dipole)   ...  NO
Static polarizability (Dipole/Quad.)    ...  NO
Static polarizability (Quad./Quad.)     ...  NO
Static polarizability (Velocity)        ...  NO

Atomic electric properties:
Dipole moment                           ...  NO
Quadrupole moment                       ...  NO
Static polarizability                   ...  NO

Choice of electric origin               ... Center of mass
Position of electric origin             ...    -0.000000    -0.000003    -0.000002

General magnetic properties:
Magnetizability                         ...  NO

EPR properties:
g-Tensor (aka g-matrix)                 ...  NO
Zero-Field splitting spin-orbit         ...  NO
Zero-field splitting spin-spin          ...  NO
Hyperfine couplings                     ...  NO (   0 nuclei)
Quadrupole couplings                    ...  NO (   0 nuclei)
Contact density                         ...  NO (   0 nuclei)

NMR properties:
Chemical shifts                         ...  NO (   0 nuclei)
Spin-rotation constants                 ...  NO (   0 nuclei)
Spin-spin couplings                     ...  NO (   0 nuclei,    0 pairs)

Choice of magnetic origin               ... GIAO
Position of magnetic origin             ...     0.000000     0.000000     0.000000

Properties with geometric perturbations:
SCF Hessian                             ...  NO
IR spectrum                             ...  NO
VCD spectrum                            ...  NO
X-ray spectroscopy properties:
SCF XES/XAS/RIXS spectra                ...  NO


-------------
DIPOLE MOMENT
-------------

Method             : SCF
Type of density    : Electron Density
Multiplicity       :   1
Irrep              :   0
Energy             :  -197.6840309477005064 Eh
Relativity type    : 
Basis              : AO
                                X                 Y                 Z
Electronic contribution:      0.172201902       1.160783170       0.618189611
Nuclear contribution   :     -0.159408670      -1.108079873      -0.602968018
                        -----------------------------------------
Total Dipole Moment    :      0.012793232       0.052703297       0.015221593
                        -----------------------------------------
Magnitude (a.u.)       :      0.056329399
Magnitude (Debye)      :      0.143177953



--------------------
Rotational spectrum 
--------------------
 
Rotational constants in cm-1:             0.281239             0.092636             0.079995 
Rotational constants in MHz :          8431.347749          2777.156799          2398.181819 

Dipole components along the rotational axes: 
x,y,z [a.u.] :     0.016104     0.050517    -0.019017 
x,y,z [Debye]:     0.040934     0.128405    -0.048337 

 

Dipole moment calculation done in   0.0 sec 

Maximum memory used throughout the entire PROP-calculation: 9.0 MB

--------------------------------
SUGGESTED CITATIONS FOR THIS RUN
--------------------------------

Below you find a list of papers that are relevant to this ORCA run
We neither can nor want to force you to cite these papers, but we appreciate if you do
You receive ORCA, which is the product of decades of hard work by many enthusiastic individuals, for free
The only thing we kindly ask in return is that you cite our papers,
We deeply appreciate it, if you show your appreciation for ORCA by not just citing the generic ORCA reference.

Please note that relegating all ORCA citations to the supporting information does *not* help us.
SI sections are not indexed - citations you put there will not count into any citation statistics
But we need these citations in order to attract the funding resources that allow us to do what we are doing

Therefore, if you are a happy ORCA user, please consider citing a few of the papers listed below in the main body of your paper

In addition to the list printed below, the program has created the file sp_solv.bibtex that contains the list in bibtex format
You can import this file easily into all common literature databanks and citation aid programs


List of essential papers. We consider these as the minimum necessary citations

  1. Neese,F.
     Software update: the ORCA program system, version 5.0
     WIRES Comput. Molec. Sci., 2022 12(1)e1606
     doi.org/10.1002/wcms.1606
  2. Grimme,S.; Hansen,A.; Ehlert,S.; Mewes,J.
     r2SCAN-3c: A 'Swiss army knife' composite electronic-structure method
     J. Chem. Phys., 2021 154 064103
     doi.org/10.1063/5.0040021

List of papers to cite with high priority. The work reported in these papers was absolutely
necessary for this run to complete.
Our perspective: the developers of density functionals and basis sets usually get cited in chemistry papers
Good! But without the algorithms to do something with them, the functionals or basis sets would not do anything.
Hence, in our opinion, the algorithm design and method developments papers are equally worthy of getting cited

  1. Neese,F.
     An improvement of the resolution of the identity approximation for the formation of the Coulomb matrix
     J. Comp. Chem., 2003 24(14)1740-1747
     doi.org/10.1002/jcc.10318
  2. Garcia-Rates,M.; Neese,F.
     Effect of the Solute Cavity on the Solvation Energy and its Derivatives within the Framework of the Gaussian Charge Scheme
     J. Comput. Chem., 2020 41 922-939
     doi.org/10.1002/jcc.26139
  3. Neese,F.
     The SHARK Integral Generation and Digestion System
     J. Comp. Chem., 2022  1-16
     doi.org/10.1002/jcc.26942
  4. Lehtola,S.; Steigemann,C.; Oliveira,M.; Marques,M.
     Recent developments in Libxc - A comprehensive library of functionals for density functional theory
     Software X, 2018 7 
     doi.org/10.1016/j.softx.2017.11.002
  5. Caldeweyher,E.; Bannwarth,C.; Grimme,S.
     Extension of the D3 dispersion coefficient model
     J. Chem. Phys., 2017 147 034112-XXXX
     doi.org/10.1063/1.4993215
  6. Caldeweyher,E.; Ehlert,S.; Hansen,A.; Neugebauer,H.; Spicher,S.; Bannwarth,C.; Grimme,S.
     A generally applicable atomic-charge dependent London dispersion correction
     J. Chem. Phys., 2019 150 154122-XXXX
     doi.org/10.1063/1.5090222
  7. Caldeweyher,E.; Mewes,J.; Ehlert,S.; Grimme,S.
     Extension and evaluation of the D4 London-dispersion model for periodic systems
     Phys. Chem. Chem. Phys., 2020 22(16)8499-8512
     doi.org/10.1039/D0CP00502A

List of suggested additional citations. These are papers that are important in the 'surrounding' of 
of this run, or papers that preceded the highly important papers. If you like your results we are grateful for a citation.

  1. Neese,F.
     The ORCA program system
     WIRES Comput. Molec. Sci., 2012 2(1)73-78
     doi.org/10.1002/wcms.81
  2. Neese,F.
     Software update: the ORCA program system, version 4.0
     WIRES Comput. Molec. Sci., 2018 8(1)1-6
     doi.org/10.1002/wcms.1327
  3. Neese,F.; Wennmohs,F.; Becker,U.; Riplinger,C.
     The ORCA quantum chemistry program package
     J. Chem. Phys., 2020 152 Art. No. L224108
     doi.org/10.1063/5.0004608

List of optional additional citations

  1. Neese,F.
     Approximate second-order SCF convergence for spin unrestricted wavefunctions
     Chem. Phys. Lett., 2000 325(1-3)93-98
     doi.org/10.1016/s0009-2614(00)00662-x

Timings for individual modules:

Sum of individual times          ...       15.269 sec (=   0.254 min)
Startup calculation              ...        1.002 sec (=   0.017 min)   6.6 %
SCF iterations                   ...       14.165 sec (=   0.236 min)  92.8 %
Property calculations            ...        0.103 sec (=   0.002 min)   0.7 %
                             ****ORCA TERMINATED NORMALLY****
TOTAL RUN TIME: 0 days 0 hours 0 minutes 16 seconds 14 msec
