18
 energy: -272.903496790594 gnorm: 0.001498285474 xtb: 6.7.1 (edcfbbe)
C            2.11357342655703       -1.00532632052502       -0.53139322531613
C            0.88681134376401       -0.49435884383185        0.22764653226078
C            1.15190012003699        0.90675623554734        0.77995156329091
C           -0.34561288305711       -0.55747692493741       -0.68547201194450
C           -1.68008763914018       -0.21743391906392       -0.04064176203172
O           -1.85563673770155        1.21740294523329        0.01186878643605
H            2.99858254702868       -1.02202909872148        0.11324546667172
H            2.33342191264954       -0.35444628934377       -1.38666468034156
H            1.95245458738296       -2.01956549284171       -0.91335358787105
H            0.70366149260858       -1.16878856380992        1.07699013152325
H            0.33325405289780        1.25675863958052        1.41460825170177
H            1.27586719143341        1.62569000899739       -0.04037544453469
H            2.07027265286318        0.91664381802404        1.37736959853890
H           -0.42704323468094       -1.57926333628394       -1.07714722483955
H           -0.19569949310594        0.09889132175373       -1.55538048579354
H           -2.49543158428466       -0.65683373352623       -0.63081911656794
H           -1.73172499845944       -0.64125381916817        0.97352915485435
H           -2.72192460515189        1.38333166195014        0.40524151981640
18
 energy: -272.903504465932 gnorm: 0.000577558295 xtb: 6.7.1 (edcfbbe)
C            2.11393915010110       -1.00372182703560       -0.53157764030723
C            0.88653273266200       -0.49449165740768        0.22657248808134
C            1.15283902894029        0.90573046304947        0.78058998304675
C           -0.34717743027205       -0.55833274016265       -0.68490478442838
C           -1.68128260809951       -0.21705247600720       -0.04184499464712
O           -1.85636541180464        1.21725283896555        0.00716175460412
H            2.99886663999422       -1.01936716910565        0.11368963258454
H            2.33408515663488       -0.35301561953250       -1.38690351226424
H            1.95464335394330       -2.01816560101669       -0.91335685742062
H            0.70385380563802       -1.16967912102572        1.07517528890207
H            0.33631698369974        1.25427603948072        1.41824729664480
H            1.27487126615284        1.62675289135794       -0.03696605667288
H            2.07224371036837        0.91514414025568        1.37678282777080
H           -0.42867589827108       -1.58070338601639       -1.07477379606405
H           -0.19814362575981        0.09476865373237       -1.55670043695341
H           -2.49763625976524       -0.65751622686868       -0.63033665626627
H           -1.73236519454485       -0.63759640636054        0.97369121141721
H           -2.71990785453292        1.38441534989422        0.40465685637567
18
 energy: -272.903509661380 gnorm: 0.000736378571 xtb: 6.7.1 (edcfbbe)
C            2.11324151979203       -1.00219989412523       -0.53271819907194
C            0.88600915919954       -0.49463297229657        0.22631270041866
C            1.15184306693018        0.90485717423968        0.78246561358119
C           -0.34778050362880       -0.56000355783101       -0.68526826933177
C           -1.68075734187076       -0.21606478616406       -0.04252275157888
O           -1.85590142198667        1.21803715483753        0.00032968897638
H            2.99788830609103       -1.01619601668344        0.11315841951170
H            2.33333513186800       -0.35095597329534       -1.38769114837931
H            1.95662805103302       -2.01695430261314       -0.91479073769181
H            0.70429122712702       -1.17092475152872        1.07416497892709
H            0.33777338902323        1.25136044046594        1.42438754018903
H            1.27129518448027        1.62815104279538       -0.03304603162037
H            2.07321451416548        0.91284960385093        1.37591662426706
H           -0.42958579288903       -1.58373334585549       -1.07164843965824
H           -0.19923764012282        0.08945712089904       -1.55970206442877
H           -2.49742120680100       -0.65904159842863       -0.62899278953104
H           -1.73222834326364       -0.63262729658395        0.97466410810343
H           -2.71597087283118        1.38731985475597        0.40418211654453
18
 energy: -272.903515944978 gnorm: 0.000884277992 xtb: 6.7.1 (edcfbbe)
C            2.11390260796805       -0.99898669517206       -0.53455531136961
C            0.88570045988422       -0.49606795976147        0.22577435303239
C            1.14901453549699        0.90234503873546        0.78587548750910
C           -0.34878315604060       -0.56392016458012       -0.68498575109474
C           -1.68081810966153       -0.21411483978672       -0.04397756413258
O           -1.85422770370077        1.22045173516942       -0.01348800250219
H            2.99889926470400       -1.01099875144309        0.11089618003361
H            2.33167603035109       -0.34593449002814       -1.38878135141978
H            1.96016981974861       -2.01376865166781       -0.91778936473331
H            0.70584791041944       -1.17453287686394        1.07230232741365
H            0.33785940347394        1.24344578457311        1.43480279843540
H            1.26226630589166        1.63003527506898       -0.02684163672326
H            2.07382546994948        0.90946785408496        1.37418370488222
H           -0.43166033953366       -1.59003842068262       -1.06504021292134
H           -0.19948204574986        0.08007160422870       -1.56355311349150
H           -2.49831009745657       -0.66182399229744       -0.62594484386088
H           -1.73197822658578       -0.62213464993902        0.97673427051698
H           -2.70726819747328        1.39520145249720        0.40358685396456
18
 energy: -272.903521383119 gnorm: 0.000588240754 xtb: 6.7.1 (edcfbbe)
C            2.11467974920395       -0.99646759650665       -0.53649227898453
C            0.88578108340629       -0.49846036935942        0.22629696491648
C            1.14536617804707        0.89962820019296        0.78905874728359
C           -0.34861521041521       -0.56824503643608       -0.68443826339017
C           -1.67998946847960       -0.21209978982885       -0.04469921063848
O           -1.85171304229521        1.22313686064943       -0.02558807334002
H            3.00039485286858       -1.00779268724225        0.10776691688005
H            2.32933583963460       -0.34076298108112       -1.38946397716988
H            1.96273606566359       -2.01067152877101       -0.92200579706618
H            0.70833798849579       -1.17907073983343        1.07169782731594
H            0.33493866803525        1.23539664567843        1.44167824128271
H            1.25227593300039        1.63020789733352       -0.02217505637203
H            2.07226213345174        0.90935042463551        1.37383504093680
H           -0.43353608058577       -1.59568841492787       -1.06031641737970
H           -0.19794353583044        0.07225678307902       -1.56545198609266
H           -2.49860604259839       -0.66323775284933       -0.62236068344568
H           -1.73074281292116       -0.61172931900375        0.97927975377275
H           -2.69833087593956        1.40294596101850        0.40257476939373
18
 energy: -272.903523722704 gnorm: 0.001012443828 xtb: 6.7.1 (edcfbbe)
C            2.11717018761746       -0.99161343520382       -0.54081100760004
C            0.88662149712227       -0.50432148054863        0.22693127558893
C            1.13633688154246        0.89330901588856        0.79523393681008
C           -0.34844397467047       -0.57652102016756       -0.68236835491003
C           -1.67811935535387       -0.20724663599731       -0.04502179372185
O           -1.84622098748127        1.22921459220987       -0.05174937785990
H            3.00450710997018       -1.00275886216789        0.10097571108429
H            2.32544536757057       -0.32896897464986       -1.38994324594099
H            1.96895321288271       -2.00391685323173       -0.93287299170550
H            0.71489936792886       -1.18968796007192        1.06975864287912
H            0.32628557854656        1.21777234027469        1.45425265771045
H            1.23074183044242        1.62906989250185       -0.01309814429653
H            2.06656959713054        0.90919554845096        1.37434357681070
H           -0.43794559868518       -1.60640664712412       -1.05034534059075
H           -0.19465631559742        0.05691821429658       -1.56806629914861
H           -2.49916452925047       -0.66701706910047       -0.61239861983419
H           -1.72691224513106       -0.58802587350238        0.98624994051897
H           -2.67944176410066        1.41970019334141        0.39812077629482
18
 energy: -272.903526630743 gnorm: 0.000500424466 xtb: 6.7.1 (edcfbbe)
C            2.11671292490604       -0.99287650507904       -0.53983627631691
C            0.88661395261181       -0.50328796317831        0.22693295467323
C            1.13863707171277        0.89458497182044        0.79332837847096
C           -0.34824943419258       -0.57446332039468       -0.68263934216488
C           -1.67809089546478       -0.20853898288131       -0.04400954115796
O           -1.84769334371611        1.22741438667467       -0.04397592906800
H            3.00357129383854       -1.00551261225648        0.10264107706410
H            2.32708649709827       -0.33128212850858       -1.38921832502175
H            1.96676377577303       -2.00511078975005       -0.93131413475694
H            0.71359650413817       -1.18737586065339        1.07045722061064
H            0.32686337470524        1.22229563613076        1.44831832425353
H            1.23736208444551        1.62794078673830       -0.01644640973740
H            2.06665462950458        0.91009449558567        1.37585924300125
H           -0.43707643137132       -1.60305226953501       -1.05409063610829
H           -0.19519286558317        0.06210595948313       -1.56608332422468
H           -2.49900965040255       -0.66579541376896       -0.61319939053716
H           -1.72660600635532       -0.59353560041271        0.98538951910498
H           -2.68531619160948        1.41509059012678        0.39707919195743
18
 energy: -272.903526630743 gnorm: 0.000500424466 xtb: 6.7.1 (edcfbbe)
C            2.11671292490604       -0.99287650507904       -0.53983627631691
C            0.88661395261181       -0.50328796317831        0.22693295467323
C            1.13863707171277        0.89458497182044        0.79332837847096
C           -0.34824943419258       -0.57446332039468       -0.68263934216488
C           -1.67809089546478       -0.20853898288131       -0.04400954115796
O           -1.84769334371611        1.22741438667467       -0.04397592906800
H            3.00357129383854       -1.00551261225648        0.10264107706410
H            2.32708649709827       -0.33128212850858       -1.38921832502175
H            1.96676377577303       -2.00511078975005       -0.93131413475694
H            0.71359650413817       -1.18737586065339        1.07045722061064
H            0.32686337470524        1.22229563613076        1.44831832425353
H            1.23736208444551        1.62794078673830       -0.01644640973740
H            2.06665462950458        0.91009449558567        1.37585924300125
H           -0.43707643137132       -1.60305226953501       -1.05409063610829
H           -0.19519286558317        0.06210595948313       -1.56608332422468
H           -2.49900965040255       -0.66579541376896       -0.61319939053716
H           -1.72660600635532       -0.59353560041271        0.98538951910498
H           -2.68531619160948        1.41509059012678        0.39707919195743
