13
 energy: -232.397916381564 gnorm: 0.002626869971 xtb: 6.7.1 (edcfbbe)
C           -1.84467514350537       -0.77186352910992       -0.12295827871174
C           -1.33088225282720        0.59944949736349        0.30631019203349
C            0.07661851968310        0.88829975457064       -0.23787433982580
C            1.08611594319531       -0.04754398891862        0.33300190275814
O            1.91594860794728       -0.66699569587273       -0.31690788938615
H           -1.20802088822511       -1.57474678612671        0.26655628771919
H           -2.86052732583714       -0.94290669454999        0.24591343826437
H           -1.86189169744731       -0.85894225603969       -1.21465222258800
H           -1.31584081186245        0.66994942702684        1.40012581239919
H           -2.00446217485986        1.38329488609978       -0.05347647554558
H            0.10742850275575        0.84831732392455       -1.33128047158361
H            0.38438955029225        1.89505946327875        0.08264171258500
H            1.05081871269352       -0.16188958560258        1.43855136213000
13
 energy: -232.397921156888 gnorm: 0.000961929771 xtb: 6.7.1 (edcfbbe)
C           -1.84417759209854       -0.77143295052105       -0.12330595083825
C           -1.33125681761978        0.59993519543657        0.30635135296716
C            0.07630553511579        0.88853215960563       -0.23800867946594
C            1.08399936010417       -0.04923109534047        0.33334046870177
O            1.91351206394002       -0.66822088952084       -0.31540754291449
H           -1.20651766136055       -1.57439201822349        0.26510315104204
H           -2.85963504833089       -0.94478727025569        0.24582599928778
H           -1.86165262109799       -0.85828447344828       -1.21513454791982
H           -1.31527735652790        0.67027355565520        1.40043745502508
H           -2.00560502648696        1.38402110426482       -0.05196274002315
H            0.10771516668568        0.84789886305195       -1.33148374929426
H            0.38534740325149        1.89543646239995        0.08157424569992
H            1.05226214673860       -0.16026679817164        1.43862143863536
13
 energy: -232.397921156888 gnorm: 0.000961929771 xtb: 6.7.1 (edcfbbe)
C           -1.84417759209854       -0.77143295052105       -0.12330595083825
C           -1.33125681761978        0.59993519543657        0.30635135296716
C            0.07630553511579        0.88853215960563       -0.23800867946594
C            1.08399936010417       -0.04923109534047        0.33334046870177
O            1.91351206394002       -0.66822088952084       -0.31540754291449
H           -1.20651766136055       -1.57439201822349        0.26510315104204
H           -2.85963504833089       -0.94478727025569        0.24582599928778
H           -1.86165262109799       -0.85828447344828       -1.21513454791982
H           -1.31527735652790        0.67027355565520        1.40043745502508
H           -2.00560502648696        1.38402110426482       -0.05196274002315
H            0.10771516668568        0.84789886305195       -1.33148374929426
H            0.38534740325149        1.89543646239995        0.08157424569992
H            1.05226214673860       -0.16026679817164        1.43862143863536
