14
 energy: -22.693444641852 gnorm: 0.038502737108 xtb: 6.7.1 (edcfbbe)
C           -1.23390147263691        0.20231165254029       -0.25624253678454
C            0.12130205247203        0.66175640346221        0.28389672296692
C            1.28954329257298       -0.16696125987571       -0.23939318622529
O            1.09851286484000       -1.54009679736870        0.14616017539408
O            0.34154145741407        2.03396444191332       -0.07174678907864
O           -1.65123663701319       -1.06052314317212        0.27776081415972
H           -1.19074134677672        0.16928913531596       -1.35758848692676
H           -1.99375785942165        0.93453564085043        0.03393528488359
H            0.10158896369854        0.62894637687586        1.37966225099184
H            2.22767133626443        0.22415360075977        0.17696056415289
H            1.32544044610664       -0.07542976643434       -1.33557053207314
H            1.76750140107306       -2.06936677700665       -0.30587630649327
H            0.34660958331803        2.09098346971241       -1.03831272780698
H           -0.91813060382852       -1.67526639136521        0.12208087399690
14
 energy: -22.694963147527 gnorm: 0.019668129876 xtb: 6.7.1 (edcfbbe)
C           -1.23272913734549        0.20230383597032       -0.26637095021187
C            0.12267445128290        0.66859306893908        0.27866155552542
C            1.28438995027974       -0.17666239500856       -0.24905040614923
O            1.09923248611508       -1.53914835766328        0.12446084405999
O            0.34130852691287        2.03643758701403       -0.04871311279366
O           -1.65620011592560       -1.03969552980360        0.26966227143797
H           -1.18968764323807        0.14204239615075       -1.36455349701038
H           -1.99888489825610        0.92876114701565        0.01584717022888
H            0.10209306560255        0.62667394573819        1.37221621961804
H            2.21907646512206        0.20892368085737        0.17497316783500
H            1.32571480319732       -0.09094698009329       -1.34305690848575
H            1.78689035653003       -2.06933871717033       -0.30093618007904
H            0.34284630591150        2.12097204917188       -1.01376967275201
H           -0.91478113810601       -1.66061914491068        0.16635561993396
14
 energy: -22.695549903325 gnorm: 0.008019833722 xtb: 6.7.1 (edcfbbe)
C           -1.23353529199223        0.19756753438892       -0.27886848022573
C            0.12261227815954        0.67086394160102        0.27067530510769
C            1.28214106732596       -0.18408559030811       -0.26388130982932
O            1.08824604520802       -1.53371633219885        0.10284284273920
O            0.34546035028599        2.03284905906899       -0.02247344838631
O           -1.65835305677653       -1.02490940295229        0.26697524270222
H           -1.17992394903170        0.12053804325092       -1.37526040903195
H           -2.00082731441659        0.92805630720418       -0.01102410673480
H            0.10046862477774        0.60758427379978        1.36292077634212
H            2.21565386150620        0.20173419690834        0.16291495662496
H            1.32035613828704       -0.09133085102906       -1.35660157291625
H            1.79761851709326       -2.07179889745346       -0.28144806986690
H            0.34031903595850        2.15531074731934       -0.98489647397683
H           -0.90829282830242       -1.65036644339219        0.22385086860919
14
 energy: -22.695666465075 gnorm: 0.005337979714 xtb: 6.7.1 (edcfbbe)
C           -1.23255957452909        0.19471304367307       -0.28363499637993
C            0.12303345177287        0.67065854866604        0.26850705460330
C            1.28164296158277       -0.18578305915816       -0.27060945791944
O            1.08344341022159       -1.53239707440771        0.09759293277116
O            0.34621678000326        2.03220624365335       -0.01172668415165
O           -1.65767521156153       -1.02176328616126        0.27251352236509
H           -1.17394053704390        0.11238571333027       -1.38030621689917
H           -1.99818538367683        0.93142550254755       -0.02582562894966
H            0.09947798109935        0.59439563493066        1.36072953892679
H            2.21699653997917        0.20214289847219        0.15154012369577
H            1.31611253710272       -0.08861008004847       -1.36399300096321
H            1.80018389385900       -2.07387823764206       -0.26741980826088
H            0.33719774584154        2.16976821724713       -0.97184272480925
H           -0.91000111656815       -1.64696747889506        0.24020146712839
14
 energy: -22.695739652353 gnorm: 0.003483306016 xtb: 6.7.1 (edcfbbe)
C           -1.23129733474537        0.19259363314209       -0.28886428624276
C            0.12378647252666        0.66811948929655        0.26719115036666
C            1.28201179122342       -0.18595816925728       -0.27899296680817
O            1.08178197668938       -1.53104408868150        0.09256933898976
O            0.34700799227681        2.03107545121267        0.00200152528955
O           -1.66245775060057       -1.01708917234900        0.27963509059224
H           -1.16561125404823        0.10079672388795       -1.38537363988224
H           -1.99486595596719        0.93758444199113       -0.04586915580420
H            0.09884218561324        0.57620296483277        1.35904344365657
H            2.22101508794422        0.20400946842339        0.13458960833749
H            1.30980851746867       -0.08694754649464       -1.37375326252477
H            1.80729845411661       -2.07373457276726       -0.24964274822648
H            0.33244072971400        2.18441399387376       -0.95476704156609
H           -0.91781743412888       -1.64172603090308        0.25795906497974
14
 energy: -22.695763494791 gnorm: 0.002613999836 xtb: 6.7.1 (edcfbbe)
C           -1.23021374786919        0.19261546095451       -0.29199505915470
C            0.12443820804723        0.66577481689950        0.26669083487803
C            1.28177027670505       -0.18575064050564       -0.28418668294371
O            1.08276753041934       -1.53090095132650        0.08977303359777
O            0.34743751570117        2.03067770268206        0.01041403879635
O           -1.66777130342312       -1.01310077519507        0.28229278364231
H           -1.16140276755107        0.09347505666583       -1.38765224912504
H           -1.99211524326086        0.94148541926156       -0.05625164012096
H            0.09961413873615        0.56627900114500        1.35787683972584
H            2.22230766424859        0.20512009649101        0.12487655339823
H            1.30531109585645       -0.08839419783948       -1.37958272470208
H            1.81521965751277       -2.07181349564858       -0.23872468589486
H            0.32903224623510        2.19138940454608       -0.94454667454405
H           -0.92445179327485       -1.63856031192273        0.26674175360417
14
 energy: -22.695778811493 gnorm: 0.001381148407 xtb: 6.7.1 (edcfbbe)
C           -1.22945846660990        0.19380231883790       -0.29446728765481
C            0.12514559778535        0.66305225206784        0.26595748136515
C            1.28137826326864       -0.18551241825310       -0.28914580859845
O            1.08476037628677       -1.53115695735408        0.08753159251454
O            0.34814988808972        2.03030664720651        0.01797707211077
O           -1.67328367000687       -1.00864059914760        0.28398860521115
H           -1.15909710391719        0.08719932468480       -1.38868414180066
H           -1.98948235636603        0.94525487834388       -0.06339026813340
H            0.10111806748304        0.55786996961667        1.35623289881926
H            2.22282478135567        0.20600287224811        0.11611072641151
H            1.30071205011457       -0.09186984645794       -1.38484141125701
H            1.82560795641881       -2.06833745407193       -0.22682435182895
H            0.32563724368265        2.19650326374113       -0.93554983919228
H           -0.93206914950245       -1.63617766525466        0.27083085319050
14
 energy: -22.695783236260 gnorm: 0.000900769072 xtb: 6.7.1 (edcfbbe)
C           -1.22941462904858        0.19506912756133       -0.29505070410214
C            0.12550877820337        0.66181081578329        0.26553149957655
C            1.28082944992641       -0.18568428569896       -0.29156625765093
O            1.08636405543544       -1.53177411435437        0.08659500355781
O            0.34911362937361        2.03013694701754        0.02080448901234
O           -1.67582281794414       -1.00619756430820        0.28436543507498
H           -1.15945317347143        0.08575274301772       -1.38832578994632
H           -1.98835875724741        0.94703725031009       -0.06400938403547
H            0.10224619640367        0.55491832094166        1.35538361903219
H            2.22222977224106        0.20635748767349        0.11211670688836
H            1.29799426926157       -0.09481925734849       -1.38713194317100
H            1.83311765439144       -2.06522362994955       -0.21913627544001
H            0.32443519762743        2.19771425014802       -0.93241321043165
H           -0.93684614706966       -1.63680150458604        0.26856293279259
14
 energy: -22.695785739960 gnorm: 0.000669429897 xtb: 6.7.1 (edcfbbe)
C           -1.22992200731255        0.19552234244807       -0.29423167248191
C            0.12556230262635        0.66193828544239        0.26548456450361
C            1.28065245825449       -0.18603736972784       -0.29176038835671
O            1.08659899681604       -1.53211305806824        0.08654740586658
O            0.34969474878118        2.02996546125688        0.01997731878671
O           -1.67546868153294       -1.00613162387597        0.28445891886158
H           -1.16090040041327        0.08758851066740       -1.38763844536813
H           -1.98879829633949        0.94714381787972       -0.06143916199845
H            0.10262739831149        0.55547556532041        1.35544685211339
H            2.22197003478864        0.20635892110131        0.11165335924846
H            1.29737725655079       -0.09540100931226       -1.38725653370222
H            1.83561975899869       -2.06415431534663       -0.21587271571415
H            0.32501991626204        2.19680857346155       -0.93349555420431
H           -0.93809000770867       -1.63866751503926        0.26385217360284
14
 energy: -22.695788237127 gnorm: 0.000468913952 xtb: 6.7.1 (edcfbbe)
C           -1.23063891751389        0.19595371551979       -0.29292226785643
C            0.12575989394109        0.66211120780916        0.26551557884773
C            1.28019608573291       -0.18667461817077       -0.29269304305561
O            1.08652077418100       -1.53263606778773        0.08559695490954
O            0.35048488217065        2.02969525627008        0.01916120142086
O           -1.67542430277900       -1.00612983892664        0.28478403951788
H           -1.16296584054641        0.09067094273366       -1.38689555926044
H           -1.98917877564901        0.94747754152404       -0.05784959535391
H            0.10355631534169        0.55555709997681        1.35561300092555
H            2.22177541587192        0.20630959564318        0.10960907890288
H            1.29586223093805       -0.09573383667893       -1.38835540983165
H            1.84052351122215       -2.06263689992900       -0.20798932023598
H            0.32596362954278        2.19610161907847       -0.93447320557144
H           -0.94049142437115       -1.64176913085459        0.25662466779833
14
 energy: -22.695788750821 gnorm: 0.000207904140 xtb: 6.7.1 (edcfbbe)
C           -1.23103515531907        0.19621617311458       -0.29214958124850
C            0.12582302289457        0.66206999903462        0.26552160667779
C            1.28015615765801       -0.18683423278397       -0.29271603556561
O            1.08631957374358       -1.53270720556173        0.08544790928027
O            0.35042315766553        2.02947795674761        0.01833518768486
O           -1.67486502751008       -1.00664453087361        0.28438510589173
H           -1.16418199970866        0.09236473936965       -1.38638808119020
H           -1.98955231468498        0.94732869061743       -0.05572897109218
H            0.10408280350028        0.55608887235977        1.35562914682888
H            2.22191178799620        0.20609998237845        0.10925418175053
H            1.29564050015580       -0.09576733936142       -1.38847526970056
H            1.84125681455302       -2.06243438516450       -0.20510603030686
H            0.32626115916670        2.19534583410990       -0.93536266676533
H           -0.94029700202812       -1.64230796777926        0.25307961891251
14
 energy: -22.695789108820 gnorm: 0.000294104271 xtb: 6.7.1 (edcfbbe)
C           -1.23130551645811        0.19638684997871       -0.29180564843469
C            0.12585252663560        0.66200440864462        0.26532913498762
C            1.27982124960966       -0.18710234644539       -0.29332405886831
O            1.08562614889614       -1.53289233109234        0.08447977080347
O            0.35047026631035        2.02942468324326        0.01814926653273
O           -1.67470711804382       -1.00711804751979        0.28366566430904
H           -1.16513900245749        0.09385422300190       -1.38625055005404
H           -1.98962153228572        0.94726011519607       -0.05409098650629
H            0.10459742478653        0.55600317642188        1.35545668923474
H            2.22162587998339        0.20563894737187        0.10867211678256
H            1.29544379320154       -0.09577757106906       -1.38913892359375
H            1.84277533304299       -2.06239829972046       -0.20139645765091
H            0.32632483729445        2.19545809830755       -0.93555588458801
H           -0.93982081243270       -1.64244532011129        0.25153598820314
14
 energy: -22.695789307758 gnorm: 0.000206428107 xtb: 6.7.1 (edcfbbe)
C           -1.23136181707162        0.19649327181653       -0.29180237604653
C            0.12578647378322        0.66198826163153        0.26532994085027
C            1.27961433685024       -0.18720764488028       -0.29337284358208
O            1.08521335915128       -1.53311796650826        0.08400458261868
O            0.35044678986469        2.02943190860729        0.01783586926005
O           -1.67446123862994       -1.00773760748723        0.28270993519567
H           -1.16554438602156        0.09498552552730       -1.38638264646122
H           -1.98974311063884        0.94701867509033       -0.05313327008722
H            0.10468138340368        0.55627480582785        1.35549867225554
H            2.22144011635621        0.20529038743789        0.10877958496026
H            1.29537975958523       -0.09564402575823       -1.38918009286482
H            1.84267128174076       -2.06252475780967       -0.20043191878434
H            0.32637929071486        2.19517625312817       -0.93590150131204
H           -0.93855876100543       -1.64213050041569        0.25177218515508
14
 energy: -22.695789369600 gnorm: 0.000063368052 xtb: 6.7.1 (edcfbbe)
C           -1.23146142331729        0.19666609451089       -0.29189019071891
C            0.12573126184465        0.66186829815839        0.26522686898884
C            1.27959290515391       -0.18727416209710       -0.29348395932179
O            1.08499395024756       -1.53324936455947        0.08375472904609
O            0.35053237227481        2.02932969480223        0.01788043608466
O           -1.67431876453200       -1.00789128966504        0.28224913889053
H           -1.16578692697893        0.09531032343144       -1.38646633611482
H           -1.98995305665464        0.94700342582696       -0.05292278639156
H            0.10459676083362        0.55611936693957        1.35538278685160
H            2.22143007270405        0.20503339281942        0.10880578536237
H            1.29539876939345       -0.09567411115891       -1.38926124623841
H            1.84287635198615       -2.06253507524327       -0.20001853422774
H            0.32622855276882        2.19513681776558       -0.93583627714071
H           -0.93791734764136       -1.64154682532315        0.25230570608716
