      -----------------------------------------------------------      
     |                   =====================                   |     
     |                           x T B                           |     
     |                   =====================                   |     
     |                         S. Grimme                         |     
     |          Mulliken Center for Theoretical Chemistry        |     
     |                    University of Bonn                     |     
      -----------------------------------------------------------      

   * xtb version 6.7.1 (edcfbbe) compiled by 'albert@albert-system' on 2024-07-22

   xtb is free software: you can redistribute it and/or modify it under
   the terms of the GNU Lesser General Public License as published by
   the Free Software Foundation, either version 3 of the License, or
   (at your option) any later version.
   
   xtb is distributed in the hope that it will be useful,
   but WITHOUT ANY WARRANTY; without even the implied warranty of
   MERCHANTABILITY or FITNESS FOR A PARTICULAR PURPOSE.  See the
   GNU Lesser General Public License for more details.
   
   Cite this work as:
   * C. Bannwarth, E. Caldeweyher, S. Ehlert, A. Hansen, P. Pracht,
     J. Seibert, S. Spicher, S. Grimme, WIREs Comput. Mol. Sci., 2020, 11,
     e01493. DOI: 10.1002/wcms.1493
   
   for GFN2-xTB:
   * C. Bannwarth, S. Ehlert and S. Grimme., J. Chem. Theory Comput., 2019,
     15, 1652-1671. DOI: 10.1021/acs.jctc.8b01176
   for GFN1-xTB:
   * S. Grimme, C. Bannwarth, P. Shushkov, J. Chem. Theory Comput., 2017,
     13, 1989-2009. DOI: 10.1021/acs.jctc.7b00118
   for GFN0-xTB:
   * P. Pracht, E. Caldeweyher, S. Ehlert, S. Grimme, ChemRxiv, 2019, preprint.
     DOI: 10.26434/chemrxiv.8326202.v1
   for GFN-FF:
   * S. Spicher and S. Grimme, Angew. Chem. Int. Ed., 2020, 59, 15665-15673.
     DOI: 10.1002/anie.202004239
   
   for ALPB and GBSA implicit solvation:
   * S. Ehlert, M. Stahn, S. Spicher, S. Grimme, J. Chem. Theory Comput.,
     2021, 17, 4250-4261. DOI: 10.1021/acs.jctc.1c00471
   
   for ddCOSMO and CPCM-X implicit solvation:
   * M. Stahn, S. Ehlert, S. Grimme, J. Phys. Chem. A,
     2023, XX, XXXX-XXXX. DOI: 10.1021/acs.jpca.3c04382
   
   for DFT-D4:
   * E. Caldeweyher, C. Bannwarth and S. Grimme, J. Chem. Phys., 2017,
     147, 034112. DOI: 10.1063/1.4993215
   * E. Caldeweyher, S. Ehlert, A. Hansen, H. Neugebauer, S. Spicher,
     C. Bannwarth and S. Grimme, J. Chem. Phys., 2019, 150, 154122.
     DOI: 10.1063/1.5090222
   * E. Caldeweyher, J.-M. Mewes, S. Ehlert and S. Grimme, Phys. Chem. Chem. Phys.
     2020, 22, 8499-8512. DOI: 10.1039/D0CP00502A
   
   for sTDA-xTB:
   * S. Grimme and C. Bannwarth, J. Chem. Phys., 2016, 145, 054103.
     DOI: 10.1063/1.4959605
   
   in the mass-spec context:
   * V. Asgeirsson, C. Bauer and S. Grimme, Chem. Sci., 2017, 8, 4879.
     DOI: 10.1039/c7sc00601b
   * J. Koopman and S. Grimme, ACS Omega 2019, 4, 12, 15120-15133.
     DOI: 10.1021/acsomega.9b02011
   
   for metadynamics refer to:
   * S. Grimme, J. Chem. Theory Comput., 2019, 155, 2847-2862
     DOI: 10.1021/acs.jctc.9b00143
   
   for SPH calculations refer to:
   * S. Spicher and S. Grimme, J. Chem. Theory Comput., 2021, 17, 1701-1714
     DOI: 10.1021/acs.jctc.0c01306
   
   for ONIOM refer to:
   * C. Plett, A. Katbashev, S. Ehlert, S. Grimme, M. Bursch,
     Phys. Chem. Chem. Phys., 2023, 25, 17860-17868. DOI: 10.1039/D3CP02178E
   
   for DIPRO refer to:
   * J. Kohn, N. Gildemeister, S. Grimme, D. Fazzi, A. Hansen,
     J. Chem. Phys., 2023, just accepted.
   
   for PTB refer to:
   * S. Grimme, M. Mueller, A. Hansen, J. Chem. Phys., 2023, 158, 124111.
     DOI: 10.1063/5.0137838
   
   with help from (in alphabetical order)
   P. Atkinson, C. Bannwarth, F. Bohle, G. Brandenburg, E. Caldeweyher
   M. Checinski, S. Dohm, S. Ehlert, S. Ehrlich, I. Gerasimov, C. Hölzer
   A. Katbashev, J. Kohn, J. Koopman, C. Lavigne, S. Lehtola, F. März, M. Müller,
   F. Musil, H. Neugebauer, J. Pisarek, C. Plett, P. Pracht, F. Pultar,
   J. Seibert, P. Shushkov, S. Spicher, M. Stahn, M. Steiner, T. Strunk,
   J. Stückrath, T. Rose, and J. Unsleber
   
 * started run on 2025/04/11 at 12:15:00.576     
   ID    Z sym.   atoms
    1    6 C      1-3, 5-7
    2    1 H      4, 9-21
    3    8 O      8

           -------------------------------------------------
          |                Calculation Setup                |
           -------------------------------------------------

          program call               : /srv/scratch/z5358697/.xtb/bin/xtb gas.coord --gfn2 --sp --chrg 0 --norestart --parallel 1
          hostname                   : k121
          coordinate file            : gas.coord
          omp threads                :                     1


           -------------------------------------------------
          |                 G F N 2 - x T B                 |
           -------------------------------------------------

        Reference                      10.1021/acs.jctc.8b01176
      * Hamiltonian:
        H0-scaling (s, p, d)           1.850000    2.230000    2.230000
        zeta-weighting                 0.500000
      * Dispersion:
        s8                             2.700000
        a1                             0.520000
        a2                             5.000000
        s9                             5.000000
      * Repulsion:
        kExp                           1.500000    1.000000
        rExp                           1.000000
      * Coulomb:
        alpha                          2.000000
        third order                    shell-resolved
        anisotropic                    true
        a3                             3.000000
        a5                             4.000000
        cn-shift                       1.200000
        cn-exp                         4.000000
        max-rad                        5.000000


          ...................................................
          :                      SETUP                      :
          :.................................................:
          :  # basis functions                  42          :
          :  # atomic orbitals                  42          :
          :  # shells                           28          :
          :  # electrons                        44          :
          :  max. iterations                   250          :
          :  Hamiltonian                  GFN2-xTB          :
          :  restarted?                      false          :
          :  GBSA solvation                  false          :
          :  PC potential                    false          :
          :  electronic temp.          300.0000000     K    :
          :  accuracy                    1.0000000          :
          :  -> integral cutoff          0.2500000E+02      :
          :  -> integral neglect         0.1000000E-07      :
          :  -> SCF convergence          0.1000000E-05 Eh   :
          :  -> wf. convergence          0.1000000E-03 e    :
          :  Broyden damping             0.4000000          :
          :  net charge                          0          :
          :  unpaired electrons                  0          :
          ...................................................

 iter      E             dE          RMSdq      gap      omega  full diag
   1    -24.3158508 -0.243159E+02  0.288E+00   11.95       0.0  T
   2    -24.3591888 -0.433380E-01  0.151E+00   11.73       1.0  T
   3    -24.3599244 -0.735572E-03  0.680E-01   11.79       1.0  T
   4    -24.3601242 -0.199836E-03  0.111E-01   11.78       1.0  T
   5    -24.3601837 -0.595429E-04  0.587E-02   11.80       1.0  T
   6    -24.3601850 -0.121994E-05  0.868E-03   11.80       2.5  T
   7    -24.3601853 -0.372988E-06  0.407E-03   11.80       5.4  T
   8    -24.3601854 -0.273886E-07  0.106E-03   11.80      20.6  T
   9    -24.3601854 -0.162548E-08  0.464E-04   11.80      47.0  T
  10    -24.3601854 -0.351154E-09  0.111E-04   11.80     197.1  T

   *** convergence criteria satisfied after 10 iterations ***

         #    Occupation            Energy/Eh            Energy/eV
      -------------------------------------------------------------
         1        2.0000           -0.6779323             -18.4475
       ...           ...                  ...                  ...
        16        2.0000           -0.4606972             -12.5362
        17        2.0000           -0.4518764             -12.2962
        18        2.0000           -0.4476842             -12.1821
        19        2.0000           -0.4397077             -11.9651
        20        2.0000           -0.4308363             -11.7237
        21        2.0000           -0.4186853             -11.3930
        22        2.0000           -0.3971592             -10.8073 (HOMO)
        23                          0.0364092               0.9907 (LUMO)
        24                          0.0630555               1.7158
        25                          0.0822181               2.2373
        26                          0.1031191               2.8060
        27                          0.1092479               2.9728
       ...                                ...                  ...
        42                          0.3240522               8.8179
      -------------------------------------------------------------
                  HL-Gap            0.4335685 Eh           11.7980 eV
             Fermi-level           -0.1803750 Eh           -4.9083 eV

 SCC (total)                   0 d,  0 h,  0 min,  0.014 sec
 SCC setup                      ...        0 min,  0.000 sec (  1.387%)
 Dispersion                     ...        0 min,  0.000 sec (  0.815%)
 classical contributions        ...        0 min,  0.000 sec (  0.194%)
 integral evaluation            ...        0 min,  0.001 sec ( 10.678%)
 iterations                     ...        0 min,  0.007 sec ( 51.771%)
 molecular gradient             ...        0 min,  0.005 sec ( 34.021%)
 printout                       ...        0 min,  0.000 sec (  1.024%)

         :::::::::::::::::::::::::::::::::::::::::::::::::::::
         ::                     SUMMARY                     ::
         :::::::::::::::::::::::::::::::::::::::::::::::::::::
         :: total energy             -24.051695003208 Eh    ::
         :: gradient norm              0.006339516431 Eh/a0 ::
         :: HOMO-LUMO gap             11.797998343392 eV    ::
         ::.................................................::
         :: SCC energy               -24.360113506838 Eh    ::
         :: -> isotropic ES            0.028998525827 Eh    ::
         :: -> anisotropic ES          0.005964614444 Eh    ::
         :: -> anisotropic XC          0.009613179053 Eh    ::
         :: -> dispersion             -0.013462722174 Eh    ::
         :: repulsion energy           0.308418503630 Eh    ::
         :: add. restraining           0.000000000000 Eh    ::
         :: total charge               0.000000000000 e     ::
         :::::::::::::::::::::::::::::::::::::::::::::::::::::

           -------------------------------------------------
          |                Property Printout                |
           -------------------------------------------------

    * Orbital Energies and Occupations

         #    Occupation            Energy/Eh            Energy/eV
      -------------------------------------------------------------
         1        2.0000           -0.6779323             -18.4475
       ...           ...                  ...                  ...
        10        2.0000           -0.5125209             -13.9464
        11        2.0000           -0.5108659             -13.9014
        12        2.0000           -0.4911803             -13.3657
        13        2.0000           -0.4789446             -13.0327
        14        2.0000           -0.4770980             -12.9825
        15        2.0000           -0.4653526             -12.6629
        16        2.0000           -0.4606972             -12.5362
        17        2.0000           -0.4518764             -12.2962
        18        2.0000           -0.4476842             -12.1821
        19        2.0000           -0.4397077             -11.9651
        20        2.0000           -0.4308363             -11.7237
        21        2.0000           -0.4186853             -11.3930
        22        2.0000           -0.3971592             -10.8073 (HOMO)
        23                          0.0364092               0.9907 (LUMO)
        24                          0.0630555               1.7158
        25                          0.0822181               2.2373
        26                          0.1031191               2.8060
        27                          0.1092479               2.9728
        28                          0.1267303               3.4485
        29                          0.1376275               3.7450
        30                          0.1426542               3.8818
        31                          0.1589777               4.3260
        32                          0.1785767               4.8593
        33                          0.2025316               5.5112
       ...                                ...                  ...
        42                          0.3240522               8.8179
      -------------------------------------------------------------
                  HL-Gap            0.4335685 Eh           11.7980 eV
             Fermi-level           -0.1803750 Eh           -4.9083 eV

     #   Z          covCN         q      C6AA      α(0)
     1   6 C        3.750    -0.101    22.498     6.765
     2   6 C        3.798    -0.067    21.794     6.647
     3   6 C        3.723     0.103    18.981     6.222
     4   1 H        0.924     0.038     2.471     2.458
     5   6 C        3.847    -0.028    21.036     6.524
     6   6 C        3.754    -0.103    22.521     6.767
     7   6 C        3.755    -0.110    22.650     6.786
     8   8 O        1.654    -0.450    21.847     6.310
     9   1 H        0.925     0.033     2.551     2.498
    10   1 H        0.925     0.042     2.425     2.435
    11   1 H        0.925     0.034     2.534     2.489
    12   1 H        0.925     0.034     2.527     2.486
    13   1 H        0.924     0.035     2.514     2.480
    14   1 H        0.924     0.039     2.458     2.452
    15   1 H        0.925     0.035     2.511     2.478
    16   1 H        0.925     0.028     2.612     2.527
    17   1 H        0.925     0.039     2.456     2.451
    18   1 H        0.925     0.040     2.454     2.450
    19   1 H        0.925     0.035     2.518     2.481
    20   1 H        0.925     0.035     2.519     2.482
    21   1 H        0.805     0.288     0.758     1.368

 Mol. C6AA /au·bohr⁶  :       2901.234789
 Mol. C8AA /au·bohr⁸  :      59988.234925
 Mol. α(0) /au        :         79.554647


Wiberg/Mayer (AO) data.
largest (>0.10) Wiberg bond orders for each atom

 ---------------------------------------------------------------------------
     #   Z sym  total        # sym  WBO       # sym  WBO       # sym  WBO
 ---------------------------------------------------------------------------
     1   6 C    3.997 --     2 C    1.020     9 H    0.986    10 H    0.986
                            11 H    0.984
     2   6 C    3.997 --     1 C    1.020     3 C    0.981    13 H    0.980
                            12 H    0.973
     3   6 C    3.953 --     8 O    0.992     2 C    0.981     5 C    0.973
                             4 H    0.964
     4   1 H    0.999 --     3 C    0.964
     5   6 C    3.994 --     6 C    1.010     7 C    1.009     3 C    0.973
                            14 H    0.967
     6   6 C    3.997 --     5 C    1.010    15 H    0.985    17 H    0.984
                            16 H    0.983
     7   6 C    3.996 --     5 C    1.009    19 H    0.986    18 H    0.986
                            20 H    0.983
     8   8 O    1.964 --     3 C    0.992    21 H    0.895
     9   1 H    0.999 --     1 C    0.986
    10   1 H    0.998 --     1 C    0.986
    11   1 H    0.999 --     1 C    0.984
    12   1 H    0.999 --     2 C    0.973
    13   1 H    0.999 --     2 C    0.980
    14   1 H    0.998 --     5 C    0.967
    15   1 H    0.999 --     6 C    0.985
    16   1 H    0.999 --     6 C    0.983
    17   1 H    0.998 --     6 C    0.984
    18   1 H    0.998 --     7 C    0.986
    19   1 H    0.999 --     7 C    0.986
    20   1 H    0.999 --     7 C    0.983
    21   1 H    0.917 --     8 O    0.895
 ---------------------------------------------------------------------------

Topologies differ in total number of bonds
Writing topology from bond orders to xtbtopo.mol

molecular dipole:
                 x           y           z       tot (Debye)
 q only:       -0.138      -0.587       0.127
   full:       -0.161      -0.792       0.128       2.079
molecular quadrupole (traceless):
                xx          xy          yy          xz          yz          zz
 q only:        0.957      -1.647      -2.503      -0.304       2.391       1.546
  q+dip:        1.230      -1.951      -2.906       0.720       3.156       1.675
   full:        1.126      -2.081      -3.109       0.164       3.285       1.983


           -------------------------------------------------
          | TOTAL ENERGY              -24.051695003208 Eh   |
          | GRADIENT NORM               0.006339516431 Eh/α |
          | HOMO-LUMO GAP              11.797998343392 eV   |
           -------------------------------------------------

------------------------------------------------------------------------
 * finished run on 2025/04/11 at 12:15:00.622     
------------------------------------------------------------------------
 total:
 * wall-time:     0 d,  0 h,  0 min,  0.046 sec
 *  cpu-time:     0 d,  0 h,  0 min,  0.020 sec
 * ratio c/w:     0.449 speedup
 SCF:
 * wall-time:     0 d,  0 h,  0 min,  0.014 sec
 *  cpu-time:     0 d,  0 h,  0 min,  0.013 sec
 * ratio c/w:     0.945 speedup

