24
 energy: -25.306445089266 gnorm: 0.020829893023 xtb: 6.7.1 (edcfbbe)
C           -2.67032490906002       -1.19676948371666       -0.42013882117641
C           -2.46439246897785        0.10717073425796        0.35114606314354
C           -1.19370209189920        0.89202488752470        0.00425654583482
C            0.12726901321178        0.32762388493735        0.53700624811441
C            0.59882420779876       -0.99581513941794       -0.11342639498531
C            2.12771126450007       -0.90941460418885       -0.10943409273182
C            2.37363555697785        0.55065365025942       -0.49474575433401
C            1.31470951691217        1.31835343179685        0.31585638352563
H           -3.65434168651865       -1.62406590971757       -0.19845984762703
H           -2.61976772545458       -1.02273360759502       -1.50123447026099
H           -1.92120768778054       -1.95095573260572       -0.16696404532392
H           -3.32663846513345        0.75781869608534        0.15801684594820
H           -2.47305039905667       -0.09804868257723        1.43032271599730
H           -1.11719735493206        1.00540223468599       -1.08776414723327
H           -1.30620417283007        1.90563913977471        0.41113677070448
H            0.00669680612768        0.15962456479806        1.61542834258534
H            0.22210474254164       -1.88170954216282        0.40590301063545
H            0.24367899058169       -1.04375747351429       -1.15138212871565
H            2.51162840392748       -1.09803177939466        0.90183304801501
H            2.60142238956890       -1.62614236027829       -0.78829980588546
H            3.39428969218843        0.89076397840842       -0.29310219710926
H            2.18811286856011        0.67424453522706       -1.56896802656692
H            1.73040061905513        1.62775013881736        1.28085642997882
H            0.98613471534390        2.22811391908999       -0.19804223206990
24
 energy: -25.307426759147 gnorm: 0.006630749975 xtb: 6.7.1 (edcfbbe)
C           -2.66445683447317       -1.18954316924100       -0.42021278427269
C           -2.45347004979325        0.10525122294823        0.35460716334052
C           -1.18531285927174        0.88282757944741       -0.00921373747945
C            0.12888911413958        0.32096435122941        0.53932987160623
C            0.59699460075274       -0.99144920414108       -0.11655199502458
C            2.12036112062502       -0.90405431163911       -0.10761306786283
C            2.36150118843871        0.55105299443080       -0.49229047176495
C            1.30524859734472        1.31090892235414        0.31629367305822
H           -3.64678877892936       -1.60351101515616       -0.19256834977664
H           -2.61470901606323       -1.00818762797352       -1.49398858090884
H           -1.91921272806871       -1.93786110322562       -0.16382514264197
H           -3.31030122889751        0.75734900822507        0.15718275721221
H           -2.45271341708378       -0.10774297661904        1.42847591482745
H           -1.11570201092148        0.98165343798679       -1.09828653318545
H           -1.29932854008642        1.89222147026321        0.40022738333045
H            0.00649132830707        0.15529575132386        1.61550552961038
H            0.23270556069543       -1.87168306468933        0.41265146583641
H            0.24307428993646       -1.03774634392929       -1.14994152792229
H            2.50328213985939       -1.09390196506708        0.89890664945244
H            2.58839747831516       -1.61155540757257       -0.79283163590733
H            3.37566278892692        0.88846515796714       -0.27703956660060
H            2.18014659992895        0.67865221018908       -1.56256295647980
H            1.72065739228334        1.61828725074219        1.27779927763182
H            0.97837508968768        2.21204631264063       -0.20425289561568
24
 energy: -25.307545408441 gnorm: 0.001807362002 xtb: 6.7.1 (edcfbbe)
C           -2.66456424385963       -1.18733996444051       -0.42007159811748
C           -2.45043749973207        0.10584964382751        0.35666138870869
C           -1.18295971236504        0.88098138329174       -0.01466888327732
C            0.12938106053696        0.31890501166705        0.53705620540498
C            0.59664643700675       -0.99252423317262       -0.11460067933140
C            2.11881815399310       -0.90302588988792       -0.11086129041103
C            2.35918715025087        0.55269989367460       -0.48868029571936
C            1.30138532325474        1.30928587359090        0.31829432998413
H           -3.64571649892371       -1.59767548879024       -0.19117991332437
H           -2.61529186261015       -1.00088952893935       -1.49037638832577
H           -1.91974783928105       -1.93339423317507       -0.16514129494758
H           -3.30538098261951        0.75977410920990        0.16464334012090
H           -2.43903406347135       -0.11023299631073        1.42756548446681
H           -1.11375463585129        0.96251031854163       -1.10226700683937
H           -1.29443021679296        1.89309893059741        0.38522909301094
H            0.00048952090833        0.15463262760297        1.61130448414118
H            0.23803613569677       -1.87122075079194        0.41856345455842
H            0.24171689048580       -1.03947233970767       -1.14481787634121
H            2.50251453180070       -1.09544739380183        0.89249762635974
H            2.58375771463385       -1.60571423822101       -0.80083893095002
H            3.37054450859644        0.88921324677861       -0.26623761505145
H            2.18151863003478        0.68370366743247       -1.55721421029149
H            1.71457100095946        1.61739249554509        1.27885146546979
H            0.97254232300073        2.20662933597320       -0.20391044883468
24
 energy: -25.307595691961 gnorm: 0.002053673448 xtb: 6.7.1 (edcfbbe)
C           -2.66869793628116       -1.18487043867008       -0.41992350732058
C           -2.44890799131611        0.10656718379690        0.36051607312708
C           -1.18179315539093        0.87747356716451       -0.02348174838985
C            0.12866401360395        0.31813982606294        0.53738694571990
C            0.59702493887727       -0.99310795907337       -0.11289539411390
C            2.12000063438046       -0.90237405425040       -0.11396837348288
C            2.36073692644685        0.55563637300538       -0.48446390559344
C            1.29915794068838        1.30887064650600        0.32167635647966
H           -3.64930871461770       -1.59359580504928       -0.18896455967928
H           -2.62172180733866       -0.99387387961615       -1.48895428557461
H           -1.92339955288963       -1.93110208735060       -0.16875963556697
H           -3.30398568269003        0.76204807417952        0.17850256624429
H           -2.42562154008418       -0.11265075263638        1.42973949425662
H           -1.11228312943533        0.94106754118699       -1.11138084308524
H           -1.29059582813773        1.89483658421946        0.36162201495806
H           -0.00773736040855        0.15509856445849        1.61083883128667
H            0.24328727992737       -1.87109016934625        0.42417557410957
H            0.23902203747918       -1.04438564555826       -1.14114799868648
H            2.50705445921078       -1.10095503292585        0.88632173637912
H            2.58152963419309       -1.60023164519519       -0.81065391518005
H            3.37067255232176        0.89058148541829       -0.25473104374699
H            2.18806670523522        0.69229265716497       -1.55259418921427
H            1.70943845486422        1.61856160666179        1.28253234496474
H            0.96918894701402        2.20480284034075       -0.20159209742810
24
 energy: -25.307623769051 gnorm: 0.001363457504 xtb: 6.7.1 (edcfbbe)
C           -2.67506937195376       -1.18334718827629       -0.41933326616231
C           -2.44812524930796        0.10662161127642        0.36223031778835
C           -1.18173129147865        0.87476497219187       -0.03015274982344
C            0.12832925936964        0.31865612434707        0.53611329589836
C            0.59886411653204       -0.99403417615294       -0.11132417777180
C            2.12235012592610       -0.90189276857496       -0.11602978544563
C            2.36322984813641        0.55818304289328       -0.48057178345351
C            1.29924489721969        1.31012153636406        0.32459875686293
H           -3.65547676670566       -1.59162485433831       -0.18507137211662
H           -2.63253642892540       -0.99015478975708       -1.48860215405962
H           -1.92918327272379       -1.93140610899362       -0.17323322109594
H           -3.30446364472699        0.76309005189034        0.18928979949235
H           -2.41671516696806       -0.11528423476128        1.43091920381143
H           -1.11223893826270        0.92668930860194       -1.11894653942338
H           -1.28983835270763        1.89676046146847        0.34307148898892
H           -0.01209851570870        0.15657887427337        1.60932734159378
H            0.24743106015979       -1.87161367269953        0.42863273527509
H            0.23816756520415       -1.04940242206912       -1.13886905973764
H            2.51280922320373       -1.10602172702064        0.88218212393401
H            2.58180032117367       -1.59651237311082       -0.81773839850737
H            3.37265723973767        0.89200730560957       -0.24585587767858
H            2.19485803583276        0.69924490598119       -1.54909726264380
H            1.70736674534159        1.61940456823298        1.28685529369057
H            0.97016038728458        2.20691103311824       -0.19859426895305
24
 energy: -25.307636035693 gnorm: 0.000763505318 xtb: 6.7.1 (edcfbbe)
C           -2.68570989007673       -1.18119965473953       -0.41838395386819
C           -2.44645948976810        0.10599698780787        0.36390529137251
C           -1.18145869703041        0.86982956244975       -0.04048946506801
C            0.12761852392712        0.31960757519388        0.53415851986914
C            0.60232466250995       -0.99442703928774       -0.10958358859403
C            2.12597764284045       -0.90008612589480       -0.11821255983278
C            2.36769376354328        0.56216412602065       -0.47479642259081
C            1.29985002904634        1.31130178066918        0.32832281523746
H           -3.66504667598712       -1.58823950711147       -0.17521480634032
H           -2.65436395109442       -0.98630365485515       -1.48839778560870
H           -1.93899817869435       -1.93281706188033       -0.18261949035265
H           -3.30387522696978        0.76494769138398        0.20408449457473
H           -2.40399310913918       -0.11935196447632        1.43201616216666
H           -1.11199766001244        0.90667551342221       -1.13040185585501
H           -1.28926122932669        1.89779875551459        0.31665401615288
H           -0.01800864770512        0.15907460907982        1.60708568238511
H            0.25312137400988       -1.87061241417242        0.43478991391499
H            0.23863115499326       -1.05622623752739       -1.13636567221049
H            2.52123602796878       -1.11219090870523        0.87692121316712
H            2.58317489346461       -1.58982605941912       -0.82664282090365
H            3.37637866291066        0.89452238373522       -0.23319779219274
H            2.20562111796120        0.70876475279424       -1.54388240356481
H            1.70412661747931        1.61798095837243        1.29343244613249
H            0.97321011080207        2.21035541211988       -0.19338149752780
24
 energy: -25.307609865594 gnorm: 0.002420641792 xtb: 6.7.1 (edcfbbe)
C           -2.69624380183869       -1.17907076281777       -0.41744724531738
C           -2.44482227622893        0.10537791971424        0.36558638396035
C           -1.18121092468137        0.86494166377854       -0.05073238729254
C            0.12689672514558        0.32056773245218        0.53224660782418
C            0.60574168257277       -0.99480729842347       -0.10784101676500
C            2.12957095517716       -0.89829876198656       -0.12039709363749
C            2.37214825853591        0.56611280353482       -0.46907170341357
C            1.30045793390305        1.31246890000161        0.33201165068248
H           -3.67454992711752       -1.58488247042118       -0.16553274576442
H           -2.67590443973260       -0.98249096302137       -1.48820964911176
H           -1.94873808888722       -1.93424053082104       -0.19187880804547
H           -3.30333104627188        0.76677654539041        0.21879729494433
H           -2.39138656562565       -0.12338935799261        1.43313305100823
H           -1.11177725298972        0.88682731651455       -1.14176818388500
H           -1.28871276675793        1.89885569218095        0.29043401820496
H           -0.02387728263461        0.16156999511488        1.60489678930603
H            0.25874980342773       -1.86961105262260        0.44092387195237
H            0.23904755547923       -1.06300724606848       -1.13386793129727
H            2.52961767548652       -1.11834669750833        0.87167721373892
H            2.58451131952816       -1.58320004514183       -0.83551734631097
H            3.38010898950838        0.89700073377424       -0.22064076528903
H            2.21633043873326        0.71822374437295       -1.53872065886901
H            1.70091620098306        1.61659100614572        1.29995107180921
H            0.97624865993787        2.21377061434436       -0.18823197796899
24
 energy: -25.307636221696 gnorm: 0.000907906425 xtb: 6.7.1 (edcfbbe)
C           -2.68987301588864       -1.18055449060563       -0.41799054562471
C           -2.44569872071728        0.10566175601168        0.36387673607876
C           -1.18100557774851        0.86803587239399       -0.04383902253680
C            0.12771280777595        0.31965569604883        0.53295759947181
C            0.60397357326288       -0.99469844118374       -0.10942124221619
C            2.12743333758980       -0.89933283705461       -0.11829192327966
C            2.36882915254247        0.56343506408399       -0.47294560468966
C            1.30011189293279        1.31179937183265        0.32944160705829
H           -3.66819488694548       -1.58733134507759       -0.16964807407938
H           -2.66464080294963       -0.98528647505385       -1.48826306164258
H           -1.94233482816481       -1.93312907234606       -0.18719072036918
H           -3.30300775383743        0.76576417889875        0.20777544984947
H           -2.40020765028463       -0.12056663432457        1.43179632710370
H           -1.11166866348801        0.90108766512610       -1.13392378199681
H           -1.28886847353870        1.89738545601100        0.30921135210768
H           -0.01936953466203        0.15957857159908        1.60574108484320
H            0.25510997150836       -1.87040318149714        0.43601894333325
H            0.24001722315667       -1.05817679347961       -1.13610090242554
H            2.52362696486207       -1.11323075438698        0.87612494525565
H            2.58462836418667       -1.58767221521152       -0.82813685493357
H            3.37714132798237        0.89576850420348       -0.22958584199166
H            2.20853030451618        0.71123019288533       -1.54216732058838
H            1.70318962926656        1.61691492233553        1.29563136941736
H            0.97435718429493        2.21180446928510       -0.19127007768188
24
 energy: -25.307641741097 gnorm: 0.000322687860 xtb: 6.7.1 (edcfbbe)
C           -2.68532384117789       -1.18171604014966       -0.41838275751156
C           -2.44662729518617        0.10603670880000        0.36215037693491
C           -1.18074673963146        0.87045396368298       -0.03833357344272
C            0.12829535709265        0.31846968352438        0.53340382065421
C            0.60302822131216       -0.99462053352915       -0.11114128604843
C            2.12615821167741       -0.89987693322715       -0.11585986439040
C            2.36637771283264        0.56132350037090       -0.47629617144776
C            1.29991505986385        1.31068249744284        0.32736216191169
H           -3.66235812736545       -1.59040243769291       -0.16986009432875
H           -2.65979105398416       -0.98725381060253       -1.48825758181646
H           -1.93616706884393       -1.93133623588278       -0.18587059672104
H           -3.30261851377188        0.76541870476317        0.19790031861079
H           -2.40777333928443       -0.11775889750735        1.43047723643930
H           -1.11148905456384        0.91297326209285       -1.12770570775419
H           -1.28878583134751        1.89593600927014        0.32511677354427
H           -0.01581524279136        0.15719941473612        1.60625349386754
H            0.25216589176779       -1.87127084229860        0.43089368325662
H            0.24222106100584       -1.05367545948160       -1.13868720536816
H            2.51831084502818       -1.10771594194145        0.88103136345275
H            2.58619168428991       -1.59135296536059       -0.82043911311223
H            3.37497771722039        0.89540492406742       -0.23778517498532
H            2.20164404946346        0.70486800312249       -1.54514152735295
H            1.70511348410280        1.61613906924412        1.29225240524014
H            0.97288863794352        2.20981383705058       -0.19328053916911
24
 energy: -25.307643915165 gnorm: 0.000170523721 xtb: 6.7.1 (edcfbbe)
C           -2.68776077430535       -1.18114609578782       -0.41814514640009
C           -2.44640121497181        0.10609558098331        0.36240849641577
C           -1.18057431480017        0.86928245312487       -0.04056595042166
C            0.12828563083482        0.31841491971088        0.53281367530742
C            0.60394878178382       -0.99485994238475       -0.11110913944810
C            2.12712412193216       -0.89953334299882       -0.11594290121763
C            2.36712111543772        0.56209482980548       -0.47511576475639
C            1.30000244040612        1.31095486747175        0.32825381774925
H           -3.66368543878081       -1.59063251828673       -0.16615615506924
H           -2.66653279750702       -0.98595888521016       -1.48811286063738
H           -1.93723349645874       -1.93067816043935       -0.18919073654646
H           -3.30244186732882        0.76606953545029        0.20065323873675
H           -2.40543766063278       -0.11827099488749        1.43058734392818
H           -1.11136960828040        0.90887726885258       -1.13006703682257
H           -1.28835903231352        1.89590295514259        0.31965259825262
H           -0.01702130812564        0.15725423974518        1.60555125596389
H            0.25347396838613       -1.87145166908774        0.43141971927449
H            0.24300109494549       -1.05493311445321       -1.13867827297614
H            2.51973738296599       -1.10836659176848        0.88063467679099
H            2.58715913994220       -1.59028051046624       -0.82129583328001
H            3.37555120320093        0.89612027727193       -0.23559970538248
H            2.20330639302817        0.70648140344375       -1.54404588748234
H            1.70448778542384        1.61566688454758        1.29375975390048
H            0.97341028087021        2.21063609071481       -0.19190874541620
24
 energy: -25.307646568726 gnorm: 0.000262509393 xtb: 6.7.1 (edcfbbe)
C           -2.69088765821293       -1.18031446906525       -0.41774698960612
C           -2.44630816511249        0.10647607408001        0.36253561737094
C           -1.18037950316701        0.86798881949264       -0.04335848936748
C            0.12806242404269        0.31787253180318        0.53191998700967
C            0.60536359305057       -0.99518016318831       -0.11159695995288
C            2.12857521386951       -0.89892738706769       -0.11530084974829
C            2.36811874360997        0.56295735726164       -0.47387525331826
C            1.30006822597210        1.31062170871044        0.32940344494591
H           -3.66374980535127       -1.59272695284289       -0.15834423531397
H           -2.67893557213487       -0.98370661693488       -1.48773258302433
H           -1.93643828352153       -1.92826622918980       -0.19598394690197
H           -3.30219997508939        0.76733230945681        0.20322717427795
H           -2.40297827592876       -0.11825098959373        1.43063247773694
H           -1.11128841737787        0.90392634345656       -1.13310236546363
H           -1.28754517638879        1.89599282871547        0.31329813891126
H           -0.01872718849769        0.15643779945544        1.60444790826978
H            0.25485720503135       -1.87200350753092        0.43067817278348
H            0.24524674551553       -1.05569661730952       -1.13956511882283
H            2.52065723839610       -1.10791930445779        0.88155490961703
H            2.58959877079889       -1.58920598516522       -0.82054498797412
H            3.37634298128199        0.89745736137571       -0.23382902219386
H            2.20459500475352        0.70772868189089       -1.54287131373313
H            1.70368041496521        1.61401027390577        1.29576131395315
H            0.97406328514770        2.21113561323565       -0.18980658899207
24
 energy: -25.307648119126 gnorm: 0.000295610089 xtb: 6.7.1 (edcfbbe)
C           -2.69397030417893       -1.17935379087202       -0.41734748347256
C           -2.44620270732949        0.10698032091169        0.36256660553647
C           -1.17990030010963        0.86651164525533       -0.04609149483699
C            0.12824795903257        0.31705106982231        0.53058978726962
C            0.60689936757700       -0.99570880199109       -0.11261285698809
C            2.13003463809185       -0.89847622031010       -0.11410992240490
C            2.36853502381223        0.56358239968358       -0.47259897196987
C            1.29999427714475        1.31059691924169        0.33050598694060
H           -3.66267771427727       -1.59574745947132       -0.14882033346989
H           -2.69346941093157       -0.98087615187456       -1.48707663145060
H           -1.93446031271116       -1.92474336894599       -0.20440077500257
H           -3.30179861956296        0.76874473818070        0.20532056629636
H           -2.40071728826979       -0.11798431248633        1.43053414033960
H           -1.11115885177106        0.89947017723888       -1.13589869048398
H           -1.28620978659620        1.89554110730132        0.30775881952234
H           -0.02003801149931        0.15516154051726        1.60283003563329
H            0.25620240177543       -1.87297146298725        0.42886665451789
H            0.24835381944186       -1.05605600510509       -1.14116315850875
H            2.52078906412686       -1.10667003072153        0.88344326695959
H            2.59262288118114       -1.58872065439081       -0.81837052412093
H            3.37643879493609        0.89889267250319       -0.23245044454549
H            2.20501950149159        0.70818764025995       -1.54162211144621
H            1.70286113720008        1.61249868981566        1.29764764140278
H            0.97439626707846        2.21182881891874       -0.18769966525456
24
 energy: -25.307647158209 gnorm: 0.000591026827 xtb: 6.7.1 (edcfbbe)
C           -2.69691389966637       -1.17843500150405       -0.41696269009040
C           -2.44609963812265        0.10746861879336        0.36258976058758
C           -1.17942206610353        0.86507984563545       -0.04872153154218
C            0.12845471224523        0.31627207255798        0.52930627460153
C            0.60836358438612       -0.99622971053386       -0.11358725198712
C            2.13142361600638       -0.89806126238926       -0.11298153412321
C            2.36889160525329        0.56417877524721       -0.47136612823821
C            1.29992732012097        1.31062279989075        0.33158581437695
H           -3.66166659490015       -1.59862571718261       -0.13971861614034
H           -2.70734027383593       -0.97818759451224       -1.48646233826845
H           -1.93256728085291       -1.92138222622434       -0.21241507861857
H           -3.30142243712341        0.77009373594565        0.20731272970737
H           -2.39855808097852       -0.11771568097257        1.43043813562147
H           -1.11101383511757        0.89520082437677       -1.13858946277479
H           -1.28491397124728        1.89509418251814        0.30243653910038
H           -0.02127437784753        0.15395213257706        1.60127102768535
H            0.25750042634805       -1.87391645362268        0.42714002242381
H            0.25130773876506       -1.05642253950261       -1.14269234010518
H            2.52092670108868       -1.10549159197274        0.88523368146116
H            2.59549370986740       -1.58827766634862       -0.81630973848084
H            3.37649123755286        0.90025775810472       -0.23112986500826
H            2.20538637324384        0.70863474100747       -1.54041602821354
H            1.70209948922750        1.61107387008160        1.29948101619638
H            0.97471776734306        2.21255556852364       -0.18564195770769
24
 energy: -25.307648417139 gnorm: 0.000127134472 xtb: 6.7.1 (edcfbbe)
C           -2.69485317542655       -1.17908362478365       -0.41730711801217
C           -2.44620564539091        0.10707026789934        0.36259346864032
C           -1.17996476375028        0.86634593417192       -0.04658567080851
C            0.12803324228957        0.31671281141858        0.53029630313304
C            0.60739434633502       -0.99571805757541       -0.11291346755832
C            2.13052084182594       -0.89819684704667       -0.11351866538709
C            2.36900661639253        0.56369551523120       -0.47245586304012
C            1.29994412077631        1.31006237841197        0.33051512174852
H           -3.66190627810700       -1.59703466920147       -0.14577955733278
H           -2.69833377792353       -0.97977828359944       -1.48671647637939
H           -1.93361355349313       -1.92342066918307       -0.20759823941250
H           -3.30161887707131        0.76914346688542        0.20588993176682
H           -2.40012601131709       -0.11801907138696        1.43047790478305
H           -1.11135960989200        0.89861437618159       -1.13638057385065
H           -1.28600139953176        1.89552399479629        0.30680939978987
H           -0.02048274906946        0.15460789580849        1.60245992010637
H            0.25639152718193       -1.87311694444482        0.42810621332286
H            0.24958995138340       -1.05577643335062       -1.14170361256009
H            2.52053194825738       -1.10588110032178        0.88440441167551
H            2.59384315071292       -1.58854027714111       -0.81715903937446
H            3.37680942162129        0.89937952082826       -0.23239224401317
H            2.20528794507398        0.70798742390868       -1.54146904661732
H            1.70247768831758        1.61183364147656        1.29780546825607
H            0.97442686645773        2.21132823151088       -0.18757812841269
24
 energy: -25.307648506618 gnorm: 0.000047075969 xtb: 6.7.1 (edcfbbe)
C           -2.69419512368987       -1.17917315806588       -0.41753077543470
C           -2.44617091163100        0.10689332480814        0.36275253590766
C           -1.17998277929406        0.86654010984436       -0.04600012057693
C            0.12816749919727        0.31682285322555        0.53042727060163
C            0.60707342234401       -0.99568174756408       -0.11289851765350
C            2.13018908494954       -0.89837540103396       -0.11350161292577
C            2.36876230535432        0.56346187702923       -0.47263683510977
C            1.29986981541917        1.31028801456815        0.33012057380498
H           -3.66173365059604       -1.59663122144483       -0.14708399397058
H           -2.69634323313457       -0.97985068834833       -1.48691662106395
H           -1.93353211597873       -1.92379599151581       -0.20685371480352
H           -3.30165970054255        0.76880983405727        0.20578478686982
H           -2.40036183517872       -0.11832912551089        1.43062049590133
H           -1.11143506267798        0.89953399031146       -1.13579640656698
H           -1.28614424950341        1.89542934633008        0.30822521766683
H           -0.01995708984495        0.15482332421767        1.60265866755665
H            0.25600692117152       -1.87303404140505        0.42812381138121
H            0.24921815171340       -1.05560908452645       -1.14165489853460
H            2.52018412222824       -1.10593657451400        0.88443889968292
H            2.59337411231324       -1.58888566376595       -0.81706535747985
H            3.37656657739670        0.89906766306607       -0.23254745114103
H            2.20516997187157        0.70757285712481       -1.54168289087744
H            1.70251152014263        1.61253858047445        1.29720143690877
H            0.97421407362279        2.21126040313221       -0.18838405967999
