      -----------------------------------------------------------      
     |                   =====================                   |     
     |                           x T B                           |     
     |                   =====================                   |     
     |                         S. Grimme                         |     
     |          Mulliken Center for Theoretical Chemistry        |     
     |                    University of Bonn                     |     
      -----------------------------------------------------------      

   * xtb version 6.7.1 (edcfbbe) compiled by 'albert@albert-system' on 2024-07-22

   xtb is free software: you can redistribute it and/or modify it under
   the terms of the GNU Lesser General Public License as published by
   the Free Software Foundation, either version 3 of the License, or
   (at your option) any later version.
   
   xtb is distributed in the hope that it will be useful,
   but WITHOUT ANY WARRANTY; without even the implied warranty of
   MERCHANTABILITY or FITNESS FOR A PARTICULAR PURPOSE.  See the
   GNU Lesser General Public License for more details.
   
   Cite this work as:
   * C. Bannwarth, E. Caldeweyher, S. Ehlert, A. Hansen, P. Pracht,
     J. Seibert, S. Spicher, S. Grimme, WIREs Comput. Mol. Sci., 2020, 11,
     e01493. DOI: 10.1002/wcms.1493
   
   for GFN2-xTB:
   * C. Bannwarth, S. Ehlert and S. Grimme., J. Chem. Theory Comput., 2019,
     15, 1652-1671. DOI: 10.1021/acs.jctc.8b01176
   for GFN1-xTB:
   * S. Grimme, C. Bannwarth, P. Shushkov, J. Chem. Theory Comput., 2017,
     13, 1989-2009. DOI: 10.1021/acs.jctc.7b00118
   for GFN0-xTB:
   * P. Pracht, E. Caldeweyher, S. Ehlert, S. Grimme, ChemRxiv, 2019, preprint.
     DOI: 10.26434/chemrxiv.8326202.v1
   for GFN-FF:
   * S. Spicher and S. Grimme, Angew. Chem. Int. Ed., 2020, 59, 15665-15673.
     DOI: 10.1002/anie.202004239
   
   for ALPB and GBSA implicit solvation:
   * S. Ehlert, M. Stahn, S. Spicher, S. Grimme, J. Chem. Theory Comput.,
     2021, 17, 4250-4261. DOI: 10.1021/acs.jctc.1c00471
   
   for ddCOSMO and CPCM-X implicit solvation:
   * M. Stahn, S. Ehlert, S. Grimme, J. Phys. Chem. A,
     2023, XX, XXXX-XXXX. DOI: 10.1021/acs.jpca.3c04382
   
   for DFT-D4:
   * E. Caldeweyher, C. Bannwarth and S. Grimme, J. Chem. Phys., 2017,
     147, 034112. DOI: 10.1063/1.4993215
   * E. Caldeweyher, S. Ehlert, A. Hansen, H. Neugebauer, S. Spicher,
     C. Bannwarth and S. Grimme, J. Chem. Phys., 2019, 150, 154122.
     DOI: 10.1063/1.5090222
   * E. Caldeweyher, J.-M. Mewes, S. Ehlert and S. Grimme, Phys. Chem. Chem. Phys.
     2020, 22, 8499-8512. DOI: 10.1039/D0CP00502A
   
   for sTDA-xTB:
   * S. Grimme and C. Bannwarth, J. Chem. Phys., 2016, 145, 054103.
     DOI: 10.1063/1.4959605
   
   in the mass-spec context:
   * V. Asgeirsson, C. Bauer and S. Grimme, Chem. Sci., 2017, 8, 4879.
     DOI: 10.1039/c7sc00601b
   * J. Koopman and S. Grimme, ACS Omega 2019, 4, 12, 15120-15133.
     DOI: 10.1021/acsomega.9b02011
   
   for metadynamics refer to:
   * S. Grimme, J. Chem. Theory Comput., 2019, 155, 2847-2862
     DOI: 10.1021/acs.jctc.9b00143
   
   for SPH calculations refer to:
   * S. Spicher and S. Grimme, J. Chem. Theory Comput., 2021, 17, 1701-1714
     DOI: 10.1021/acs.jctc.0c01306
   
   for ONIOM refer to:
   * C. Plett, A. Katbashev, S. Ehlert, S. Grimme, M. Bursch,
     Phys. Chem. Chem. Phys., 2023, 25, 17860-17868. DOI: 10.1039/D3CP02178E
   
   for DIPRO refer to:
   * J. Kohn, N. Gildemeister, S. Grimme, D. Fazzi, A. Hansen,
     J. Chem. Phys., 2023, just accepted.
   
   for PTB refer to:
   * S. Grimme, M. Mueller, A. Hansen, J. Chem. Phys., 2023, 158, 124111.
     DOI: 10.1063/5.0137838
   
   with help from (in alphabetical order)
   P. Atkinson, C. Bannwarth, F. Bohle, G. Brandenburg, E. Caldeweyher
   M. Checinski, S. Dohm, S. Ehlert, S. Ehrlich, I. Gerasimov, C. Hölzer
   A. Katbashev, J. Kohn, J. Koopman, C. Lavigne, S. Lehtola, F. März, M. Müller,
   F. Musil, H. Neugebauer, J. Pisarek, C. Plett, P. Pracht, F. Pultar,
   J. Seibert, P. Shushkov, S. Spicher, M. Stahn, M. Steiner, T. Strunk,
   J. Stückrath, T. Rose, and J. Unsleber
   
 * started run on 2025/04/11 at 11:57:48.297     
   ID    Z sym.   atoms
    1    6 C      1-4, 6-11
    2    1 H      5, 13-25
    3    8 O      12

           -------------------------------------------------
          |                Calculation Setup                |
           -------------------------------------------------

          program call               : /srv/scratch/z5358697/.xtb/bin/xtb xtb_rrho.coord --gfn2 --bhess vtight --chrg 0 --enso --norestart -I rrho-xcontrol-inp --parallel 1 --alpb water
          hostname                   : k063
          coordinate file            : xtb_rrho.coord
          omp threads                :                     1


           -------------------------------------------------
          |                 G F N 2 - x T B                 |
           -------------------------------------------------

        Reference                      10.1021/acs.jctc.8b01176
      * Hamiltonian:
        H0-scaling (s, p, d)           1.850000    2.230000    2.230000
        zeta-weighting                 0.500000
      * Dispersion:
        s8                             2.700000
        a1                             0.520000
        a2                             5.000000
        s9                             5.000000
      * Repulsion:
        kExp                           1.500000    1.000000
        rExp                           1.000000
      * Coulomb:
        alpha                          2.000000
        third order                    shell-resolved
        anisotropic                    true
        a3                             3.000000
        a5                             4.000000
        cn-shift                       1.200000
        cn-exp                         4.000000
        max-rad                        5.000000

      * Solvation model:               ALPB
        Solvent                        water
        Parameter file                 internal GFN2-xTB/ALPB
        Dielectric constant                8.0200E+01
        Reference state                gsolv [1 M gas/solution]
        Free energy shift                  1.0808E-03 Eh       6.7819E-01 kcal/mol
        Temperature                        2.9815E+02 K
        Density                            1.0000E+00 kg/L
        Solvent mass                       1.8000E+01 g/mol
        Interaction kernel             P16
        Born radius scaling (c1)           1.4744E+00
        Born radii integrator          GBOBC
        Born offset                        0.0000E+00 a0       0.0000E+00 AA
        H-bond correction              true
        Ion screening                  false
        Surface tension                    1.0000E-05 Eh       1.5569E+01 dyn/cm
        Grid points                               974 per atom

          ...................................................
          :                      SETUP                      :
          :.................................................:
          :  # basis functions                  58          :
          :  # atomic orbitals                  58          :
          :  # shells                           36          :
          :  # electrons                        60          :
          :  max. iterations                   250          :
          :  Hamiltonian                  GFN2-xTB          :
          :  restarted?                      false          :
          :  GBSA solvation                   true          :
          :  PC potential                    false          :
          :  electronic temp.          300.0000000     K    :
          :  accuracy                    1.0000000          :
          :  -> integral cutoff          0.2500000E+02      :
          :  -> integral neglect         0.1000000E-07      :
          :  -> SCF convergence          0.1000000E-05 Eh   :
          :  -> wf. convergence          0.1000000E-03 e    :
          :  Broyden damping             0.4000000          :
          :  net charge                          0          :
          :  unpaired electrons                  0          :
          ...................................................

 iter      E             dE          RMSdq      gap      omega  full diag
   1    -32.9848172 -0.329848E+02  0.408E+00    2.69       0.0  T
   2    -33.0383911 -0.535739E-01  0.215E+00    2.39       1.0  T
   3    -33.0361871  0.220400E-02  0.121E+00    2.74       1.0  T
   4    -33.0428375 -0.665041E-02  0.434E-01    2.56       1.0  T
   5    -33.0452235 -0.238601E-02  0.104E-01    2.51       1.0  T
   6    -33.0453658 -0.142251E-03  0.461E-02    2.51       1.0  T
   7    -33.0453714 -0.556509E-05  0.183E-02    2.51       1.1  T
   8    -33.0453716 -0.276048E-06  0.947E-03    2.51       2.1  T
   9    -33.0453731 -0.148360E-05  0.326E-03    2.51       6.1  T
  10    -33.0453731 -0.323827E-07  0.114E-03    2.51      17.5  T
  11    -33.0453732 -0.422795E-08  0.487E-04    2.51      41.1  T
  12    -33.0453732 -0.878551E-09  0.136E-04    2.51     146.5  T

   *** convergence criteria satisfied after 12 iterations ***

         #    Occupation            Energy/Eh            Energy/eV
      -------------------------------------------------------------
         1        2.0000           -0.7126035             -19.3909
       ...           ...                  ...                  ...
        24        2.0000           -0.4423723             -12.0376
        25        2.0000           -0.4285991             -11.6628
        26        2.0000           -0.4250005             -11.5649
        27        2.0000           -0.4172072             -11.3528
        28        2.0000           -0.4031309             -10.9698
        29        2.0000           -0.4018073             -10.9337
        30        2.0000           -0.3847256             -10.4689 (HOMO)
        31                         -0.2924352              -7.9576 (LUMO)
        32                         -0.1990997              -5.4178
        33                         -0.1750984              -4.7647
        34                          0.0497816               1.3546
        35                          0.0720129               1.9596
       ...                                ...                  ...
        58                          0.6242244              16.9860
      -------------------------------------------------------------
                  HL-Gap            0.0922904 Eh            2.5114 eV
             Fermi-level           -0.3385804 Eh           -9.2132 eV

 SCC (total)                   0 d,  0 h,  0 min,  0.050 sec
 SCC setup                      ...        0 min,  0.002 sec (  3.601%)
 Dispersion                     ...        0 min,  0.000 sec (  0.415%)
 classical contributions        ...        0 min,  0.000 sec (  0.078%)
 integral evaluation            ...        0 min,  0.003 sec (  5.704%)
 iterations                     ...        0 min,  0.033 sec ( 65.749%)
 molecular gradient             ...        0 min,  0.012 sec ( 24.066%)
 printout                       ...        0 min,  0.000 sec (  0.348%)

         :::::::::::::::::::::::::::::::::::::::::::::::::::::
         ::                     SUMMARY                     ::
         :::::::::::::::::::::::::::::::::::::::::::::::::::::
         :: total energy             -32.572888419121 Eh    ::
         :: total w/o Gsasa/hb       -32.573035130737 Eh    ::
         :: gradient norm              0.033022297011 Eh/a0 ::
         :: HOMO-LUMO gap              2.511350090823 eV    ::
         ::.................................................::
         :: SCC energy               -33.045290797321 Eh    ::
         :: -> isotropic ES            0.040100243491 Eh    ::
         :: -> anisotropic ES          0.003472801733 Eh    ::
         :: -> anisotropic XC          0.018261199429 Eh    ::
         :: -> dispersion             -0.020096041439 Eh    ::
         :: -> Gsolv                  -0.008749541239 Eh    ::
         ::    -> Gelec               -0.008896252855 Eh    ::
         ::    -> Gsasa                0.000838914977 Eh    ::
         ::    -> Ghb                 -0.001772963059 Eh    ::
         ::    -> Gshift               0.001080759698 Eh    ::
         :: repulsion energy           0.472402378201 Eh    ::
         :: add. restraining           0.000000000000 Eh    ::
         :: total charge               0.000000000000 e     ::
         :::::::::::::::::::::::::::::::::::::::::::::::::::::

metadynamics with 1 initial structures loaded
           -------------------------------------------------
          |           Optimal kpush determination           |
           -------------------------------------------------
      ----------------------------------------------------------- 
     |                   =====================                   |
     |                        A N C O P T                        |
     |                   =====================                   |
     |               Approximate Normal Coordinate               |
     |                Rational Function Optimizer                |
      ----------------------------------------------------------- 
target rmsd / Å         0.100000
unbiased initial rmsd   0.051645
 
iter. min.        max.        rmsd       kpush
final kpush:  0.000000
           -------------------------------------------------
          |            Biased Numerical Hessian             |
           -------------------------------------------------
kpush                :   0.00000
alpha                :   1.00000
step length          :   0.00500
SCC accuracy         :   0.30000
Hessian scale factor :   1.00000
frozen atoms in %    :   0.00000    0
RMS gradient         :   0.00007
estimated CPU  time      0.04 min
estimated wall time      0.04 min

writing file <hessian>.

 projected vibrational frequencies (cm⁻¹)
eigval :       -0.00    -0.00    -0.00     0.00     0.00     0.00
eigval :       30.82    51.93   129.71   142.64   166.91   184.35
eigval :      216.92   222.45   281.49   303.17   404.05   429.43
eigval :      473.64   513.75   530.68   547.21   687.06   712.04
eigval :      787.72   817.85   828.58   893.42   916.89   927.04
eigval :      941.80   957.22   996.81  1012.47  1019.55  1042.81
eigval :     1059.85  1093.71  1118.29  1138.63  1173.39  1192.37
eigval :     1223.64  1232.17  1275.84  1286.31  1303.14  1328.09
eigval :     1344.45  1356.57  1390.64  1394.19  1419.32  1435.10
eigval :     1462.17  1475.20  1480.43  1483.90  1603.74  1694.09
eigval :     1723.98  2765.41  2935.63  2944.39  2946.62  2973.51
eigval :     2977.44  2985.27  2999.92  3001.65  3016.48  3048.07
eigval :     3057.79  3104.29  3119.21
           -------------------------------------------------
          |                Property Printout                |
           -------------------------------------------------

    * Orbital Energies and Occupations

         #    Occupation            Energy/Eh            Energy/eV
      -------------------------------------------------------------
         1        2.0000           -0.7148541             -19.4522
       ...           ...                  ...                  ...
        18        2.0000           -0.4883025             -13.2874
        19        2.0000           -0.4806458             -13.0790
        20        2.0000           -0.4757845             -12.9468
        21        2.0000           -0.4724634             -12.8564
        22        2.0000           -0.4634994             -12.6125
        23        2.0000           -0.4608108             -12.5393
        24        2.0000           -0.4420060             -12.0276
        25        2.0000           -0.4284595             -11.6590
        26        2.0000           -0.4261515             -11.5962
        27        2.0000           -0.4161096             -11.3229
        28        2.0000           -0.4034504             -10.9784
        29        2.0000           -0.4013623             -10.9216
        30        2.0000           -0.3858890             -10.5006 (HOMO)
        31                         -0.2906650              -7.9094 (LUMO)
        32                         -0.1953280              -5.3151
        33                         -0.1709200              -4.6510
        34                          0.0595219               1.6197
        35                          0.0812808               2.2118
        36                          0.0868438               2.3631
        37                          0.1013052               2.7567
        38                          0.1127807               3.0689
        39                          0.1258844               3.4255
        40                          0.1355867               3.6895
        41                          0.1490564               4.0560
       ...                                ...                  ...
        58                          0.6465454              17.5934
      -------------------------------------------------------------
                  HL-Gap            0.0952240 Eh            2.5912 eV
             Fermi-level           -0.3382770 Eh           -9.2050 eV

     #   Z          covCN         q      C6AA      α(0)
     1   6 C        3.759    -0.123    22.913     6.824
     2   6 C        2.939     0.013    27.716     8.634
     3   6 C        2.843    -0.116    30.929     9.114
     4   6 C        3.862    -0.028    21.030     6.522
     5   1 H        0.924     0.048     2.346     2.395
     6   6 C        3.809    -0.062    21.680     6.628
     7   6 C        3.810    -0.069    21.806     6.647
     8   6 C        2.945    -0.021    28.531     8.761
     9   6 C        2.905    -0.003    28.100     8.692
    10   6 C        3.811    -0.067    21.779     6.643
    11   6 C        2.772     0.207    23.601     7.956
    12   8 O        0.856    -0.435    22.397     6.345
    13   1 H        0.925     0.054     2.270     2.356
    14   1 H        0.925     0.047     2.358     2.401
    15   1 H        0.925     0.055     2.264     2.353
    16   1 H        0.926     0.031     2.567     2.505
    17   1 H        0.926     0.033     2.543     2.494
    18   1 H        0.924     0.044     2.394     2.420
    19   1 H        0.924     0.046     2.376     2.411
    20   1 H        0.924     0.059     2.213     2.327
    21   1 H        0.924     0.052     2.291     2.367
    22   1 H        0.925     0.063     2.166     2.301
    23   1 H        0.924     0.071     2.077     2.254
    24   1 H        0.924     0.082     1.960     2.189
    25   1 H        0.922     0.019     2.752     2.594

 Mol. C6AA /au·bohr⁶  :       5716.911202
 Mol. C8AA /au·bohr⁸  :     131030.180972
 Mol. α(0) /au        :        116.132441


Wiberg/Mayer (AO) data.
largest (>0.10) Wiberg bond orders for each atom

 ---------------------------------------------------------------------------
     #   Z sym  total        # sym  WBO       # sym  WBO       # sym  WBO
 ---------------------------------------------------------------------------
     1   6 C    3.995 --     2 C    1.028    14 H    0.984    13 H    0.970
                            15 H    0.969
     2   6 C    3.987 --     3 C    1.930     1 C    1.028     4 C    0.994
     3   6 C    3.988 --     2 C    1.930    17 H    0.975    16 H    0.973
     4   6 C    3.994 --     2 C    0.994     6 C    0.985    10 C    0.982
                             5 H    0.967
     5   1 H    0.998 --     4 C    0.967
     6   6 C    3.996 --     7 C    1.006     4 C    0.985    18 H    0.977
                            19 H    0.975
     7   6 C    3.996 --     8 C    1.010     6 C    1.006    21 H    0.965
                            20 H    0.957
     8   6 C    3.985 --     9 C    1.726    11 C    1.108     7 C    1.010
     9   6 C    3.979 --     8 C    1.726    10 C    1.056    22 H    0.961
    10   6 C    3.995 --     9 C    1.056     4 C    0.982    23 H    0.950
                            24 H    0.930
    11   6 C    3.914 --    12 O    1.779     8 C    1.108    25 H    0.935
    12   8 O    2.009 --    11 C    1.779
    13   1 H    0.997 --     1 C    0.970
    14   1 H    0.997 --     1 C    0.984
    15   1 H    0.997 --     1 C    0.969
    16   1 H    0.999 --     3 C    0.973
    17   1 H    0.998 --     3 C    0.975
    18   1 H    0.998 --     6 C    0.977
    19   1 H    0.998 --     6 C    0.975
    20   1 H    0.997 --     7 C    0.957
    21   1 H    0.997 --     7 C    0.965
    22   1 H    0.996 --     9 C    0.961
    23   1 H    0.995 --    10 C    0.950
    24   1 H    0.993 --    10 C    0.930
    25   1 H    0.999 --    11 C    0.935
 ---------------------------------------------------------------------------

Topologies differ in total number of bonds
Writing topology from bond orders to xtbtopo.mol

molecular dipole:
                 x           y           z       tot (Debye)
 q only:        1.938      -0.447      -0.223
   full:        1.875      -0.538      -0.281       5.009
molecular quadrupole (traceless):
                xx          xy          yy          xz          yz          zz
 q only:      -15.615       8.459       7.806      -0.964       1.821       7.809
  q+dip:      -16.759      10.404       7.357       0.096       1.746       9.402
   full:      -17.135      10.239       7.627      -0.385       1.208       9.508

           -------------------------------------------------
          |                Geometry Summary                 |
           -------------------------------------------------

      molecular mass/u    :      150.2179344
   center of mass at/Å    :       -0.0004534      -0.0003923       0.0009474
  moments of inertia/u·Å² :        0.1716592E+03   0.9375000E+03   0.9899148E+03
rotational constants/cm⁻¹ :        0.9820410E-01   0.1798147E-01   0.1702938E-01

 * 20 selected distances

     #   Z          #   Z                                           value/Å
     2   6 C        3   6 C                                       1.3238326
     4   6 C        5   1 H                                       1.0942652
     4   6 C        6   6 C                                       1.5328958
     6   6 C        7   6 C                                       1.5260803
     8   6 C        9   6 C                                       1.3437148
     4   6 C       10   6 C                                       1.5338166 (max)
     9   6 C       10   6 C                                       1.4823298
    11   6 C       12   8 O                                       1.2189625
     1   6 C       13   1 H                                       1.0891706
     1   6 C       14   1 H                                       1.0863349
     1   6 C       15   1 H                                       1.0892083
     3   6 C       16   1 H                                       1.0766077
     3   6 C       17   1 H                                       1.0764845 (min)
     6   6 C       18   1 H                                       1.0906789
     6   6 C       19   1 H                                       1.0902957
     7   6 C       20   1 H                                       1.0938603
     7   6 C       21   1 H                                       1.0918353
     9   6 C       22   1 H                                       1.0825250
    10   6 C       23   1 H                                       1.0923940
    10   6 C       24   1 H                                       1.0944565

 * 3 distinct bonds (by element types)

   Z      Z             #   av. dist./Å        max./Å        min./Å
   1 H    6 C          13     1.0883167     1.0944565     1.0764845
   6 C    6 C           6     1.4571117     1.5338166     1.3238326
   6 C    8 O           1     1.2189625     1.2189625     1.2189625

           -------------------------------------------------
          |               Frequency Printout                |
           -------------------------------------------------
 projected vibrational frequencies (cm⁻¹)
eigval :       -0.00    -0.00    -0.00     0.00     0.00     0.00
eigval :       30.82    51.93   129.71   142.64   166.91   184.35
eigval :      216.92   222.45   281.49   303.17   404.05   429.43
eigval :      473.64   513.75   530.68   547.21   687.06   712.04
eigval :      787.72   817.85   828.58   893.42   916.89   927.04
eigval :      941.80   957.22   996.81  1012.47  1019.55  1042.81
eigval :     1059.85  1093.71  1118.29  1138.63  1173.39  1192.37
eigval :     1223.64  1232.17  1275.84  1286.31  1303.14  1328.09
eigval :     1344.45  1356.57  1390.64  1394.19  1419.32  1435.10
eigval :     1462.17  1475.20  1480.43  1483.90  1603.74  1694.09
eigval :     1723.98  2765.41  2935.63  2944.39  2946.62  2973.51
eigval :     2977.44  2985.27  2999.92  3001.65  3016.48  3048.07
eigval :     3057.79  3104.29  3119.21
 reduced masses (amu)
   1: 10.70   2: 10.93   3: 11.50   4: 10.65   5: 10.94   6: 12.06   7:  9.19   8: 10.94
   9: 10.12  10:  9.65  11:  2.84  12:  7.28  13:  7.53  14: 11.47  15: 10.33  16:  7.77
  17:  7.78  18:  9.39  19:  8.89  20:  8.59  21:  9.48  22: 10.84  23:  9.34  24:  2.28
  25:  3.65  26:  5.85  27:  9.46  28:  3.74  29:  5.32  30:  6.35  31:  6.86  32:  7.60
  33:  7.52  34:  5.87  35:  6.02  36:  4.88  37:  6.17  38:  6.37  39:  2.94  40:  7.10
  41:  6.25  42:  6.07  43:  5.46  44:  5.87  45:  4.25  46:  4.29  47:  5.37  48:  5.00
  49:  6.06  50:  6.00  51:  4.58  52:  3.07  53:  2.47  54:  2.14  55:  1.95  56:  1.57
  57:  1.67  58:  1.98  59: 12.29  60: 12.51  61: 11.27  62:  1.67  63:  1.83  64:  1.87
  65:  1.82  66:  1.57  67:  1.59  68:  1.96  69:  1.52  70:  1.93  71:  1.54  72:  1.66
  73:  1.82  74:  1.52  75:  2.08
 IR intensities (km·mol⁻¹)
   1:  0.32   2:  1.06   3:  0.24   4:  0.51   5:  0.26   6:  0.34   7:  0.92   8:  4.46
   9: 11.69  10:  4.79  11:  0.56  12:  1.14  13:  2.79  14:  5.50  15:  1.95  16:  2.27
  17:  1.71  18:  1.92  19:  0.74  20:  1.69  21:  1.26  22:  6.54  23: 49.71  24:  0.19
  25: 10.87  26: 26.83  27: 38.04  28: 22.65  29:  2.04  30:  1.66  31:  2.09  32:  2.46
  33:  5.80  34: 22.49  35:  9.01  36:  1.17  37:  0.21  38:  3.39  39:  2.36  40: 26.84
  41: 21.08  42: 21.82  43: 23.54  44: 11.10  45:  8.01  46:  8.30  47: 10.47  48:  2.05
  49:  7.40  50:  9.24  51:139.79  52:  2.70  53: 17.76  54: 48.42  55:  1.72  56:  4.87
  57:  4.95  58:  1.85  59:963.86  60:147.02  61: 30.98  62:260.21  63:  0.91  64:  2.57
  65: 94.77  66: 27.35  67: 59.52  68: 96.08  69: 63.19  70: 46.21  71: 54.86  72: 58.60
  73: 36.00  74: 50.36  75:104.37
 Raman intensities (Ä⁴*amu⁻¹)
   1:  0.00   2:  0.00   3:  0.00   4:  0.00   5:  0.00   6:  0.00   7:  0.00   8:  0.00
   9:  0.00  10:  0.00  11:  0.00  12:  0.00  13:  0.00  14:  0.00  15:  0.00  16:  0.00
  17:  0.00  18:  0.00  19:  0.00  20:  0.00  21:  0.00  22:  0.00  23:  0.00  24:  0.00
  25:  0.00  26:  0.00  27:  0.00  28:  0.00  29:  0.00  30:  0.00  31:  0.00  32:  0.00
  33:  0.00  34:  0.00  35:  0.00  36:  0.00  37:  0.00  38:  0.00  39:  0.00  40:  0.00
  41:  0.00  42:  0.00  43:  0.00  44:  0.00  45:  0.00  46:  0.00  47:  0.00  48:  0.00
  49:  0.00  50:  0.00  51:  0.00  52:  0.00  53:  0.00  54:  0.00  55:  0.00  56:  0.00
  57:  0.00  58:  0.00  59:  0.00  60:  0.00  61:  0.00  62:  0.00  63:  0.00  64:  0.00
  65:  0.00  66:  0.00  67:  0.00  68:  0.00  69:  0.00  70:  0.00  71:  0.00  72:  0.00
  73:  0.00  74:  0.00  75:  0.00
 output can be read by thermo (or use thermo option).
 writing <g98.out> molden fake output.
 recommended (thermochemical) frequency scaling factor: 1.0
           -------------------------------------------------
          |             Thermodynamic Functions             |
           -------------------------------------------------

Molecule has no symmetry elements
It seems to be the C1 point group
c1  symmetry found (for desy threshold:  0.10E+00) used in thermo

          ...................................................
          :                      SETUP                      :
          :.................................................:
          :  # frequencies                          69      :
          :  # imaginary freq.                       0      :
          :  linear?                             false      :
          :  only rotor calc.                    false      :
          :  symmetry                               c1      :
          :  rotational number                       1      :
          :  scaling factor                  1.0000000      :
          :  rotor cutoff                    0.0000000 cm⁻¹ :
          :  imag. cutoff                 -100.0000000 cm⁻¹ :
          :.................................................:

    mode    ω/cm⁻¹     T·S(HO)/kcal·mol⁻¹    T·S(FR)/kcal·mol⁻¹   T·S(vib)
   ------------------------------------------------------------------------
       1     30.82    -1.72201 (100.00%)    -1.19962 (  0.00%)    -1.72201
       2     51.93    -1.41402 (100.00%)    -1.04521 (  0.00%)    -1.41402
       3    129.71    -0.87964 (100.00%)    -0.77409 (  0.00%)    -0.87964
       4    142.64    -0.82533 (100.00%)    -0.74595 (  0.00%)    -0.82533
       5    166.91    -0.73642 (100.00%)    -0.69940 (  0.00%)    -0.73642
       6    184.35    -0.68094 (100.00%)    -0.66997 (  0.00%)    -0.68094
       7    216.92    -0.59171 (100.00%)    -0.62178 (  0.00%)    -0.59171
       8    222.45    -0.57812 (100.00%)    -0.61432 (  0.00%)    -0.57812
       9    281.49    -0.45456 (100.00%)    -0.54460 (  0.00%)    -0.45456
   ------------------------------------------------------------------------

   temp. (K)  partition function   enthalpy   heat capacity  entropy
                                   cal/mol     cal/K/mol   cal/K/mol   J/K/mol
 298.15  VIB  0.439E+04             5473.985     37.207     35.027
         ROT  0.964E+06              888.752      2.981     30.363
         INT  0.423E+10             6362.738     40.188     65.391
         TR   0.178E+28             1481.254      4.968     40.912
         TOT                        7843.9917    45.1562   106.3029   444.7712

       T/K    H(0)-H(T)+PV         H(T)/Eh          T*S/Eh         G(T)/Eh
   ------------------------------------------------------------------------
    298.15    0.125002E-01    0.223767E+00    0.505079E-01    0.173259E+00
   ------------------------------------------------------------------------

         :::::::::::::::::::::::::::::::::::::::::::::::::::::
         ::                  THERMODYNAMIC                  ::
         :::::::::::::::::::::::::::::::::::::::::::::::::::::
         :: total free energy         -32.401023357521 Eh   ::
         ::.................................................::
         :: total energy              -32.574282208489 Eh   ::
         :: zero point energy           0.211266582185 Eh   ::
         :: G(RRHO) w/o ZPVE           -0.038007731217 Eh   ::
         :: G(RRHO) contrib.            0.173258850967 Eh   ::
         :::::::::::::::::::::::::::::::::::::::::::::::::::::

optimized geometry written to: xtbopt.coord


           -------------------------------------------------
          | TOTAL ENERGY              -32.574282208489 Eh   |
          | TOTAL ENTHALPY            -32.350515429898 Eh   |
          | TOTAL FREE ENERGY         -32.401023357521 Eh   |
          | GRADIENT NORM               0.000073303289 Eh/α |
          | HOMO-LUMO GAP               2.591176776269 eV   |
           -------------------------------------------------

------------------------------------------------------------------------
 * finished run on 2025/04/11 at 11:57:51.480     
------------------------------------------------------------------------
 total:
 * wall-time:     0 d,  0 h,  0 min,  3.182 sec
 *  cpu-time:     0 d,  0 h,  0 min,  3.081 sec
 * ratio c/w:     0.968 speedup
 SCF:
 * wall-time:     0 d,  0 h,  0 min,  0.051 sec
 *  cpu-time:     0 d,  0 h,  0 min,  0.026 sec
 * ratio c/w:     0.510 speedup
 analytical hessian:
 * wall-time:     0 d,  0 h,  0 min,  2.693 sec
 *  cpu-time:     0 d,  0 h,  0 min,  2.675 sec
 * ratio c/w:     0.993 speedup

