25
 energy: -32.572888419222 gnorm: 0.033022912652 xtb: 6.7.1 (edcfbbe)
C            3.60556827386963        0.40447222583175       -0.72886275890484
C            2.58674109529682       -0.01369155768406        0.28773442421185
C            2.92691254904396       -0.42055607364189        1.51433329290208
C            1.13978453229716        0.04437234655710       -0.16583445797486
H            1.12524492280272        0.40213030661048       -1.20418864121261
C            0.46063965850052       -1.33399049950145       -0.14354603898365
C           -0.92823593823778       -1.26574766626616       -0.77585902755323
C           -1.71722344062356       -0.08456114613886       -0.27432089121729
C           -1.14751155817785        0.93551982229859        0.39657156477547
C            0.31098143519240        1.02981074154874        0.67129989072938
C           -3.15894883498089       -0.08143542562083       -0.53451533023336
O           -3.95003559208368        0.79751612181351       -0.19669948864940
H            3.41932173626148        1.43587212284738       -1.05449375977082
H            4.62468815202540        0.33762906879741       -0.33889527448039
H            3.52994643857450       -0.22127701759327       -1.62735718339617
H            2.18078852144061       -0.71991088939010        2.24673351347938
H            3.96773001220546       -0.46376659159320        1.82418396920369
H            1.07850925742313       -2.06607322665443       -0.67375863426150
H            0.37815538700952       -1.66869427232106        0.89804209396144
H           -0.84636805431036       -1.21163397878246       -1.87013189958444
H           -1.48638154168322       -2.18544989863272       -0.56078198624504
H           -1.78135084307377        1.74198334776910        0.76132192415331
H            0.64614121954479        2.06168212967535        0.50182387782828
H            0.47483109623826        0.84473080097301        1.74414813230176
H           -3.53323480735443       -0.96667941769334       -1.08858647727933
25
 energy: -32.574102239420 gnorm: 0.008141979109 xtb: 6.7.1 (edcfbbe)
C            3.59442075194339        0.40270449070789       -0.72831420389192
C            2.57675978338195       -0.01418065783338        0.28605175499413
C            2.91683328048541       -0.41549102185506        1.50315230539134
C            1.13466888448235        0.04871161161922       -0.17401502286857
H            1.11807377831617        0.40233290236962       -1.21126755038736
C            0.46100626457893       -1.32906220523311       -0.13630922073457
C           -0.92303341405754       -1.26504728405051       -0.77594422112343
C           -1.71149450476759       -0.08919861484305       -0.27171338915552
C           -1.14106435772593        0.92908821757269        0.39369190573980
C            0.31272620422522        1.02854072866935        0.67200246916825
C           -3.14506095275886       -0.08222407708805       -0.52581855529725
O           -3.92644356177578        0.79452952290492       -0.19346666804404
H            3.41323544236664        1.43208037310718       -1.04399252284577
H            4.60456626024021        0.33276295843255       -0.33134355504264
H            3.52352958715735       -0.22773174915137       -1.61684564764125
H            2.18431035828520       -0.72194830431913        2.23262534049578
H            3.94822951367750       -0.45952511328930        1.81457059621071
H            1.07819304349070       -2.05728405561701       -0.66616580376546
H            0.37216911828027       -1.66088737817010        0.90085167899770
H           -0.83445432276924       -1.19512590257017       -1.86574880898756
H           -1.47589932837559       -2.18421909235008       -0.56073218124419
H           -1.77359422812887        1.73171161771608        0.75430876847503
H            0.64592706230690        2.05583791541540        0.49602317365750
H            0.47393633703058        0.83637561803939        1.73964563262662
H           -3.52084732268855       -0.96049912697539       -1.08288544092762
25
 energy: -32.574195863280 gnorm: 0.003015760312 xtb: 6.7.1 (edcfbbe)
C            3.59097149927382        0.40274463169391       -0.72916334812654
C            2.57318084036294       -0.01518013213507        0.28525500891611
C            2.91298947642793       -0.41698998598372        1.49948134899895
C            1.13285062508089        0.04896104899756       -0.17551419062058
H            1.11427558434912        0.39973916441278       -1.21201957183965
C            0.46165120712549       -1.32843472267460       -0.13438317309966
C           -0.92035338209617       -1.26508003662485       -0.77883169931667
C           -1.70968721719759       -0.09151040940021       -0.27161800178111
C           -1.13905820751619        0.92688718633410        0.39222713702537
C            0.31338259518374        1.02997708889277        0.67046323706757
C           -3.13961308361119       -0.07809720371461       -0.52670706620244
O           -3.91894963181731        0.79471292576059       -0.18734730169510
H            3.41004788651465        1.43075475379253       -1.04094223330863
H            4.59818634064580        0.33084818038413       -0.32898861205929
H            3.51958347263002       -0.22915138714488       -1.61355249755729
H            2.18537045943893       -0.72066150907277        2.23151592578944
H            3.94118295918441       -0.45953769016929        1.81315929033847
H            1.08032829253708       -2.05752310193946       -0.65933497360122
H            0.36754712008626       -1.65307961225110        0.90224385984124
H           -0.82462744701007       -1.18449628199633       -1.86577084226699
H           -1.47103093064072       -2.18519739709858       -0.57017131468630
H           -1.77283939310004        1.72752084232780        0.75058103321483
H            0.64539525508660        2.05571440592520        0.49364672708976
H            0.47440913160862        0.83239406576408        1.73473656746962
H           -3.51849977534616       -0.96306345087141       -1.07060447579016
25
 energy: -32.574211590932 gnorm: 0.003283336135 xtb: 6.7.1 (edcfbbe)
C            3.59039609264400        0.40294802036377       -0.73007386449558
C            2.57202291693759       -0.01444835590398        0.28499388703303
C            2.91131578545895       -0.41636394417698        1.49892707938660
C            1.13262673789758        0.04904671521927       -0.17652020042846
H            1.11321431551653        0.39775582535911       -1.21309936993535
C            0.46152720358812       -1.32787284091324       -0.13225708418344
C           -0.91878683226031       -1.26520434511767       -0.78115610465779
C           -1.70950950277552       -0.09395400395327       -0.27028505093189
C           -1.13817226402410        0.92689937382262        0.38959116549731
C            0.31366392238452        1.03117945363385        0.66873978861451
C           -3.14026974855919       -0.08309377188244       -0.51433220664545
O           -3.91660627543791        0.79513491808181       -0.18302623484714
H            3.40904358794287        1.43025364045222       -1.04069715099141
H            4.59662776464551        0.33023603178162       -0.32834773362715
H            3.51805551607566       -0.22989695321041       -1.61265435850125
H            2.18555580341469       -0.72263688074344        2.23140405810149
H            3.93887494022691       -0.46156211388391        1.81304033802427
H            1.08137912240568       -2.05885775660146       -0.65251150335967
H            0.36315516080481       -1.64727973212508        0.90485741444342
H           -0.81858414546586       -1.17733967179924       -1.86657297042459
H           -1.46786812097268       -2.18683407363019       -0.57863244533629
H           -1.77358808632208        1.72601454762213        0.74753895131765
H            0.64520423347740        2.05618495840406        0.49140726413104
H            0.47453782105959        0.83165082447711        1.73178683688483
H           -3.51712227146194       -0.95970849206767       -1.07375967126894
25
 energy: -32.574236345662 gnorm: 0.001019060266 xtb: 6.7.1 (edcfbbe)
C            3.59145674013034        0.40286665926180       -0.73016915275297
C            2.57272918577950       -0.01436385789577        0.28500729440770
C            2.91175731621825       -0.41647759676028        1.49967092313067
C            1.13325460218031        0.04884483647382       -0.17663892609915
H            1.11431492279930        0.39706457700554       -1.21371513177172
C            0.46060825809737       -1.32767060619721       -0.13095133646408
C           -0.91825875359521       -1.26432136370851       -0.78316670412768
C           -1.70973395413944       -0.09380289511205       -0.27127314315598
C           -1.13850073161442        0.92710580627298        0.38929639422313
C            0.31359063864798        1.03141681380904        0.66806829939191
C           -3.14087281091436       -0.08228041030799       -0.51644766735765
O           -3.91828195379357        0.79384100835563       -0.17990077103382
H            3.40970078690471        1.43035402915729       -1.04140574921048
H            4.59817327980426        0.33046318996750       -0.32874110630360
H            3.51887554330131       -0.22990568727188       -1.61333413164222
H            2.18520061065135       -0.72406144664630        2.23190315980047
H            3.94006104196308       -0.46219901058005        1.81384486862141
H            1.08083115670334       -2.06028436204541       -0.64879816422202
H            0.35982836449413       -1.64583083181105        0.90679493711316
H           -0.81549523688424       -1.17412728018329       -1.86838053731131
H           -1.46794497466611       -2.18669994936360       -0.58470443954226
H           -1.77460783317544        1.72626499038162        0.74712906809724
H            0.64539864602533        2.05658764886960        0.49079900784002
H            0.47427513868329        0.83271822227315        1.73170133741977
H           -3.51966630640022       -0.96325111073599       -1.06822749525080
25
 energy: -32.574252757867 gnorm: 0.001437533789 xtb: 6.7.1 (edcfbbe)
C            3.59289749718142        0.40257859392376       -0.72986232466627
C            2.57369307951863       -0.01628941914156        0.28480511406991
C            2.91232248539797       -0.41998559266912        1.49955003708159
C            1.13427771437567        0.04767661033608       -0.17675164005428
H            1.11630608030569        0.39343843892107       -1.21492687629185
C            0.45820914103448       -1.32744815154737       -0.12774715592727
C           -0.91611502149292       -1.26130806680153       -0.78930431468597
C           -1.70996314920006       -0.09401679411559       -0.27322943411960
C           -1.13849823951224        0.92780100814994        0.38673039974994
C            0.31377336111614        1.03309260078432        0.66487678107251
C           -3.14246297350549       -0.08445099319792       -0.51302800599692
O           -3.92052015182473        0.78921577514988       -0.16956808484047
H            3.41037984889669        1.43031123502669       -1.04128420992845
H            4.60001974955790        0.33062733325390       -0.32875503488553
H            3.52034907750759       -0.22979571122374       -1.61379269207059
H            2.18495681098163       -0.72482483411700        2.23309341143296
H            3.94107429923187       -0.46252027564711        1.81541152459898
H            1.07949641071379       -2.06553473538904       -0.63694912883005
H            0.34877865976616       -1.63942089832272        0.91149511499866
H           -0.80473329121252       -1.16162916738872       -1.87310937166622
H           -1.46675212281740       -2.18598250466998       -0.60367468935168
H           -1.77648593353021        1.72548103238201        0.74576991965704
H            0.64598019294719        2.05820137297271        0.48673892319366
H            0.47385533532426        0.83629717901034        1.72937001057653
H           -3.52414518356069       -0.96926266247074       -1.05749743931687
25
 energy: -32.574261795879 gnorm: 0.001178514201 xtb: 6.7.1 (edcfbbe)
C            3.59329046232744        0.40224807419138       -0.72885264340736
C            2.57383352137469       -0.01548143263798        0.28592167889836
C            2.91212585734343       -0.41847624278618        1.50079841419045
C            1.13484477410867        0.04672708000125       -0.17696247069403
H            1.11795054875699        0.38953967859934       -1.21611649204624
C            0.45609664530712       -1.32701743274734       -0.12522499935876
C           -0.91414355576473       -1.25840210823539       -0.79451282773206
C           -1.70995140182355       -0.09427715086925       -0.27454243021803
C           -1.13819932912859        0.92808622617581        0.38438564632911
C            0.31414383775802        1.03503385100412        0.66111461985918
C           -3.14354894730527       -0.08826990481907       -0.50704199623123
O           -3.92160693677718        0.78399159710433       -0.16044209301073
H            3.41067671338888        1.42970838349323       -1.04097434396249
H            4.60026543505525        0.33086786312140       -0.32748793986179
H            3.52141637705612       -0.23063738545442       -1.61252983009262
H            2.18502463526972       -0.72889442854427        2.23210914006278
H            3.94102196895654       -0.46637401360151        1.81503221263654
H            1.07815526036113       -2.06940244499239       -0.62710724472260
H            0.33923303838147       -1.63352884071599        0.91483712364374
H           -0.79548633570287       -1.15036769753901       -1.87680328855417
H           -1.46560405426613       -2.18460517282875       -0.61950402971436
H           -1.77695301726781        1.72412835008411        0.74558695380474
H            0.64619409366202        2.05970832684723        0.48014347564197
H            0.47412948815975        0.84148424364611        1.72631509029746
H           -3.52621540203029       -0.97353804528817       -1.04978089195809
25
 energy: -32.574268229892 gnorm: 0.000636503991 xtb: 6.7.1 (edcfbbe)
C            3.59345779559678        0.40178638033672       -0.72701183001918
C            2.57398770971237       -0.01825259171604        0.28612029357518
C            2.91190373199448       -0.42264385582212        1.50036566532059
C            1.13525359203710        0.04561583948026       -0.17756542429878
H            1.12004848093858        0.38615270169857       -1.21744263685130
C            0.45410072486306       -1.32670329256446       -0.12425117048474
C           -0.91285344919322       -1.25534459623285       -0.79884601361076
C           -1.70995559260869       -0.09389458960584       -0.27540333418352
C           -1.13782376720294        0.92825512896667        0.38307791296118
C            0.31492321188277        1.03676695925670        0.65706052336711
C           -3.14462072914689       -0.09269733330878       -0.50039892125522
O           -3.92295278327014        0.77831958079767       -0.15237531703582
H            3.41061198327476        1.42936181042593       -1.03865542419526
H            4.60013205324406        0.33107404704201       -0.32504450836680
H            3.52336185848429       -0.23038682256470       -1.61125981822118
H            2.18407792197436       -0.72911015736333        2.23183679128991
H            3.94003217569900       -0.46568759414702        1.81632338714247
H            1.07624676173770       -2.07189920827428       -0.62135428211519
H            0.33186251839594       -1.62989330335740        0.91596513220550
H           -0.78927514332361       -1.14142349115056       -1.87983818861536
H           -1.46519327127194       -2.18220675879029       -0.63135422562275
H           -1.77607601818195        1.72269484560882        0.74815930104337
H            0.64634706435625        2.06083394013207        0.47122553317972
H            0.47584268540756        0.84852018918828        1.72316936455438
H           -3.52674583819887       -0.97698645482743       -1.04414197596375
25
 energy: -32.574271810888 gnorm: 0.000386709541 xtb: 6.7.1 (edcfbbe)
C            3.59391585142552        0.40185331764063       -0.72581146737823
C            2.57383491433100       -0.01834320864284        0.28650041862365
C            2.91091364607502       -0.42283890154460        1.50104341821678
C            1.13538722231468        0.04547144936206       -0.17829185248896
H            1.12124412414317        0.38544333359394       -1.21834449989839
C            0.45397030283513       -1.32669344675725       -0.12523334919554
C           -0.91305596763307       -1.25482855702755       -0.79944637461325
C           -1.71008440598088       -0.09357898191565       -0.27527704920486
C           -1.13782182305889        0.92812985845471        0.38364351554736
C            0.31542574509944        1.03767727774382        0.65516152497792
C           -3.14487254757569       -0.09340114243297       -0.49937680191072
O           -3.92385267592485        0.77664742385668       -0.15014937805063
H            3.41096978932585        1.42935576174615       -1.03761016435067
H            4.60035827279049        0.33148485771741       -0.32305085506050
H            3.52477703466972       -0.23031978661132       -1.61013668342427
H            2.18234842757665       -0.73055385971702        2.23128706497411
H            3.93890491339816       -0.46688029243006        1.81715484837503
H            1.07588006457744       -2.07158578033946       -0.62291507949300
H            0.33195076949201       -1.63029925206629        0.91476606914278
H           -0.78984739955896       -1.14086672428171       -1.88031008304169
H           -1.46558292805302       -2.18141965350983       -0.63175955159629
H           -1.77532656452872        1.72207375852420        0.75103957653201
H            0.64569062829790        2.06154356544179        0.46594975040319
H            0.47806504734325        0.85275371701610        1.72157580044735
H           -3.52649876418052       -0.97857336061232       -1.04204796373337
25
 energy: -32.574275734144 gnorm: 0.000356281373 xtb: 6.7.1 (edcfbbe)
C            3.59539765965413        0.40232932638046       -0.72355443857631
C            2.57363351739520       -0.01876284976764        0.28685153469355
C            2.90852069283379       -0.42418922338255        1.50179570968825
C            1.13591902065840        0.04540189108319       -0.18027614075917
H            1.12362833454672        0.38412482114789       -1.22074882985348
C            0.45385981323421       -1.32644021361123       -0.12691243025305
C           -0.91368894379964       -1.25437842460910       -0.80040195864348
C           -1.71062486988963       -0.09383602497546       -0.27405700661633
C           -1.13785724991349        0.92743717380560        0.38508066628646
C            0.31634989288393        1.03949683663108        0.65124477172245
C           -3.14564094485655       -0.09470716206177       -0.49631520347996
O           -3.92523060973744        0.77429965933432       -0.14569632869419
H            3.41199498407054        1.42970008828278       -1.03529327602193
H            4.60113887292514        0.33262602205825       -0.31883871679440
H            3.52819406637353       -0.22976850582645       -1.60803521300398
H            2.17857092738751       -0.73353928810653        2.23017452591289
H            3.93607308592672       -0.46922023181526        1.81941025319768
H            1.07544165417465       -2.07086786044801       -0.62580618657372
H            0.33261539728472       -1.63067852943041        0.91301471926579
H           -0.79126885473446       -1.13958574694171       -1.88126897664374
H           -1.46611772297374       -2.18104585595474       -0.63251346363484
H           -1.77450695771035        1.72052191372957        0.75583026152674
H            0.64384043034051        2.06297843792936        0.45508193895654
H            0.48314237424400        0.86101673531927        1.71803221144693
H           -3.52669089311758       -0.98066161556237       -1.03843758934882
25
 energy: -32.574277679086 gnorm: 0.000302329350 xtb: 6.7.1 (edcfbbe)
C            3.59673623993892        0.40288773423690       -0.72156057518888
C            2.57348583835825       -0.01935038325052        0.28697050451051
C            2.90659808766411       -0.42591423346061        1.50200068235622
C            1.13636028658975        0.04524115469482       -0.18197290621379
H            1.12552920029059        0.38281703716870       -1.22282270453891
C            0.45376940111764       -1.32630589657805       -0.12825187958733
C           -0.91394950463736       -1.25386891099175       -0.80130363510100
C           -1.71098497250363       -0.09415815243838       -0.27341009123487
C           -1.13764530697175        0.92724793694101        0.38501820227353
C            0.31700784930469        1.04123956990902        0.64772540995482
C           -3.14642972799365       -0.09598470735381       -0.49299451583338
O           -3.92608845820254        0.77234890494299       -0.14084595567585
H            3.41309157069433        1.43022584331688       -1.03322588209688
H            4.60180872663764        0.33372406815674       -0.31514415358825
H            3.53145667989631       -0.22900776234431       -1.60632116180551
H            2.17567790836806       -0.73587020551097        2.22917857930881
H            3.93368190158602       -0.47126174248885        1.82120892607558
H            1.07499250824573       -2.07124547588079       -0.62694242237277
H            0.33238932821808       -1.63014740550842        0.91177524407047
H           -0.79184752476458       -1.13791590670856       -1.88201609448689
H           -1.46592861200261       -2.18094510256787       -0.63426299013778
H           -1.77434236156493        1.71909518232477        0.75838066781512
H            0.64258042985124        2.06447354136191        0.44694638513836
H            0.48656909977179        0.86716470482460        1.71478078659767
H           -3.52782491069126       -0.98223841958685       -1.03454958643910
25
 energy: -32.574279061310 gnorm: 0.000166984323 xtb: 6.7.1 (edcfbbe)
C            3.59792524478427        0.40352020698787       -0.72003189683741
C            2.57348393484259       -0.01976786404017        0.28686569863252
C            2.90523174519353       -0.42742711445526        1.50187934101276
C            1.13679650684340        0.04518878276354       -0.18343056222924
H            1.12691928784409        0.38196591672516       -1.22455488280338
C            0.45349970593121       -1.32595759504745       -0.12896359827766
C           -0.91425900796152       -1.25372021232212       -0.80197801047588
C           -1.71130005072775       -0.09473088397342       -0.27280255670868
C           -1.13744439221750        0.92704158083992        0.38465720274072
C            0.31738158938335        1.04225452196138        0.64513193460968
C           -3.14706984007646       -0.09700413534694       -0.49009137657027
O           -3.92637826229071        0.77110963638346       -0.13665277862246
H            3.41413645777526        1.43086778425462       -1.03159370207469
H            4.60241351234996        0.33476954115305       -0.31214342364988
H            3.53431320936398       -0.22809923905489       -1.60511885990745
H            2.17360505207571       -0.73781697688881        2.22817186769309
H            3.93189822147743       -0.47266644883541        1.82251885752482
H            1.07448681519385       -2.07127480022112       -0.62734820193059
H            0.33215141949054       -1.62937390147271        0.91122082363618
H           -0.79236421819469       -1.13690354730803       -1.88266748368691
H           -1.46578748600016       -2.18119156878501       -0.63559219290385
H           -1.77432107279694        1.71861620663257        0.75829682037812
H            0.64204226824318        2.06523543741538        0.44168195567990
H            0.48852730449859        0.87070972747672        1.71231617709103
H           -3.52919426782438       -0.98309368163374       -1.03141031852055
25
 energy: -32.574280156308 gnorm: 0.000131483368 xtb: 6.7.1 (edcfbbe)
C            3.59890857362737        0.40428563172182       -0.71863048553114
C            2.57342318955892       -0.02013900215285        0.28668553334630
C            2.90402173031920       -0.42878520579036        1.50166684572305
C            1.13709638841399        0.04504935322935       -0.18475545823864
H            1.12804773189970        0.38114102720820       -1.22611484710538
C            0.45340705058334       -1.32588416850477       -0.12963823733115
C           -0.91449810016380       -1.25369783636992       -0.80236165432753
C           -1.71148202408650       -0.09496977343686       -0.27274347483746
C           -1.13711642471935        0.92745270649014        0.38333330166942
C            0.31772385817649        1.04314230999858        0.64281158694128
C           -3.14763889449753       -0.09783546276274       -0.48743064628483
O           -3.92653792323486        0.77005391624904       -0.13251407767582
H            3.41500259667714        1.43167089026849       -1.03005871165145
H            4.60285816575588        0.33597535083586       -0.30935903641189
H            3.53701885539947       -0.22697576035686       -1.60411834020443
H            2.17174580854188       -0.73973170954170        2.22706526085413
H            3.93033420095777       -0.47390046366226        1.82346931852978
H            1.07418507728225       -2.07172051688515       -0.62757950848354
H            0.33196662376623       -1.62863496838798        0.91077388634170
H           -0.79280788470537       -1.13645947047864       -1.88308469408768
H           -1.46570233640867       -2.18145370742556       -0.63627865513410
H           -1.77424973183686        1.71876342534628        0.75717977704936
H            0.64220004667147        2.06593495667459        0.43818010834597
H            0.48940882896046        0.87277250392631        1.71011457743204
H           -3.53062172973781       -0.98380265298444       -1.02825153512805
25
 energy: -32.574280966078 gnorm: 0.000124281810 xtb: 6.7.1 (edcfbbe)
C            3.59977732905613        0.40514748130532       -0.71730717207246
C            2.57340118348405       -0.02046640379964        0.28654848900435
C            2.90294850065879       -0.43000727828830        1.50150481945118
C            1.13740511471276        0.04483107241001       -0.18595209022442
H            1.12904742673140        0.38022079880121       -1.22753412534134
C            0.45319740713846       -1.32580079110118       -0.13022434715515
C           -0.91480595364014       -1.25369448356828       -0.80273504181526
C           -1.71163798501277       -0.09507529530443       -0.27271140626645
C           -1.13678597238386        0.92796202446745        0.38197999054625
C            0.31814158697593        1.04381018640498        0.64068404735076
C           -3.14810576763464       -0.09859664916829       -0.48505512773400
O           -3.92674022672205        0.76895171682144       -0.12872415427956
H            3.41559117082178        1.43255202671818       -1.02848871514904
H            4.60324754818032        0.33731032612222       -0.30678849508102
H            3.53949577182515       -0.22573847625730       -1.60316744418759
H            2.17003612423658       -0.74155343131369        2.22596574760804
H            3.92892844344468       -0.47506253162326        1.82427671821392
H            1.07371068028770       -2.07201083669478       -0.62788812460787
H            0.33177609937147       -1.62807967291699        0.91029722720998
H           -0.79331187885055       -1.13629654322653       -1.88346543737196
H           -1.46586758057496       -2.18152818999022       -0.63669712376184
H           -1.77378746331907        1.71951449220085        0.75552241104985
H            0.64283428419586        2.06638246210345        0.43523533759145
H            0.48992066024313        0.87423114637903        1.70813276299162
H           -3.53172282602534       -0.98475177727271       -1.02504791216951
25
 energy: -32.574281526181 gnorm: 0.000086425621 xtb: 6.7.1 (edcfbbe)
C            3.60052398905304        0.40601943932713       -0.71609358166883
C            2.57336939272499       -0.02080545482066        0.28643264281186
C            2.90194871494144       -0.43112651344202        1.50141425914772
C            1.13768515904963        0.04455901763926       -0.18708622128738
H            1.13002739190188        0.37927696468970       -1.22889409384400
C            0.45302939396707       -1.32583553327148       -0.13071147958669
C           -0.91511612250079       -1.25364910729553       -0.80295117528283
C           -1.71176653782977       -0.09497448194034       -0.27274872943928
C           -1.13645781788337        0.92864174352926        0.38062047703061
C            0.31860266790743        1.04441680789718        0.63865655617657
C           -3.14854242939223       -0.09929265914440       -0.48297704461718
O           -3.92709195879736        0.76790611115620       -0.12559550320977
H            3.41595560041162        1.43345000610611       -1.02695281000246
H            4.60358176297866        0.33870900044984       -0.30445186651340
H            3.54171491459892       -0.22446380669701       -1.60234016737983
H            2.16842412748773       -0.74362315147793        2.22486460736143
H            3.92765024962767       -0.47604754186008        1.82509217368581
H            1.07326430138762       -2.07233240844712       -0.62829570808960
H            0.33165824844539       -1.62778659956178        0.90991259777707
H           -0.79388245008083       -1.13617382215926       -1.88370703847568