18
 energy: -272.908791212170 gnorm: 0.030044671549 xtb: 6.7.1 (edcfbbe)
C           -1.76616094738263        0.97525435813216       -0.34218884295163
C           -1.05300340936661        0.21019965229315        0.76877452694066
C            0.13352264965917       -0.64970004908790        0.30152369223361
C            1.19742534953061        0.12160122895388       -0.49076046991747
C            1.86355059282579        1.22826125134427        0.31706443524050
O           -0.30526563953527       -1.78391818419050       -0.43056885359080
H           -2.12307044344079        0.30109976913343       -1.11734907459513
H           -2.62769147856440        1.49433087786218        0.07058878763128
H           -1.11148801499253        1.71528834356009       -0.79432602565199
H           -0.69371310240740        0.91051268280347        1.52284846217481
H           -1.76424840268179       -0.46276005620506        1.25347871425545
H            0.60618893346862       -1.08183747947939        1.19281654312857
H            1.95291596296539       -0.60247755936697       -0.80545522635692
H            0.74754952983126        0.54035263043944       -1.39286994601722
H            2.67559202108563        1.66841806233932       -0.25607281581347
H            1.15507577251184        2.01428918799258        0.56310803164953
H            2.27229308040691        0.82961500846762        1.24260332315063
H           -0.71642283471747       -1.47954352565562       -1.25138717295452
18
 energy: -272.909681443390 gnorm: 0.013355402449 xtb: 6.7.1 (edcfbbe)
C           -1.76283575421438        0.97281006147574       -0.33963023250061
C           -1.04671322596437        0.20746767708034        0.77265803670803
C            0.13367949602481       -0.65418835502059        0.30206540251226
C            1.19829124199661        0.11308368421605       -0.48649110909970
C            1.85953792908588        1.23043604301743        0.31668705655012
O           -0.31965394196579       -1.78998332158046       -0.44710783957172
H           -2.12358885541935        0.30181386271189       -1.12495439211576
H           -2.63193576800089        1.49684540811440        0.06580732392865
H           -1.11184216134032        1.71932498158313       -0.80077626938632
H           -0.68645486424629        0.91063255956059        1.53026482681391
H           -1.75625131929307       -0.46118363233915        1.27279796720091
H            0.61001694177999       -1.08201167591867        1.19383300561958
H            1.95669714938862       -0.61102678645798       -0.80359882010550
H            0.74635726448254        0.52235949547190       -1.39762642149840
H            2.67725256958967        1.67921710378707       -0.25238041746121
H            1.14981698060533        2.02350368938632        0.56440225418554
H            2.27381623022525        0.84149666402784        1.25147522995669
H           -0.72314065408766       -1.47161136972482       -1.26559887308552
18
 energy: -272.909894029128 gnorm: 0.004350458631 xtb: 6.7.1 (edcfbbe)
C           -1.76124311015802        0.97087598451259       -0.33563585694154
C           -1.04233101322940        0.20627274639292        0.77510181404980
C            0.13509371992413       -0.65411012164199        0.30486217076991
C            1.20041723431502        0.10582119809886       -0.48441534218338
C            1.85398734832388        1.23135356106277        0.31461347175140
O           -0.33017801150643       -1.78935520523759       -0.45902856871510
H           -2.12210027070423        0.30166430068084       -1.12661581318569
H           -2.63472481664613        1.49631897672857        0.06521282733033
H           -1.11223103944062        1.72065566890164       -0.80068898791628
H           -0.67870642952396        0.91144951514758        1.53257681302941
H           -1.75086644380286       -0.45725500494771        1.28690787768842
H            0.60812371058143       -1.09323850407350        1.19283913807474
H            1.96362687446725       -0.61762112860893       -0.79608814520324
H            0.75157828819306        0.50586915381480       -1.40414500600782
H            2.67499049352756        1.68364896619469       -0.25165200618418
H            1.14115067252029        2.02694245382446        0.55715884674846
H            2.26881716380046        0.85334375527499        1.25732099792142
H           -0.72235570196836       -1.45365017974696       -1.27649962885066
18
 energy: -272.909952578248 gnorm: 0.002543910987 xtb: 6.7.1 (edcfbbe)
C           -1.75954630902536        0.97007015360860       -0.33261411980084
C           -1.03949282726162        0.20692004115723        0.77715092635440
C            0.13395564663750       -0.65460284658811        0.30480634187514
C            1.20188122038973        0.10195774543638       -0.48142508206050
C            1.85008729678329        1.23359525720068        0.31250033124474
O           -0.33720484661292       -1.78854414367040       -0.46750320153019
H           -2.12002015821161        0.30089166889866       -1.12393242709143
H           -2.63361201903414        1.49433630761851        0.06830262727397
H           -1.11160449425571        1.72055566201143       -0.79828211378676
H           -0.67256314329595        0.91323986692781        1.53253631183364
H           -1.74699653804492       -0.45391010734921        1.29375053861889
H            0.60318780424898       -1.10376872091071        1.18957970018660
H            1.96808173798695       -0.62175952820380       -0.78541927814565
H            0.75707316980980        0.49560633800145       -1.40608665428014
H            2.67236010037067        1.68463356115235       -0.25294229409391
H            1.13425266607955        2.02879780727848        0.54760579341249
H            2.26189032765131        0.86239178943495        1.25936119080419
H           -0.71868151950449       -1.44142459173672       -1.28556603522173
18
 energy: -272.909988396032 gnorm: 0.002748499785 xtb: 6.7.1 (edcfbbe)
C           -1.75819583835529        0.97028453060058       -0.32887553514005
C           -1.03687991138811        0.20750713057497        0.77936445203750
C            0.13297725614100       -0.65561782114784        0.30497278882146
C            1.20411906799920        0.09733652799082       -0.47890425974657
C            1.84473509914901        1.23604570384905        0.31025711237463
O           -0.34384861969597       -1.78531420675997       -0.47619384438280
H           -2.11882779915701        0.30063368227916       -1.11869979831875
H           -2.63136964674969        1.49335931866467        0.07364355407525
H           -1.11074395195685        1.72032431264533       -0.79454841312886
H           -0.66500228431529        0.91426819969755        1.53151907350029
H           -1.74373686487666       -0.45049325473603        1.29938058345915
H            0.59767276817854       -1.11584779642774        1.18621632245102
H            1.97366975145336       -0.62684815235196       -0.77239705813044
H            0.76426395407926        0.48373634595743       -1.40849690513826
H            2.66825810386796        1.68341306308955       -0.25501124735553
H            1.12548445299040        2.03055773572323        0.53426962334194
H            2.25158395084544        0.87321287477962        1.26170928737045
H           -0.71111210856789       -1.42757169198969       -1.29638585349566
18
 energy: -272.910004729396 gnorm: 0.002557845101 xtb: 6.7.1 (edcfbbe)
C           -1.75733071573188        0.97112741168868       -0.32617277137697
C           -1.03531807667793        0.20764722574150        0.78112658910667
C            0.13179067733179       -0.65756499805527        0.30417630586218
C            1.20555898390070        0.09432191156963       -0.47729241322531
C            1.84114421904615        1.23796506012250        0.30868514593834
O           -0.34792808784403       -1.78299887177747       -0.48134492037968
H           -2.11962810618993        0.30129673666326       -1.11430794057921
H           -2.62884855221086        1.49457941527928        0.07829274942152
H           -1.10968763475777        1.72005059347788       -0.79233416754935
H           -0.65988532120888        0.91391352217413        1.53143076548756
H           -1.74225971681594       -0.44878558041531        1.30221398715060
H            0.59416335100384       -1.12305744919079        1.18363855732878
H            1.97738776136326       -0.62990759287838       -0.76365730250849
H            0.76894248448344        0.47594378802065       -1.40988385403948
H            2.66626957695128        1.68228187614837       -0.25587655463894
H            1.11960951303646        2.03222289317399        0.52375587106139
H            2.24338468910321        0.88111429510350        1.26370799339798
H           -0.70431822758130       -1.42116349245164       -1.30434014033701
18
 energy: -272.910020744792 gnorm: 0.001580827531 xtb: 6.7.1 (edcfbbe)
C           -1.75620210328394        0.97287403821723       -0.32218114747634
C           -1.03317969782242        0.20734201259680        0.78349372900781
C            0.13026293453104       -0.66133681125606        0.30271106891056
C            1.20733969929234        0.09011839734982       -0.47572691596897
C            1.83569743026504        1.24041011338767        0.30658394801209
O           -0.35293881960271       -1.77979437103180       -0.48740847761638
H           -2.12265663415728        0.30303541345509       -1.10785941811991
H           -2.62462085163174        1.49884997037934        0.08518678243577
H           -1.10758709190637        1.71936115977906       -0.79030557325093
H           -0.65297970592068        0.91228370399732        1.53220909474443
H           -1.74078044708314       -0.44712915385842        1.30570863442660
H            0.59047947548182       -1.13168699566178        1.18053516622256
H            1.98242186008697       -0.63376268990989       -0.75333517199705
H            0.77475905925348        0.46548401486823       -1.41241889562142
H            2.66437838882592        1.68032084813093       -0.25585004925104
H            1.11151868251565        2.03532673886819        0.50856178935954
H            2.23059067445204        0.89212318608709        1.26741314691447
H           -0.69345683952886       -1.41483242838950       -1.31550261598282
18
 energy: -272.910028240451 gnorm: 0.000848404689 xtb: 6.7.1 (edcfbbe)
C           -1.75514043824375        0.97453506286472       -0.31876097915920
C           -1.03175275090014        0.20648126353362        0.78536857277956
C            0.12932702383901       -0.66439548419881        0.30136803023665
C            1.20832531291909        0.08709405660056       -0.47543425497972
C            1.83105432259292        1.24196414276581        0.30480533099287
O           -0.35632288246514       -1.77761301851655       -0.49060018135827
H           -2.12733894026465        0.30526278030441       -1.10259605192264
H           -2.62004511047795        1.50525986266177        0.09083702752557
H           -1.10488233336501        1.71784459718478       -0.79032975682651
H           -0.64854166356788        0.90959907515780        1.53434824462022
H           -1.74021000055231       -0.44695722006147        1.30816337040404
H            0.58914817792499       -1.13654166945176        1.17852081026893
H            1.98603365087955       -0.63591321345925       -0.74811937028757
H            0.77815696825103        0.45815637963218       -1.41515827015832
H            2.66456509853097        1.67843631211579       -0.25377504177959
H            1.10571131822565        2.03869202165317        0.49605016502053
H            2.21850680238286        0.90022584679346        1.27123338764034
H           -0.68354916834253       -1.41314326170290       -1.32410810636396
18
 energy: -272.910030717371 gnorm: 0.000590710416 xtb: 6.7.1 (edcfbbe)
C           -1.75488823793217        0.97461299485769       -0.31882930404130
C           -1.03182870685314        0.20627392856106        0.78503709171351
C            0.12964425935354       -0.66424936069177        0.30130682256879
C            1.20746249334074        0.08804650895599       -0.47616943176822
C            1.83102509194560        1.24163438765281        0.30493662575146
O           -0.35558195540894       -1.77868095642171       -0.48903087043830
H           -2.12889100943722        0.30549876384028       -1.10230928021590
H           -2.61871663171742        1.50761578962854        0.09059027033569
H           -1.10377966494043        1.71651741160891       -0.79195947915178
H           -0.64985260492810        0.90897637703418        1.53535197868780
H           -1.74031666014253       -0.44792105047151        1.30724689766471
H            0.59074517984913       -1.13458599642691        1.17893392976576
H            1.98481123788433       -0.63462837670801       -0.75114111530436
H            0.77624698606236        0.46017740996722       -1.41521175833506
H            2.66601646574697        1.67790135110554       -0.25189459409015
H            1.10680496152479        2.03939825799839        0.49649245935948
H            2.21709922477225        0.89874295263086        1.27162091455752
H           -0.68295496055864       -1.41634283367357       -1.32315799998204
18
 energy: -272.910030717371 gnorm: 0.000590710416 xtb: 6.7.1 (edcfbbe)
C           -1.75488823793217        0.97461299485769       -0.31882930404130
C           -1.03182870685314        0.20627392856106        0.78503709171351
C            0.12964425935354       -0.66424936069177        0.30130682256879
C            1.20746249334074        0.08804650895599       -0.47616943176822
C            1.83102509194560        1.24163438765281        0.30493662575146
O           -0.35558195540894       -1.77868095642171       -0.48903087043830
H           -2.12889100943722        0.30549876384028       -1.10230928021590
H           -2.61871663171742        1.50761578962854        0.09059027033569
H           -1.10377966494043        1.71651741160891       -0.79195947915178
H           -0.64985260492810        0.90897637703418        1.53535197868780
H           -1.74031666014253       -0.44792105047151        1.30724689766471
H            0.59074517984913       -1.13458599642691        1.17893392976576
H            1.98481123788433       -0.63462837670801       -0.75114111530436
H            0.77624698606236        0.46017740996722       -1.41521175833506
H            2.66601646574697        1.67790135110554       -0.25189459409015
H            1.10680496152479        2.03939825799839        0.49649245935948
H            2.21709922477225        0.89874295263086        1.27162091455752
H           -0.68295496055864       -1.41634283367357       -1.32315799998204
