
                                 *****************
                                 * O   R   C   A *
                                 *****************

                                            #,                                       
                                            ###                                      
                                            ####                                     
                                            #####                                    
                                            ######                                   
                                           ########,                                 
                                     ,,################,,,,,                         
                               ,,#################################,,                 
                          ,,##########################################,,             
                       ,#########################################, ''#####,          
                    ,#############################################,,   '####,        
                  ,##################################################,,,,####,       
                ,###########''''           ''''###############################       
              ,#####''   ,,,,##########,,,,          '''####'''          '####       
            ,##' ,,,,###########################,,,                        '##       
           ' ,,###''''                  '''############,,,                           
         ,,##''                                '''############,,,,        ,,,,,,###''
      ,#''                                            '''#######################'''  
     '                                                          ''''####''''         
             ,#######,   #######,   ,#######,      ##                                
            ,#'     '#,  ##    ##  ,#'     '#,    #''#        ,####,   ,####,        
            ##       ##  ##   ,#'  ##            #'  '#       #'       #'  '#        
            ##       ##  #######   ##           ,######,      #####,   #    #        
            '#,     ,#'  ##    ##  '#,     ,#' ,#      #,     #,   #   #,  ,#        
             '#######'   ##     ##  '#######'  #'      '#     '####' # '####'        



                #########################################################
                #                        -***-                          #
                #          Department of theory and spectroscopy        #
                #                                                       #
                #                      Frank Neese                      #
                #                                                       #
                #     Directorship, Architecture, Infrastructure        #
                #                    SHARK, DRIVERS                     #
                #        Core code/Algorithms in most modules           #
                #                                                       #
                #        Max Planck Institute fuer Kohlenforschung      #
                #                Kaiser Wilhelm Platz 1                 #
                #                 D-45470 Muelheim/Ruhr                 #
                #                      Germany                          #
                #                                                       #
                #                  All rights reserved                  #
                #                        -***-                          #
                #########################################################


                         Program Version 6.0.0  -   RELEASE  -


 With contributions from (in alphabetic order):
   Daniel Aravena         : Magnetic Suceptibility
   Michael Atanasov       : Ab Initio Ligand Field Theory (pilot matlab implementation)
   Alexander A. Auer      : GIAO ZORA, VPT2 properties, NMR spectrum
   Ute Becker             : All parallelization in ORCA, NUMFREQ, NUMCALC
   Giovanni Bistoni       : ED, misc. LED, open-shell LED, HFLD
   Martin Brehm           : Molecular dynamics
   Dmytro Bykov           : pre 5.0 version of the SCF Hessian
   Marcos Casanova-Páez   : Triplet and SCS-CIS(D). UHF-(DLPNO)-IP/EA/STEOM-CCSD. UHF-CVS-IP/STEOM-CCSD
   Vijay G. Chilkuri      : MRCI spin determinant printing, contributions to CSF-ICE
   Pauline Colinet        : FMM embedding
   Dipayan Datta          : RHF DLPNO-CCSD density
   Achintya Kumar Dutta   : EOM-CC, STEOM-CC
   Nicolas Foglia         : Exact transition moments, OPA infrastructure, MCD improvements
   Dmitry Ganyushin       : Spin-Orbit,Spin-Spin,Magnetic field MRCI
   Miquel Garcia          : C-PCM and meta-GGA Hessian, CCSD/C-PCM, Gaussian charge scheme
   Tiago L. C. Gouveia    : GS-ROHF, GS-ROCIS
   Yang Guo               : DLPNO-NEVPT2, F12-NEVPT2, CIM, IAO-localization
   Andreas Hansen         : Spin unrestricted coupled pair/coupled cluster methods
   Ingolf Harden          : AUTO-CI MPn and infrastructure 
   Benjamin Helmich-Paris : MC-RPA, TRAH-(SCF,CASSCF), AVAS, COSX integrals, SCF dyn. polar.
   Lee Huntington         : MR-EOM, pCC
   Robert Izsak           : Overlap fitted RIJCOSX, COSX-SCS-MP3, EOM
   Riya Kayal             : Wick's Theorem for AUTO-CI, AUTO-CI UHF-CCSDT
   Emily Kempfer          : AUTO-CI, RHF CISDT and CCSDT
   Christian Kollmar      : KDIIS, OOCD, Brueckner-CCSD(T), CCSD density, CASPT2, CASPT2-K, improved NEVPT2
   Axel Koslowski         : Symmetry handling
   Simone Kossmann        : Meta GGA functionals, TD-DFT gradient, OOMP2, (MP2 Hessian; deprecated post 5.0)
   Lucas Lang             : DCDCAS
   Marvin Lechner         : AUTO-CI (C++ implementation), FIC-MRCC
   Spencer Leger          : CASSCF response
   Dagmar Lenk            : GEPOL surface, SMD, ORCA-2-JSON
   Dimitrios Liakos       : Extrapolation schemes; Compound Job, initial MDCI parallelization
   Dimitrios Manganas     : Further ROCIS development; embedding schemes. LFT, Crystal Embedding
   Dimitrios Pantazis     : SARC Basis sets
   Anastasios Papadopoulos: AUTO-CI, single reference methods and gradients
   Taras Petrenko         : pre 6.0 DFT Hessian and TD-DFT gradient, (ASA, deprecated), ECA, 1-Electron XAS/XES, NRVS
   Peter Pinski           : DLPNO-MP2, DLPNO-MP2 Gradient
   Christoph Reimann      : Effective Core Potentials
   Marius Retegan         : Local ZFS, SOC
   Christoph Riplinger    : Optimizer, TS searches, QM/MM, DLPNO-CCSD(T), (RO)-DLPNO pert. Triples
   Michael Roemelt        : Original ROCIS implementation
   Masaaki Saitow         : Open-shell DLPNO-CCSD energy and density
   Barbara Sandhoefer     : DKH picture change effects
   Kantharuban Sivalingam : CASSCF convergence/infrastructure, NEVPT2 and variants, FIC-MRCI
   Bernardo de Souza      : ESD, SOC TD-DFT
   Georgi Stoychev        : AutoAux, RI-MP2 NMR, DLPNO-MP2 response, X2C
   Van Anh Tran           : RI-MP2 g-tensors
   Willem Van den Heuvel  : Paramagnetic NMR
   Zikuan Wang            : NOTCH, Electric field optimization 
   Frank Wennmohs         : Technical directorship and infrastructure
   Hang Xu                : AUTO-CI-Response properties 


 We gratefully acknowledge several colleagues who have allowed us to
 interface, adapt or use parts of their codes:
   Stefan Grimme, W. Hujo, H. Kruse, P. Pracht,  : VdW corrections, initial TS optimization,
                  C. Bannwarth, S. Ehlert,         DFT functionals, gCP, sTDA/sTD-DF
                  L. Wittmann, M. Mueller
   Ed Valeev, F. Pavosevic, A. Kumar             : LibInt (2-el integral package), F12 methods
   Garnet Chan, S. Sharma, J. Yang, R. Olivares  : DMRG
   Ulf Ekstrom                                   : XCFun DFT Library
   Mihaly Kallay                                 : mrcc  (arbitrary order and MRCC methods)
   Frank Weinhold                                : gennbo (NPA and NBO analysis)
   Simon Mueller                                 : openCOSMO-RS
   Christopher J. Cramer and Donald G. Truhlar   : smd solvation model
   Lars Goerigk                                  : TD-DFT with DH, B97 family of functionals
   V. Asgeirsson, H. Jonsson                     : NEB implementation
   FAccTs GmbH                                   : IRC, NEB, NEB-TS, DLPNO-Multilevel, CI-OPT
                                                   MM, QMMM, 2- and 3-layer-ONIOM, Crystal-QMMM,
                                                   LR-CPCM, SF, NACMEs, symmetry and pop. for TD-DFT,
                                                   nearIR, NL-DFT gradient (VV10), updates on ESD,
                                                   ML-optimized integration grids, MBIS, APM,
                                                   GOAT, DOCKER, SOLVATOR, interface openCOSMO-RS
   S Lehtola, MJT Oliveira, MAL Marques          : LibXC Library
   Liviu Ungur et al                             : ANISO software


 Your calculation uses the libint2 library for the computation of 2-el integrals
 For citations please refer to: http://libint.valeyev.net

 Your ORCA version has been built with support for libXC version: 6.2.2
 For citations please refer to: https://libxc.gitlab.io

 This ORCA versions uses:
   CBLAS   interface :  Fast vector & matrix operations
   LAPACKE interface :  Fast linear algebra routines
   SCALAPACK package :  Parallel linear algebra routines
   Shared memory     :  Shared parallel matrices
   BLAS/LAPACK       :  OpenBLAS 0.3.27  USE64BITINT DYNAMIC_ARCH NO_AFFINITY SkylakeX SINGLE_THREADED
        Core in use  :  SkylakeX
   Copyright (c) 2011-2014, The OpenBLAS Project


Your calculation utilizes the geometrical counterpoise correction gCP
Please cite in your paper:
H.Kruse, S. Grimme J.Chem.Phys., 136, (2012), 154101 
   

Your calculation utilizes the atom-pairwise dispersion correction
based on EEQ partial charges (D4)


================================================================================

----- Orbital basis set information -----
Your calculation utilizes the basis: def2-SV(P)
   F. Weigend and R. Ahlrichs, Phys. Chem. Chem. Phys. 7, 3297 (2005).

----- AuxJ basis set information -----
Your calculation utilizes the auxiliary basis: def2/J
   F. Weigend, Phys. Chem. Chem. Phys. 8, 1057 (2006).

================================================================================
                                        WARNINGS
                       Please study these warnings very carefully!
================================================================================


================================================================================
                                       INPUT FILE
================================================================================
NAME = sp.inp
|  1> ! pbe def2-sv(p) def2/J RI DEFGRID1 loosescf d4 GCP(DFT/SV(P)) printgap
|  2> %output
|  3>     printlevel normal
|  4> end
|  5> * xyz 0 1
|  6> C -2.1781479604 1.0669130821 0.5690420244
|  7> C -2.0882527364 -0.2933006574 -0.1121342489
|  8> C -0.8217072046 -0.4139389408 -0.9652333156
|  9> C 0.4130074978 -0.4082190628 -0.1018889909
| 10> O 0.5954447374 -1.12660105 0.8587035634
| 11> O 1.3014959445 0.4827138758 -0.5282411026
| 12> C 2.5418684169 0.6007863145 0.174359068
| 13> H -2.1642968384 1.865875859 -0.168444085
| 14> H -3.0966511395 1.1423435364 1.1447610641
| 15> H -1.3378886896 1.2081364091 1.246359691
| 16> H -2.9586440094 -0.4416636173 -0.7515785922
| 17> H -2.0764927442 -1.0815735622 0.6428808326
| 18> H -0.7495930149 0.4039084106 -1.6811628678
| 19> H -0.8365048594 -1.3633536348 -1.5035201035
| 20> H 3.2745145106 0.930388688 -0.5565548723
| 21> H 2.8189242767 -0.3620578334 0.6052434608
| 22> H 2.436024952 1.3380840261 0.9702830308
| 23> *
| 24> 
| 25>                          ****END OF INPUT****
================================================================================

                       ****************************
                       * Single Point Calculation *
                       ****************************

---------------------------------
CARTESIAN COORDINATES (ANGSTROEM)
---------------------------------
  C     -2.178148    1.066913    0.569042
  C     -2.088253   -0.293301   -0.112134
  C     -0.821707   -0.413939   -0.965233
  C      0.413007   -0.408219   -0.101889
  O      0.595445   -1.126601    0.858704
  O      1.301496    0.482714   -0.528241
  C      2.541868    0.600786    0.174359
  H     -2.164297    1.865876   -0.168444
  H     -3.096651    1.142344    1.144761
  H     -1.337889    1.208136    1.246360
  H     -2.958644   -0.441664   -0.751579
  H     -2.076493   -1.081574    0.642881
  H     -0.749593    0.403908   -1.681163
  H     -0.836505   -1.363354   -1.503520
  H      3.274515    0.930389   -0.556555
  H      2.818924   -0.362058    0.605243
  H      2.436025    1.338084    0.970283

----------------------------
CARTESIAN COORDINATES (A.U.)
----------------------------
  NO LB      ZA    FRAG     MASS         X           Y           Z
   0 C     6.0000    0    12.011   -4.116103    2.016174    1.075334
   1 C     6.0000    0    12.011   -3.946226   -0.554258   -0.211903
   2 C     6.0000    0    12.011   -1.552802   -0.782231   -1.824027
   3 C     6.0000    0    12.011    0.780471   -0.771422   -0.192542
   4 O     8.0000    0    15.999    1.125227   -2.128967    1.622715
   5 O     8.0000    0    15.999    2.459471    0.912197   -0.998231
   6 C     6.0000    0    12.011    4.803435    1.135322    0.329491
   7 H     1.0000    0     1.008   -4.089928    3.525994   -0.318313
   8 H     1.0000    0     1.008   -5.851823    2.158716    2.163285
   9 H     1.0000    0     1.008   -2.528243    2.283047    2.355278
  10 H     1.0000    0     1.008   -5.591027   -0.834623   -1.420278
  11 H     1.0000    0     1.008   -3.924003   -2.043878    1.214869
  12 H     1.0000    0     1.008   -1.416526    0.763276   -3.176937
  13 H     1.0000    0     1.008   -1.580765   -2.576365   -2.841241
  14 H     1.0000    0     1.008    6.187936    1.758180   -1.051736
  15 H     1.0000    0     1.008    5.326995   -0.684190    1.143744
  16 H     1.0000    0     1.008    4.603420    2.528612    1.833569

--------------------------------
INTERNAL COORDINATES (ANGSTROEM)
--------------------------------
 C      0   0   0     0.000000000000     0.00000000     0.00000000
 C      1   0   0     1.523897530587     0.00000000     0.00000000
 C      2   1   0     1.531818917871   111.59300549     0.00000000
 C      3   2   1     1.506624218682   110.98791453    66.72783789
 O      4   3   2     1.213298842538   125.07586023    51.48715671
 O      4   3   2     1.328513960842   111.51411498   230.92381124
 C      6   4   3     1.430423703242   118.53202479   180.85814145
 H      1   2   3     1.087390975689   110.60479706    58.10254648
 H      1   2   3     1.086641733105   110.40463671   178.33960350
 H      1   2   3     1.088457115252   110.39100385   298.04212854
 H      2   1   3     1.090175033728   109.66755476   239.33100156
 H      2   1   3     1.091586113484   109.63533640   120.39445602
 H      3   2   1     1.089325419818   111.20023778   305.67353554
 H      3   2   1     1.091494341625   109.38698690   184.90739439
 H      7   6   4     1.086113811419   106.22647535   150.90999300
 H      7   6   4     1.090637502818   109.96599766    30.42400071
 H      7   6   4     1.090094357912   109.28503083   270.23662194

---------------------------
INTERNAL COORDINATES (A.U.)
---------------------------
 C      0   0   0     0.000000000000     0.00000000     0.00000000
 C      1   0   0     2.879748988969     0.00000000     0.00000000
 C      2   1   0     2.894718241537   111.59300549     0.00000000
 C      3   2   1     2.847107160042   110.98791453    66.72783789
 O      4   3   2     2.292802531000   125.07586023    51.48715671
 O      4   3   2     2.510527551083   111.51411498   230.92381124
 C      6   4   3     2.703109054596   118.53202479   180.85814145
 H      1   2   3     2.054871144550   110.60479706    58.10254648
 H      1   2   3     2.053455281258   110.40463671   178.33960350
 H      1   2   3     2.056885856344   110.39100385   298.04212854
 H      2   1   3     2.060132251784   109.66755476   239.33100156
 H      2   1   3     2.062798806076   109.63533640   120.39445602
 H      3   2   1     2.058526714175   111.20023778   305.67353554
 H      3   2   1     2.062625382395   109.38698690   184.90739439
 H      7   6   4     2.052457653852   106.22647535   150.90999300
 H      7   6   4     2.061006191710   109.96599766    30.42400071
 H      7   6   4     2.059979796587   109.28503083   270.23662194

---------------------
BASIS SET INFORMATION
---------------------
There are 3 groups of distinct atoms

 Group   1 Type C   : 7s4p1d contracted to 3s2p1d pattern {511/31/1}
 Group   2 Type O   : 7s4p1d contracted to 3s2p1d pattern {511/31/1}
 Group   3 Type H   : 4s contracted to 2s pattern {31}

Atom   0C    basis set group =>   1
Atom   1C    basis set group =>   1
Atom   2C    basis set group =>   1
Atom   3C    basis set group =>   1
Atom   4O    basis set group =>   2
Atom   5O    basis set group =>   2
Atom   6C    basis set group =>   1
Atom   7H    basis set group =>   3
Atom   8H    basis set group =>   3
Atom   9H    basis set group =>   3
Atom  10H    basis set group =>   3
Atom  11H    basis set group =>   3
Atom  12H    basis set group =>   3
Atom  13H    basis set group =>   3
Atom  14H    basis set group =>   3
Atom  15H    basis set group =>   3
Atom  16H    basis set group =>   3
---------------------------------
AUXILIARY/J BASIS SET INFORMATION
---------------------------------
There are 3 groups of distinct atoms

 Group   1 Type C   : 12s5p4d2f1g contracted to 6s4p3d1f1g pattern {711111/2111/211/2/1}
 Group   2 Type O   : 12s5p4d2f1g contracted to 6s4p3d1f1g pattern {711111/2111/211/2/1}
 Group   3 Type H   : 5s2p1d contracted to 3s1p1d pattern {311/2/1}

Atom   0C    basis set group =>   1
Atom   1C    basis set group =>   1
Atom   2C    basis set group =>   1
Atom   3C    basis set group =>   1
Atom   4O    basis set group =>   2
Atom   5O    basis set group =>   2
Atom   6C    basis set group =>   1
Atom   7H    basis set group =>   3
Atom   8H    basis set group =>   3
Atom   9H    basis set group =>   3
Atom  10H    basis set group =>   3
Atom  11H    basis set group =>   3
Atom  12H    basis set group =>   3
Atom  13H    basis set group =>   3
Atom  14H    basis set group =>   3
Atom  15H    basis set group =>   3
Atom  16H    basis set group =>   3
------------------------------------------------------------------------------
                             ORCA STARTUP CALCULATIONS
                           -- RI-GTO INTEGRALS CHOSEN --
------------------------------------------------------------------------------
------------------------------------------------------------------------------
                   ___                                                        
                  /   \      - P O W E R E D   B Y -                         
                 /     \                                                     
                 |  |  |   _    _      __       _____    __    __             
                 |  |  |  | |  | |    /  \     |  _  \  |  |  /  |          
                  \  \/   | |  | |   /    \    | | | |  |  | /  /          
                 / \  \   | |__| |  /  /\  \   | |_| |  |  |/  /          
                |  |  |   |  __  | /  /__\  \  |    /   |      \           
                |  |  |   | |  | | |   __   |  |    \   |  |\   \          
                \     /   | |  | | |  |  |  |  | |\  \  |  | \   \       
                 \___/    |_|  |_| |__|  |__|  |_| \__\ |__|  \__/        
                                                                              
                      - O R C A' S   B I G   F R I E N D -                    
                                      &                                       
                       - I N T E G R A L  F E E D E R -                       
                                                                              
 v1 FN, 2020, v2 2021, v3 2022-2024                                           
------------------------------------------------------------------------------


----------------------
SHARK INTEGRAL PACKAGE
----------------------

Number of atoms                             ...     17
Number of basis functions                   ...    118
Number of shells                            ...     62
Maximum angular momentum                    ...      2
Integral batch strategy                     ... SHARK/LIBINT Hybrid
RI-J (if used) integral strategy            ... SPLIT-RIJ (Revised 2003 algorithm where possible)
Printlevel                                  ...      1
Contraction scheme used                     ... SEGMENTED contraction
Prescreening option                         ... SCHWARTZ
   Thresh                                   ... 1.000e-09
   Tcut                                     ... 1.000e-10
   Tpresel                                  ... 1.000e-10 
Coulomb Range Separation                    ... NOT USED
Exchange Range Separation                   ... NOT USED
Multipole approximations                    ... NOT USED
Finite Nucleus Model                        ... NOT USED
CABS basis                                  ... NOT available
Auxiliary Coulomb fitting basis             ... AVAILABLE
   # of basis functions in Aux-J            ...    453
   # of shells in Aux-J                     ...    155
   Maximum angular momentum in Aux-J        ...      4
Auxiliary J/K fitting basis                 ... NOT available
Auxiliary Correlation fitting basis         ... NOT available
Auxiliary 'external' fitting basis          ... NOT available

Checking pre-screening integrals            ... done (  0.0 sec) Dimension = 62
Check shell pair data                       ... done (  0.0 sec)
Shell pair information
Shell pair cut-off parameter TPreSel        ...   1.0e-10
Total number of shell pairs                 ...      1953
Shell pairs after pre-screening             ...      1860
Total number of primitive shell pairs       ...      7871
Primitive shell pairs kept                  ...      5313
          la=0 lb=0:    803 shell pairs
          la=1 lb=0:    560 shell pairs
          la=1 lb=1:    105 shell pairs
          la=2 lb=0:    268 shell pairs
          la=2 lb=1:     98 shell pairs
          la=2 lb=2:     26 shell pairs

Calculating one electron integrals          ... done (  0.0 sec)
Calculating RI/J V-Matrix + Cholesky decomp.... done (  0.1 sec)
Calculating Nuclear repulsion               ... done (  0.0 sec) ENN=    318.995255503727 Eh

Diagonalization of the overlap matrix:
Smallest eigenvalue                        ... 2.060e-03
Time for diagonalization                   ...    0.002 sec
Threshold for overlap eigenvalues          ... 1.000e-07
Number of eigenvalues below threshold      ... 0
Time for construction of square roots      ...    0.017 sec
Total time needed                          ...    0.030 sec

-------------------
DFT GRID GENERATION
-------------------

General Integration Accuracy     IntAcc      ... 4.159
Radial Grid Type                 RadialGrid  ... OptM3 with GC (2021)
Angular Grid (max. ang.)         AngularGrid ... 3 (Lebedev-194)
Angular grid pruning method      GridPruning ... 4 (adaptive)
Weight generation scheme         WeightScheme... mBecke (2022)
Basis function cutoff            BFCut       ... 1.0000e-10
Integration weight cutoff        WCut        ... 1.0000e-14
Partially contracted basis set               ... off
Rotationally invariant grid construction     ... off
Angular grids for H and He will be reduced by one unit

Total number of grid points                  ...    37060
Total number of batches                      ...      588
Average number of points per batch           ...       63
Average number of grid points per atom       ...     2180
Initializing property integral containers    ... done (  0.0 sec)

SHARK setup successfully completed in   0.7 seconds

Maximum memory used throughout the entire STARTUP-calculation: 18.4 MB
-------------------------------------------------------------------------------
                                 ORCA GUESS
                   Start orbitals & Density for SCF / CASSCF
-------------------------------------------------------------------------------

------------
SCF SETTINGS
------------
Hamiltonian:
 Density Functional     Method          .... DFT(GTOs)
 Exchange Functional    Exchange        .... PBE
   PBE kappa parameter   XKappa         ....  0.804000
   PBE mue parameter    XMuePBE         ....  0.219520
 Correlation Functional Correlation     .... PBE
   PBE beta parameter  CBetaPBE         ....  0.066725
 LDA part of GGA corr.  LDAOpt          .... PW91-LDA
 Gradients option       PostSCFGGA      .... off
   NL short-range parameter             ....  6.400000
 RI-approximation to the Coulomb term is turned on
   Number of AuxJ basis functions       .... 453


General Settings:
 Integral files         IntName         .... sp
 Hartree-Fock type      HFTyp           .... RHF
 Total Charge           Charge          ....    0
 Multiplicity           Mult            ....    1
 Number of Electrons    NEL             ....   56
 Basis Dimension        Dim             ....  118
 Nuclear Repulsion      ENuc            ....    318.9952555037 Eh

Convergence Acceleration:
 AO-DIIS                CNVDIIS         .... on
   Start iteration      DIISMaxIt       ....    12
   Startup error        DIISStart       ....  0.200000
   # of expansion vecs  DIISMaxEq       ....     5
   Bias factor          DIISBfac        ....   1.050
   Max. coefficient     DIISMaxC        ....  10.000
 MO-DIIS                CNVKDIIS        .... off
 Trust-Rad. Augm. Hess. CNVTRAH         .... auto
   Auto Start mean grad. ratio tolernc. ....  1.125000
   Auto Start start iteration           ....    50
   Auto Start num. interpolation iter.  ....    10
   Max. Number of Micro iterations      ....    24
   Max. Number of Macro iterations      .... Maxiter - #DIIS iter
   Number of Davidson start vectors     ....     2
   Converg. threshold    (grad. norm)   ....   1.000e-04
   Grad. Scal. Fac. for Micro threshold ....   0.100
   Minimum threshold for Micro iter.    ....   1.000e-02
   NR start threshold (gradient norm)   ....   1.000e-04
   Initial trust radius                 ....   0.400
   Minimum AH scaling param. (alpha)    ....   1.000
   Maximum AH scaling param. (alpha)    .... 1000.000
   Quad. conv. algorithm                .... NR
   White noise on init. David. guess    .... on
   Maximum white noise                  ....   0.010
   Pseudo random numbers                .... off
   Inactive MOs                         .... canonical
   Orbital update algorithm             .... Taylor
   Preconditioner                       .... Diag
   Full preconditioner red. dimension   ....   250
 SOSCF                  CNVSOSCF        .... on
   Start iteration      SOSCFMaxIt      ....   150
   Startup grad/error   SOSCFStart      ....  0.003300
   Hessian update       SOSCFHessUp     .... L-BFGS
 Level Shifting         CNVShift        .... on
   Level shift para.    LevelShift      ....    0.2500
   Turn off err/grad.   ShiftErr        ....    0.0010
 Zerner damping         CNVZerner       .... off
 Static damping         CNVDamp         .... on
   Fraction old density DampFac         ....    0.7000
   Max. Damping (<1)    DampMax         ....    0.9800
   Min. Damping (>=0)   DampMin         ....    0.0000
   Turn off err/grad.   DampErr         ....    0.1000

SCF Procedure:
 Maximum # iterations   MaxIter         ....   125
 SCF integral mode      SCFMode         .... Direct
   Integral package                     .... SHARK and LIBINT hybrid scheme
 Reset frequency        DirectResetFreq ....    20
 Integral Threshold     Thresh          ....  1.000e-09 Eh
 Primitive CutOff       TCut            ....  1.000e-10 Eh

Convergence Tolerance:
 Convergence Check Mode ConvCheckMode   .... Total+1el-Energy
 Convergence forced     ConvForced      .... 0
 Energy Change          TolE            ....  1.000e-05 Eh
 1-El. energy change                    ....  1.000e-02 Eh
 Orbital Gradient       TolG            ....  1.000e-04
 Orbital Rotation angle TolX            ....  1.000e-04
 DIIS Error             TolErr          ....  5.000e-04

------------------------------
INITIAL GUESS: MODEL POTENTIAL
------------------------------
Loading Hartree-Fock densities                     ... done
Calculating cut-offs                               ... done
Initializing the effective Hamiltonian             ... done
Setting up the integral package (SHARK)            ... done
Starting the Coulomb interaction                   ... done (   0.1 sec)
Making the grid                                    ... done (   0.2 sec)
Mapping shells                                     ... done
Starting the XC term evaluation                    ... done (   0.2 sec)
  promolecular density results
     # of electrons  =     55.997823126
     EX              =    -44.832894052
     EC              =     -1.844589885
     EX+EC           =    -46.677483938
Transforming the Hamiltonian                       ... done (   0.0 sec)
Diagonalizing the Hamiltonian                      ... done (   0.0 sec)
Back transforming the eigenvectors                 ... done (   0.0 sec)
Now organizing SCF variables                       ... done
                      ------------------
                      INITIAL GUESS DONE (   0.5 sec)
                      ------------------
             **** ENERGY FILE WAS UPDATED (sp.en.tmp) ****
Finished Guess after   0.7 sec
Maximum memory used throughout the entire GUESS-calculation: 14.1 MB

-------------------------------------------------------------------------------------------
                                      ORCA LEAN-SCF
                              memory conserving SCF solver
-------------------------------------------------------------------------------------------

----------------------------------------D-I-I-S--------------------------------------------
Iteration    Energy (Eh)           Delta-E    RMSDP     MaxDP     DIISErr   Damp  Time(sec)
-------------------------------------------------------------------------------------------
               ***  Starting incremental Fock matrix formation  ***
    1    -346.0937984455523520     0.00e+00  5.29e-03  9.11e-02  2.41e-01  0.700   0.7
    2    -346.2005440952719937    -1.07e-01  3.28e-03  5.14e-02  7.67e-02  0.700   0.7
                               ***Turning on AO-DIIS***
    3    -346.2326500498057840    -3.21e-02  1.32e-03  1.40e-02  2.41e-02  0.700   0.9
    4    -346.2540590929132804    -2.14e-02  1.87e-03  2.09e-02  1.78e-02  0.000   0.8
    5    -346.3039593452859890    -4.99e-02  5.93e-04  8.08e-03  8.36e-03  0.000   0.8
                              *** Initializing SOSCF ***
---------------------------------------S-O-S-C-F--------------------------------------
Iteration    Energy (Eh)           Delta-E    RMSDP     MaxDP     MaxGrad    Time(sec)
--------------------------------------------------------------------------------------
    6    -346.3045665609478192    -6.07e-04  2.23e-04  2.34e-03  3.07e-03     0.8
               *** Restarting incremental Fock matrix formation ***
    7    -346.3046122253917929    -4.57e-05  1.66e-04  2.44e-03  6.20e-04     0.7
    8    -346.3045949384305686     1.73e-05  9.12e-05  1.81e-03  1.83e-03     0.7
    9    -346.3046178304799696    -2.29e-05  6.85e-05  9.77e-04  2.94e-04     0.7
   10    -346.3046145397396458     3.29e-06  4.11e-05  6.32e-04  4.67e-04     0.7
                 **** Energy Check signals convergence ****

               *****************************************************
               *                     SUCCESS                       *
               *           SCF CONVERGED AFTER  10 CYCLES          *
               *****************************************************

             **** ENERGY FILE WAS UPDATED (sp.en.tmp) ****

----------------
TOTAL SCF ENERGY
----------------

Total Energy       :       -346.30461453973965 Eh           -9423.42764 eV

Components:
Nuclear Repulsion  :        318.99525550372687 Eh            8680.30220 eV
Electronic Energy  :       -665.29987004346651 Eh          -18103.72984 eV
One Electron Energy:      -1102.68993179622930 Eh          -30005.71851 eV
Two Electron Energy:        437.39006175276279 Eh           11901.98867 eV

Virial components:
Potential Energy   :       -689.85784696506471 Eh          -18771.98637 eV
Kinetic Energy     :        343.55323242532506 Eh            9348.55873 eV
Virial Ratio       :          2.00800860494018

DFT components:
N(Alpha)           :       27.999895840302 electrons
N(Beta)            :       27.999895840302 electrons
N(Total)           :       55.999791680604 electrons
E(X)               :      -45.741212233381 Eh       
E(C)               :       -1.860031381020 Eh       
E(XC)              :      -47.601243614402 Eh       

---------------
SCF CONVERGENCE
---------------

  Last Energy change         ...   -3.2907e-06  Tolerance :   1.0000e-05
  Last MAX-Density change    ...    6.3162e-04  Tolerance :   1.0000e-03
  Last RMS-Density change    ...    4.1060e-05  Tolerance :   1.0000e-04
  Last DIIS Error            ...    3.0718e-03  Tolerance :   5.0000e-04
  Last Orbital Gradient      ...    4.6697e-04  Tolerance :   1.0000e-04
  Last Orbital Rotation      ...    4.4021e-04  Tolerance :   1.0000e-04


----------------
ORBITAL ENERGIES
----------------

  NO   OCC          E(Eh)            E(eV) 
   0   2.0000     -18.800126      -511.5774 
   1   2.0000     -18.731715      -509.7159 
   2   2.0000     -10.005003      -272.2500 
   3   2.0000      -9.941029      -270.5091 
   4   2.0000      -9.896472      -269.2967 
   5   2.0000      -9.890697      -269.1395 
   6   2.0000      -9.876956      -268.7657 
   7   2.0000      -1.005010       -27.3477 
   8   2.0000      -0.908923       -24.7330 
   9   2.0000      -0.725068       -19.7301 
  10   2.0000      -0.671932       -18.2842 
  11   2.0000      -0.620219       -16.8770 
  12   2.0000      -0.539706       -14.6862 
  13   2.0000      -0.499599       -13.5948 
  14   2.0000      -0.451008       -12.2725 
  15   2.0000      -0.438501       -11.9322 
  16   2.0000      -0.420044       -11.4300 
  17   2.0000      -0.403352       -10.9758 
  18   2.0000      -0.389469       -10.5980 
  19   2.0000      -0.361834        -9.8460 
  20   2.0000      -0.355543        -9.6748 
  21   2.0000      -0.343511        -9.3474 
  22   2.0000      -0.310553        -8.4506 
  23   2.0000      -0.298665        -8.1271 
  24   2.0000      -0.297328        -8.0907 
  25   2.0000      -0.292715        -7.9652 
  26   2.0000      -0.257221        -6.9993 
  27   2.0000      -0.218936        -5.9575 
  28   0.0000      -0.020345        -0.5536 
  29   0.0000       0.041126         1.1191 
  30   0.0000       0.059549         1.6204 
  31   0.0000       0.079769         2.1706 
  32   0.0000       0.082892         2.2556 
  33   0.0000       0.086538         2.3548 
  34   0.0000       0.103795         2.8244 
  35   0.0000       0.115106         3.1322 
  36   0.0000       0.117834         3.2064 
  37   0.0000       0.119206         3.2438 
  38   0.0000       0.135990         3.7005 
*Only the first 10 virtual orbitals were printed.

                    ********************************
                    * MULLIKEN POPULATION ANALYSIS *
                    ********************************

-----------------------
MULLIKEN ATOMIC CHARGES
-----------------------
   0 C :   -0.289451
   1 C :   -0.197834
   2 C :   -0.128487
   3 C :    0.085365
   4 O :   -0.209528
   5 O :   -0.237215
   6 C :   -0.123242
   7 H :    0.098896
   8 H :    0.107794
   9 H :    0.115534
  10 H :    0.091062
  11 H :    0.108396
  12 H :    0.093776
  13 H :    0.114348
  14 H :    0.122109
  15 H :    0.128248
  16 H :    0.120230
Sum of atomic charges:   -0.0000000

--------------------------------
MULLIKEN REDUCED ORBITAL CHARGES
--------------------------------
  0 C s       :     3.094390  s :     3.094390
      pz      :     1.060122  p :     3.165775
      px      :     1.075707
      py      :     1.029945
      dz2     :     0.001583  d :     0.029286
      dxz     :     0.008769
      dyz     :     0.008322
      dx2y2   :     0.008074
      dxy     :     0.002539

  1 C s       :     3.077722  s :     3.077722
      pz      :     1.018204  p :     3.083197
      px      :     1.006329
      py      :     1.058663
      dz2     :     0.003305  d :     0.036915
      dxz     :     0.009569
      dyz     :     0.010375
      dx2y2   :     0.009037
      dxy     :     0.004629

  2 C s       :     3.012037  s :     3.012037
      pz      :     1.053951  p :     3.083238
      px      :     0.999430
      py      :     1.029857
      dz2     :     0.003235  d :     0.033212
      dxz     :     0.007555
      dyz     :     0.009866
      dx2y2   :     0.009291
      dxy     :     0.003264

  3 C s       :     3.061935  s :     3.061935
      pz      :     0.920865  p :     2.722274
      px      :     0.940422
      py      :     0.860987
      dz2     :     0.026547  d :     0.130426
      dxz     :     0.032578
      dyz     :     0.021326
      dx2y2   :     0.023317
      dxy     :     0.026659

  4 O s       :     3.745105  s :     3.745105
      pz      :     1.350514  p :     4.446871
      px      :     1.662485
      py      :     1.433872
      dz2     :     0.005360  d :     0.017553
      dxz     :     0.002776
      dyz     :     0.005651
      dx2y2   :     0.002010
      dxy     :     0.001756

  5 O s       :     3.727009  s :     3.727009
      pz      :     1.643244  p :     4.493878
      px      :     1.277201
      py      :     1.573433
      dz2     :     0.002217  d :     0.016328
      dxz     :     0.004614
      dyz     :     0.002628
      dx2y2   :     0.003453
      dxy     :     0.003415

  6 C s       :     3.129524  s :     3.129524
      pz      :     1.006315  p :     2.942885
      px      :     0.826309
      py      :     1.110261
      dz2     :     0.005373  d :     0.050833
      dxz     :     0.015395
      dyz     :     0.009976
      dx2y2   :     0.012332
      dxy     :     0.007757

  7 H s       :     0.901104  s :     0.901104

  8 H s       :     0.892206  s :     0.892206

  9 H s       :     0.884466  s :     0.884466

 10 H s       :     0.908938  s :     0.908938

 11 H s       :     0.891604  s :     0.891604

 12 H s       :     0.906224  s :     0.906224

 13 H s       :     0.885652  s :     0.885652

 14 H s       :     0.877891  s :     0.877891

 15 H s       :     0.871752  s :     0.871752

 16 H s       :     0.879770  s :     0.879770


------------------------
MULLIKEN OVERLAP CHARGES
------------------------
B(  0-C ,  1-C ) :   0.8877 B(  0-C ,  2-C ) :  -0.1317 B(  0-C ,  7-H ) :   0.7543 
B(  0-C ,  8-H ) :   0.7320 B(  0-C ,  9-H ) :   0.7582 B(  0-C , 10-H ) :  -0.0547 
B(  1-C ,  2-C ) :   0.7697 B(  1-C ,  3-C ) :  -0.0516 B(  1-C ,  7-H ) :  -0.0579 
B(  1-C , 10-H ) :   0.7231 B(  1-C , 11-H ) :   0.6965 B(  2-C ,  3-C ) :   0.5610 
B(  2-C ,  4-O ) :  -0.2060 B(  2-C ,  5-O ) :  -0.2517 B(  2-C , 11-H ) :  -0.0542 
B(  2-C , 12-H ) :   0.6111 B(  2-C , 13-H ) :   0.6147 B(  3-C ,  4-O ) :   1.3629 
B(  3-C ,  5-O ) :   0.7403 B(  3-C ,  6-C ) :  -0.0753 B(  4-O ,  5-O ) :  -0.1717 
B(  4-O , 15-H ) :   0.0593 B(  5-O ,  6-C ) :   0.5469 B(  5-O , 14-H ) :  -0.0534 
B(  5-O , 15-H ) :  -0.0656 B(  5-O , 16-H ) :  -0.0568 B(  6-C , 14-H ) :   0.7650 
B(  6-C , 15-H ) :   0.7365 B(  6-C , 16-H ) :   0.7800 B(  7-H ,  9-H ) :  -0.0508 
B( 10-H , 11-H ) :  -0.0584 B( 14-H , 16-H ) :  -0.0551 B( 15-H , 16-H ) :  -0.0571 



                     *******************************
                     * LOEWDIN POPULATION ANALYSIS *
                     *******************************

----------------------
LOEWDIN ATOMIC CHARGES
----------------------
   0 C :   -0.342437
   1 C :   -0.227609
   2 C :   -0.247001
   3 C :    0.034890
   4 O :   -0.172481
   5 O :   -0.072999
   6 C :   -0.207040
   7 H :    0.117186
   8 H :    0.121726
   9 H :    0.120345
  10 H :    0.117925
  11 H :    0.124961
  12 H :    0.126790
  13 H :    0.142933
  14 H :    0.120823
  15 H :    0.122542
  16 H :    0.119447

-------------------------------
LOEWDIN REDUCED ORBITAL CHARGES
-------------------------------
  0 C s       :     2.944809  s :     2.944809
      pz      :     1.114817  p :     3.326805
      px      :     1.125545
      py      :     1.086443
      dz2     :     0.003092  d :     0.070823
      dxz     :     0.021197
      dyz     :     0.021031
      dx2y2   :     0.020476
      dxy     :     0.005027

  1 C s       :     2.906632  s :     2.906632
      pz      :     1.086226  p :     3.232078
      px      :     1.055696
      py      :     1.090156
      dz2     :     0.006652  d :     0.088899
      dxz     :     0.024193
      dyz     :     0.025112
      dx2y2   :     0.024242
      dxy     :     0.008701

  2 C s       :     2.917275  s :     2.917275
      pz      :     1.082710  p :     3.245606
      px      :     1.057404
      py      :     1.105493
      dz2     :     0.006280  d :     0.084120
      dxz     :     0.023346
      dyz     :     0.024332
      dx2y2   :     0.023904
      dxy     :     0.006258

  3 C s       :     2.849540  s :     2.849540
      pz      :     0.971955  p :     2.818270
      px      :     0.950208
      py      :     0.896107
      dz2     :     0.057377  d :     0.297300
      dxz     :     0.075700
      dyz     :     0.052896
      dx2y2   :     0.050656
      dxy     :     0.060670

  4 O s       :     3.550694  s :     3.550694
      pz      :     1.443469  p :     4.590835
      px      :     1.667175
      py      :     1.480191
      dz2     :     0.008285  d :     0.030953
      dxz     :     0.004542
      dyz     :     0.012152
      dx2y2   :     0.003326
      dxy     :     0.002649

  5 O s       :     3.451101  s :     3.451101
      pz      :     1.656717  p :     4.588733
      px      :     1.333231
      py      :     1.598785
      dz2     :     0.003927  d :     0.033165
      dxz     :     0.009081
      dyz     :     0.004261
      dx2y2   :     0.007027
      dxy     :     0.008869

  6 C s       :     2.966333  s :     2.966333
      pz      :     1.075366  p :     3.128343
      px      :     0.896434
      py      :     1.156543
      dz2     :     0.010524  d :     0.112365
      dxz     :     0.034781
      dyz     :     0.024357
      dx2y2   :     0.027182
      dxy     :     0.015522

  7 H s       :     0.882814  s :     0.882814

  8 H s       :     0.878274  s :     0.878274

  9 H s       :     0.879655  s :     0.879655

 10 H s       :     0.882075  s :     0.882075

 11 H s       :     0.875039  s :     0.875039

 12 H s       :     0.873210  s :     0.873210

 13 H s       :     0.857067  s :     0.857067

 14 H s       :     0.879177  s :     0.879177

 15 H s       :     0.877458  s :     0.877458

 16 H s       :     0.880553  s :     0.880553


---------------------------------
LOEWDIN BOND ORDERS (THRESH 0.050000)
---------------------------------
B(  0-C ,  1-C ) :   1.1329 B(  0-C ,  2-C ) :   0.0534 B(  0-C ,  7-H ) :   0.9405 
B(  0-C ,  8-H ) :   0.9392 B(  0-C ,  9-H ) :   0.9374 B(  1-C ,  2-C ) :   1.0802 
B(  1-C ,  3-C ) :   0.0619 B(  1-C , 10-H ) :   0.9060 B(  1-C , 11-H ) :   0.9026 
B(  2-C ,  3-C ) :   1.0566 B(  2-C ,  4-O ) :   0.0947 B(  2-C ,  5-O ) :   0.0737 
B(  2-C , 12-H ) :   0.8962 B(  2-C , 13-H ) :   0.8819 B(  3-C ,  4-O ) :   2.2001 
B(  3-C ,  5-O ) :   1.4047 B(  3-C ,  6-C ) :   0.0773 B(  4-O ,  5-O ) :   0.2112 
B(  5-O ,  6-C ) :   1.1059 B(  6-C , 14-H ) :   0.9528 B(  6-C , 15-H ) :   0.9379 
B(  6-C , 16-H ) :   0.9499 

------------------------------------------
LOEWDIN REDUCED ORBITAL POPULATIONS PER MO
-------------------------------------------
THRESHOLD FOR PRINTING IS 0.1%%
                      0         1         2         3         4         5   
                 -18.80013 -18.73172 -10.00500  -9.94103  -9.89647  -9.89070
                   2.00000   2.00000   2.00000   2.00000   2.00000   2.00000
                  --------  --------  --------  --------  --------  --------
 1 C  s               0.0       0.0       0.0       0.0       0.0      99.6
 2 C  s               0.0       0.0       0.0       0.0      99.6       0.0
 3 C  s               0.0       0.0      99.3       0.0       0.0       0.0
 4 O  s               0.0      99.9       0.0       0.0       0.0       0.0
 4 O  pz              0.0       0.0       0.2       0.0       0.0       0.0
 4 O  py              0.0       0.0       0.1       0.0       0.0       0.0
 5 O  s              99.9       0.0       0.0       0.0       0.0       0.0
 6 C  s               0.0       0.0       0.0      99.7       0.0       0.0

                      6         7         8         9        10        11   
                  -9.87696  -1.00501  -0.90892  -0.72507  -0.67193  -0.62022
                   2.00000   2.00000   2.00000   2.00000   2.00000   2.00000
                  --------  --------  --------  --------  --------  --------
 0 C  s              99.7       0.0       0.0       9.1       9.2      18.4
 0 C  pz              0.0       0.0       0.0       0.6       0.1       0.1
 0 C  py              0.0       0.0       0.0       1.7       0.5       0.1
 1 C  s               0.0       0.1       0.1      20.3       7.3       0.3
 1 C  pz              0.0       0.0       0.0       0.2       0.4       3.8
 1 C  px              0.0       0.1       0.1       1.5       0.2       3.0
 1 C  py              0.1       0.0       0.0       0.4       0.8       3.9
 1 C  dx2y2           0.0       0.0       0.0       0.0       0.0       0.2
 2 C  s               0.0       1.0       0.3      21.7       0.3      15.0
 2 C  pz              0.0       0.5       0.4       1.0       0.2       0.3
 2 C  px              0.0       1.3       0.1       0.4       4.4       0.2
 2 C  py              0.0       0.0       0.1       0.1       0.0       0.5
 2 C  dxz             0.0       0.0       0.0       0.0       0.1       0.0
 3 C  s               0.0      18.4       5.3       2.8       4.2       0.4
 3 C  pz              0.0       0.2      11.7       4.1       3.2       1.2
 3 C  px              0.0       4.3       0.7       5.0       0.2       5.5
 3 C  py              0.0       0.9      11.7       0.6       1.9       0.9
 3 C  dz2             0.0       0.0       0.6       0.0       0.0       0.0
 3 C  dxz             0.0       0.0       0.2       0.0       0.0       0.2
 3 C  dyz             0.0       0.6       0.6       0.0       0.0       0.0
 3 C  dx2y2           0.0       0.0       0.1       0.1       0.0       0.1
 3 C  dxy             0.0       0.4       0.4       0.0       0.1       0.0
 4 O  s               0.0      10.8      42.0       1.5       0.7       0.1
 4 O  pz              0.0       1.6       2.9       0.1       0.2       0.0
 4 O  px              0.0       0.0       0.2       0.1       0.0       0.2
 4 O  py              0.0       1.1       1.4       0.0       0.1       0.1
 4 O  dyz             0.0       0.1       0.1       0.0       0.0       0.0
 5 O  s               0.0      42.1      15.1       0.1       0.2       1.0
 5 O  pz              0.0       1.6       0.1       0.3       0.7       0.0
 5 O  px              0.0       0.1       0.4       3.4      17.4       2.7
 5 O  py              0.0       1.5       0.1       0.3       3.1       0.7
 5 O  dxz             0.0       0.0       0.0       0.0       0.1       0.0
 6 C  s               0.0       4.8       2.2       2.4      20.6       9.3
 6 C  pz              0.0       1.0       0.6       0.0       0.1       0.0
 6 C  px              0.0       4.5       1.1       0.1       0.2       0.6
 6 C  py              0.0       0.2       0.0       0.0       0.1       0.1
 6 C  dxz             0.0       0.2       0.1       0.0       0.0       0.0
 6 C  dx2y2           0.0       0.2       0.1       0.0       0.0       0.0
 7 H  s               0.1       0.0       0.0       1.7       1.9       4.5
 8 H  s               0.1       0.0       0.0       1.5       2.0       5.2
 9 H  s               0.1       0.0       0.0       1.8       1.8       4.5
10 H  s               0.0       0.0       0.0       3.6       1.6       0.1
11 H  s               0.0       0.0       0.0       3.5       1.5       0.0
12 H  s               0.0       0.2       0.0       4.3       0.2       3.2
13 H  s               0.0       0.1       0.1       3.9       0.1       5.0
14 H  s               0.0       0.5       0.3       0.5       5.3       3.2
15 H  s               0.0       0.8       0.1       0.5       4.1       2.2
16 H  s               0.0       0.5       0.2       0.4       4.7       2.7

                     12        13        14        15        16        17   
                  -0.53971  -0.49960  -0.45101  -0.43850  -0.42004  -0.40335
                   2.00000   2.00000   2.00000   2.00000   2.00000   2.00000
                  --------  --------  --------  --------  --------  --------
 0 C  s               8.4       1.1       0.2       0.1       0.1       0.1
 0 C  pz              1.1       0.2       1.1       1.5       2.4       2.9
 0 C  px              0.1       0.1       1.1       1.7       0.5      10.6
 0 C  py              5.7       2.3       1.8       0.2       0.2       0.3
 0 C  dx2y2           0.1       0.0       0.0       0.0       0.0       0.0
 1 C  s              13.2       3.3       0.2       0.1       0.2       0.1
 1 C  pz              0.5       0.3       8.6       2.6       0.7       0.1
 1 C  px              1.2       1.5       1.5       1.6       2.5       8.9
 1 C  py              5.0       0.6       0.7       1.9       1.5       3.9
 2 C  s               0.8       2.3       1.6       0.4       0.3       0.0
 2 C  pz              0.3       1.6      18.7       0.3       0.8       4.4
 2 C  px              9.6       0.1       3.7       2.9       0.1       1.2
 2 C  py              0.3       0.2       0.0       8.2       7.8      10.7
 2 C  dxz             0.2       0.0       0.1       0.0       0.0       0.0
 2 C  dx2y2           0.0       0.1       0.2       0.0       0.0       0.0
 3 C  s               2.3       1.8       1.9       0.6       0.5       0.0
 3 C  pz              2.0       0.3       0.1       6.5       1.1       0.6
 3 C  px              1.4       2.9      12.5       0.4       0.0       0.1
 3 C  py              0.0       2.9       0.7       8.4       0.6       0.3
 3 C  dz2             0.0       0.0       0.0       0.0       0.1       0.0
 3 C  dyz             0.0       0.0       0.0       0.0       0.4       0.0
 3 C  dx2y2           0.0       0.0       0.0       0.0       0.2       0.2
 4 O  s               0.5       1.1       0.8       0.5       7.1       0.3
 4 O  pz              0.3       0.2       0.3       4.2       5.6       0.0
 4 O  px              0.1       0.8       7.0       0.0       0.0       0.0
 4 O  py              0.0       1.1       0.4       1.7       4.5       0.9
 5 O  s               2.0       3.7       0.4       0.0       1.3       0.2
 5 O  pz              0.1       2.1       0.3      10.0      17.3       0.1
 5 O  px              1.5      13.8       0.4       3.1       4.4       3.0
 5 O  py              0.5       9.6       7.5       8.4       1.7       3.4
 6 C  s               4.5       4.0       0.0       0.0       0.2       0.0
 6 C  pz              1.4      10.4       0.5       8.9       4.1       5.1
 6 C  px              3.6       7.6       0.0       4.2      10.7       0.7
 6 C  py              0.0       0.9       7.5       5.0       4.2      13.4
 6 C  dxz             0.2       0.4       0.0       0.0       0.2       0.0
 6 C  dyz             0.0       0.0       0.0       0.1       0.0       0.1
 6 C  dx2y2           0.1       0.3       0.0       0.0       0.0       0.0
 7 H  s               4.1       1.0       1.5       0.3       0.1       0.1
 8 H  s               3.3       0.4       0.2       1.2       0.1       6.4
 9 H  s               4.4       0.8       0.4       0.0       1.3       0.4
10 H  s               6.9       1.9       1.3       0.1       1.5       2.1
11 H  s               5.7       1.9       2.8       1.8       0.3       0.8
12 H  s               0.8       1.5       5.3       3.2       2.5       0.4
13 H  s               0.1       2.1       4.3       0.8       2.5       6.5
14 H  s               2.2       0.9       0.8       2.8       9.0       0.4
15 H  s               2.5       7.2       2.4       0.7       0.6       2.5
16 H  s               2.5       4.1       0.8       5.2       0.0       8.2

                     18        19        20        21        22        23   
                  -0.38947  -0.36183  -0.35554  -0.34351  -0.31055  -0.29867
                   2.00000   2.00000   2.00000   2.00000   2.00000   2.00000
                  --------  --------  --------  --------  --------  --------
 0 C  s               0.0       0.0       0.0       0.1       0.2       0.2
 0 C  pz             10.9       1.9      12.4       0.2       4.9       6.3
 0 C  px              3.7       8.2       2.6       9.6       7.6       7.9
 0 C  py              1.0       4.2       9.6       6.2       3.9       5.5
 0 C  dxz             0.0       0.1       0.0       0.1       0.3       0.3
 0 C  dyz             0.0       0.0       0.2       0.1       0.0       0.0
 0 C  dx2y2           0.0       0.0       0.1       0.1       0.1       0.2
 1 C  s               0.0       0.0       0.0       0.3       0.1       0.0
 1 C  pz              6.7       1.7       3.4       2.4       2.8       3.9
 1 C  px              4.1       2.7       1.1       0.3       6.2      10.0
 1 C  py              3.0       4.0       0.3       3.7       4.9       5.7
 1 C  dz2             0.1       0.0       0.1       0.0       0.0       0.0
 1 C  dxz             0.0       0.0       0.0       0.0       0.3       0.3
 1 C  dyz             0.0       0.0       0.0       0.0       0.0       0.1
 1 C  dx2y2           0.0       0.0       0.0       0.1       0.1       0.2
 1 C  dxy             0.0       0.0       0.0       0.0       0.2       0.0
 2 C  s               0.3       0.0       0.3       0.1       0.6       0.5
 2 C  pz              0.4       0.6       8.3       1.4       0.9       6.4
 2 C  px              0.1       9.5       0.3       0.1       0.3       8.2
 2 C  py              0.2       4.9       7.4       0.8       1.8       7.1
 2 C  dxz             0.1       0.1       0.0       0.1       0.0       0.1
 2 C  dyz             0.0       0.1       0.1       0.0       0.2       0.3
 2 C  dx2y2           0.1       0.0       0.2       0.0       0.0       0.2
 3 C  s               3.1       0.2       0.1       0.0       0.0       0.1
 3 C  pz              1.6       3.2       3.4       3.9       0.7       0.3
 3 C  px              0.1       4.9       0.3       5.8       0.8       0.7
 3 C  py              1.8       0.9       1.4       7.7       1.8       0.8
 3 C  dz2             0.0       0.0       0.2       0.1       0.1       0.2
 3 C  dyz             0.0       0.0       0.0       0.0       0.2       0.1
 3 C  dx2y2           0.0       0.0       0.0       0.0       0.2       0.0
 3 C  dxy             0.0       0.0       0.1       0.1       0.1       0.1
 4 O  s               8.2       0.6       1.4       0.2       0.7       0.0
 4 O  pz             19.5       0.4       1.1      10.3       4.5       2.4
 4 O  px              1.2       0.3       0.0       4.3       2.0       0.9
 4 O  py              7.1       4.7       9.8       4.1       0.6       2.0
 4 O  dz2             0.1       0.0       0.0       0.1       0.0       0.0
 4 O  dyz             0.2       0.0       0.1       0.0       0.0       0.0
 5 O  s               0.2       0.0       0.5       0.0       1.2       0.0
 5 O  pz              0.4       0.0       1.2       1.3       9.8       1.9
 5 O  px              0.5       2.6       0.3       0.8       0.2       0.3
 5 O  py              0.0       0.3       0.0       2.0       4.8       1.8
 5 O  dxz             0.0       0.1       0.0       0.0       0.0       0.0
 6 C  pz              1.4       5.3       3.3       2.0       3.5       0.6
 6 C  px              0.0       6.5       0.2       1.2       0.0       0.1
 6 C  py              2.9       6.0       0.0       9.6       3.5       1.0
 6 C  dxz             0.0       0.3       0.0       0.0       0.1       0.0
 6 C  dyz             0.0       0.0       0.0       0.3       0.0       0.1
 6 C  dx2y2           0.0       0.0       0.0       0.0       0.1       0.0
 6 C  dxy             0.0       0.1       0.0       0.0       0.2       0.0
 7 H  s               3.4       0.3      11.5       1.1       0.0       0.1
 8 H  s               0.0       1.0       4.6       4.9       1.1      10.3
 9 H  s               5.0       6.1       0.1       1.5       9.2       0.6
10 H  s               3.9       0.1       0.1       0.9       8.4       1.0
11 H  s               3.9       0.1       0.2       0.0       0.1       0.1
12 H  s               0.2       0.9      10.2       0.9       1.7       0.4
13 H  s               0.8       3.3       0.2       0.1       1.3       8.7
14 H  s               0.8       9.7       1.5       0.5       3.1       0.2
15 H  s               2.4       3.5       0.4       3.5       4.2       0.3
16 H  s               0.0       0.1       1.1       6.7       0.1       1.3

                     24        25        26        27        28        29   
                  -0.29733  -0.29272  -0.25722  -0.21894  -0.02034   0.04113
                   2.00000   2.00000   2.00000   2.00000   0.00000   0.00000
                  --------  --------  --------  --------  --------  --------
 0 C  s               0.1       0.1       0.0       0.0       0.3       8.8
 0 C  pz              6.1       3.0       0.0       0.0       0.2       0.3
 0 C  px              0.0       2.4       0.0       0.0       0.2       0.0
 0 C  py              9.0       1.8       0.0       0.1       0.1       1.8
 0 C  dxz             0.0       0.1       0.0       0.0       0.0       0.0
 0 C  dyz             0.6       0.0       0.0       0.0       0.0       0.0
 0 C  dx2y2           0.2       0.1       0.0       0.0       0.0       0.1
 1 C  s               0.1       0.0       0.0       0.1       1.7       3.3
 1 C  pz             12.8       3.4       0.0       0.0       1.0       0.0
 1 C  px              0.1       5.8       0.0       0.1       0.8       1.7
 1 C  py             12.6       1.2       0.1       0.2       0.0       0.8
 1 C  dxz             0.0       0.3       0.0       0.0       0.0       0.1
 1 C  dyz             0.9       0.0       0.0       0.0       0.0       0.1
 1 C  dx2y2           0.3       0.2       0.0       0.0       0.1       0.0
 1 C  dxy             0.0       0.1       0.0       0.0       0.0       0.0
 2 C  s               0.1       0.0       0.0       0.6       0.1       4.0
 2 C  pz              3.2       0.8       0.2       3.2       0.2       1.5
 2 C  px              2.6       4.4       0.0       3.4       0.3       0.2
 2 C  py              2.9       1.9       0.1       0.1       0.2       0.0
 2 C  dz2             0.1       0.0       0.0       0.0       0.2       0.0
 2 C  dxz             0.0       0.1       0.0       0.0       0.4       0.0
 2 C  dyz             0.3       0.0       0.0       0.0       0.5       0.0
 2 C  dx2y2           0.1       0.2       0.0       0.0       0.7       0.0
 2 C  dxy             0.1       0.0       0.0       0.0       0.4       0.1
 3 C  s               0.0       1.1       0.0       0.4       0.0       1.7
 3 C  pz              0.1       3.8       0.3       0.4      16.1       1.0
 3 C  px              0.2       0.7       0.1       0.7       7.3       1.0
 3 C  py              0.0       0.8       0.3       0.4      21.8       1.7
 3 C  dz2             0.0       0.1       1.1       0.4       0.7       0.0
 3 C  dxz             0.0       0.1       0.6       2.1       0.0       0.2
 3 C  dyz             0.0       0.3       0.0       0.3       0.1       0.5
 3 C  dx2y2           0.0       0.2       0.8       0.5       0.0       0.0
 3 C  dxy             0.0       0.0       0.1       1.3       0.4       0.0
 4 O  s               0.0       0.9       0.0       0.0       0.0       0.9
 4 O  pz              0.0       3.3      12.9       2.2       8.4       0.5
 4 O  px              0.1       0.1       9.4      56.6       4.4       0.2
 4 O  py              0.4       4.2      15.6      14.1      11.9       0.1
 4 O  dz2             0.0       0.0       0.0       0.0       0.3       0.0
 5 O  s               0.4       3.7       0.0       0.3       0.0       0.9
 5 O  pz              0.6      15.0      15.4       4.5       3.9       0.1
 5 O  px              0.4       3.1       7.2       1.0       1.8       0.3
 5 O  py              0.2       7.7      23.1       2.8       4.9       0.2
 5 O  dxz             0.0       0.0       0.0       0.0       0.2       0.0
 5 O  dx2y2           0.0       0.0       0.0       0.0       0.3       0.0
 6 C  s               0.0       0.2       0.0       0.2       0.1       4.8
 6 C  pz              0.2       3.7       1.6       0.1       0.1       1.1
 6 C  px              0.1       1.7       0.6       0.9       0.0       2.5
 6 C  py              0.1       1.7       1.4       0.2       0.1       0.3
 6 C  dz2             0.0       0.0       0.2       0.0       0.1       0.0
 6 C  dxz             0.0       0.0       0.1       0.0       0.0       0.2
 6 C  dyz             0.0       0.0       0.5       0.0       0.2       0.0
 6 C  dx2y2           0.0       0.1       0.1       0.0       0.0       0.1
 6 C  dxy             0.0       0.2       0.1       0.0       0.1       0.0
 7 H  s              12.4       0.2       0.0       0.0       0.1       7.7
 8 H  s               1.3       0.2       0.0       0.0       0.2       6.3
 9 H  s               1.7       4.4       0.0       0.0       0.2       7.7
10 H  s               1.8       8.4       0.0       0.3       1.1       5.7
11 H  s              20.3       0.2       0.1       0.3       0.0       3.6
12 H  s               6.5       0.1       0.0       1.2       0.1       7.6
13 H  s               0.5       2.4       0.0       0.1       5.5       4.3
14 H  s               0.1       1.0       1.2       0.1       0.2       4.8
15 H  s               0.3       3.8       1.5       0.4       0.2       2.9
16 H  s               0.0       0.1       5.1       0.0       1.6       7.8

                     30        31        32        33        34        35   
                   0.05955   0.07977   0.08289   0.08654   0.10380   0.11511
                   0.00000   0.00000   0.00000   0.00000   0.00000   0.00000
                  --------  --------  --------  --------  --------  --------
 0 C  s               0.6       4.5       8.3       0.1       0.7       0.0
 0 C  pz              0.2       1.0       3.7       1.1       0.6       1.2
 0 C  px              1.6       0.3       0.1       2.1       2.1       0.7
 0 C  py              0.5       2.2       0.0       1.3       0.0       0.6
 0 C  dxz             0.1       0.1       0.0       0.1       0.0       0.0
 0 C  dyz             0.1       0.1       0.1       0.0       0.0       0.3
 0 C  dx2y2           0.0       0.1       0.0       0.1       0.0       0.1
 1 C  s               3.0       0.0       0.0       4.1       0.2       0.9
 1 C  pz              0.2       1.9       1.5       0.0       0.0       1.5
 1 C  px              2.0       0.3       0.9       0.6       0.1       1.1
 1 C  py              0.3       0.3       1.1       1.6       0.2       0.1
 1 C  dz2             0.0       0.0       0.0       0.0       0.0       0.3
 1 C  dxz             0.2       0.0       0.3       0.0       0.0       0.0
 1 C  dyz             0.0       0.1       0.5       0.2       0.0       0.1
 1 C  dx2y2           0.0       0.5       0.0       0.0       0.0       0.0
 1 C  dxy             0.1       0.2       0.0       0.3       0.0       0.0
 2 C  s               2.2       3.3       3.3       1.5       1.6       1.7
 2 C  pz              1.6       0.1       3.6       0.3       0.6       4.0
 2 C  px              0.0       0.3       0.3       0.4       0.1       1.4
 2 C  py              0.2       6.7       0.2       3.7       0.3       0.7
 2 C  dz2             0.0       0.1       0.1       0.0       0.0       0.1
 2 C  dxz             0.0       0.0       0.0       0.0       0.0       0.2
 2 C  dyz             0.0       0.4       0.2       0.1       0.0       0.0
 2 C  dx2y2           0.1       0.1       0.1       0.1       0.0       0.2
 2 C  dxy             0.0       0.0       0.1       0.1       0.0       0.0
 3 C  s               0.1       1.0       0.5       0.2       0.5       1.1
 3 C  pz              0.2       0.5       0.3       0.0       0.0       0.1
 3 C  px              0.1       1.2       0.2       0.2       0.1       0.2
 3 C  py              0.1       0.5       0.3       0.5       0.5       0.8
 3 C  dz2             0.0       0.2       0.1       0.0       0.0       0.1
 3 C  dxz             0.0       0.1       0.0       0.1       0.1       0.2
 3 C  dyz             0.0       0.0       0.0       0.0       0.2       0.0
 3 C  dx2y2           0.0       0.3       0.1       0.2       0.0       0.0
 3 C  dxy             0.0       0.8       0.2       0.0       0.0       0.0
 4 O  s               0.1       0.1       0.0       0.0       0.1       0.1
 4 O  pz              0.2       0.0       0.1       0.0       0.3       0.1
 4 O  px              0.4       0.7       0.1       0.0       0.0       0.8
 4 O  py              0.3       0.0       0.0       0.3       0.1       0.1
 5 O  s               0.2       5.3       0.4       4.9       0.2       1.6
 5 O  pz              0.1       1.3       0.5       1.5       1.3       0.8
 5 O  px              0.3       1.6       0.2       3.5       0.8       0.8
 5 O  py              0.0       0.3       0.2       0.1       0.1       0.2
 5 O  dz2             0.0       0.1       0.1       0.0       0.2       0.1
 5 O  dxz             0.1       0.1       0.0       0.2       0.2       0.0
 5 O  dx2y2           0.0       0.1       0.0       0.2       0.0       0.0
 5 O  dxy             0.0       0.1       0.0       0.0       0.0       0.3
 6 C  s              14.8       1.0       3.2       6.2       0.3       0.1
 6 C  pz              0.8       4.0       2.6       3.5      10.7       3.7
 6 C  px              2.0      11.5       1.6      12.5      10.7       6.5
 6 C  py              1.2       0.0       0.1       1.1       1.7       8.9
 6 C  dz2             0.0       0.1       0.0       0.1       0.2       0.0
 6 C  dxz             0.1       0.9       0.0       1.7       1.2       0.1
 6 C  dyz             0.0       0.0       0.0       0.0       0.2       0.3
 6 C  dx2y2           0.0       1.2       0.2       0.9       0.0       1.5
 6 C  dxy             0.0       0.1       0.1       0.0       0.1       0.2
 7 H  s               2.4      15.0       0.2       6.0       0.1       2.8
 8 H  s               3.1       1.1       9.6       4.0       7.3       0.1
 9 H  s               1.9       0.8      15.4       1.4       0.2       3.3
10 H  s               9.6       0.4       4.7       5.7       0.2       7.9
11 H  s               1.5       3.2       4.7       8.8       0.8       0.5
12 H  s               2.5       3.0      11.3      11.9       1.6       3.1
13 H  s               5.1      19.7       4.2       0.6       3.6       8.8
14 H  s              13.6       0.0      12.7       0.8      32.6       0.9
15 H  s               5.8       0.6       1.3       4.5       8.0      25.6
16 H  s              20.3       0.1       0.4       0.3       9.1       2.8

                     36        37        38        39        40        41   
                   0.11783   0.11921   0.13599   0.14156   0.19040   0.19584
                   0.00000   0.00000   0.00000   0.00000   0.00000   0.00000
                  --------  --------  --------  --------  --------  --------
 0 C  s               2.8       1.9       1.4       0.3       0.9       0.8
 0 C  pz              0.1       0.2       6.6       8.0       5.5       1.2
 0 C  px              8.2       0.5       6.0       5.2       0.8       0.6
 0 C  py              1.3       0.1       0.7       2.6       8.2      10.7
 0 C  dz2             0.4       0.1       0.0       0.3       0.0       0.1
 0 C  dxz             0.7       0.0       0.2       0.4       0.0       0.1
 0 C  dyz             0.1       0.1       0.0       0.3       1.8       1.6
 0 C  dx2y2           0.2       0.0       1.0       0.1       1.6       1.0
 0 C  dxy             0.0       0.1       0.1       0.2       0.9       0.1
 1 C  s              10.1       1.8       0.3       1.2       7.1       0.1
 1 C  pz              2.6       2.3       1.8       3.5       1.4       4.4
 1 C  px              0.0       4.9       0.6       4.3      10.3       4.4
 1 C  py              1.5       0.3       1.1       0.7      13.2       7.7
 1 C  dz2             0.0       0.0       0.5       0.2       0.8       0.3
 1 C  dxz             0.1       0.1       0.0       0.5       3.2       0.5
 1 C  dyz             0.0       0.2       0.1       0.0       1.6       0.8
 1 C  dx2y2           0.2       0.0       0.5       0.0       0.0       2.5
 1 C  dxy             0.8       0.0       0.0       0.2       0.0       0.0
 2 C  s               0.3       0.8       0.8       0.3       3.2       3.1
 2 C  pz              0.0       0.5       0.9       0.5       7.7      11.5
 2 C  px              1.1       0.1       0.1       1.4       5.3       0.2
 2 C  py              2.2       0.4      10.0       0.5       1.8       0.1
 2 C  dz2             0.0       0.1       0.0       0.6       0.4       0.0
 2 C  dxz             0.6       0.1       0.0       0.5       0.9       0.3
 2 C  dyz             0.4       0.0       0.5       0.0       0.2       0.0
 2 C  dx2y2           0.0       0.0       0.1       0.0       1.6       3.0
 2 C  dxy             0.0       0.0       0.0       0.0       0.6       0.1
 3 C  s               0.2       0.3       0.1       1.2       0.2      13.6
 3 C  pz              1.2       0.3       0.4       1.0       1.1       0.9
 3 C  px              0.3       0.2       0.1       0.3       0.7       0.8
 3 C  py              0.2       0.6       0.0       0.1       2.2       1.1
 3 C  dz2             0.1       0.0       0.0       0.0       0.1       0.2
 3 C  dxz             0.0       0.1       0.0       0.1       0.0       0.4
 3 C  dyz             0.1       0.1       0.0       0.2       0.2       2.2
 3 C  dx2y2           0.0       0.0       0.0       0.0       0.0       0.4
 3 C  dxy             0.1       0.0       0.4       0.0       0.0       1.2
 4 O  s               0.5       0.3       0.0       0.2       0.1       0.4
 4 O  pz              0.0       0.0       0.0       0.0       0.4       0.2
 4 O  px              1.3       0.1       0.1       0.0       0.9       0.2
 4 O  py              0.0       0.0       0.1       0.4       0.4       0.8
 5 O  s               0.1       0.2       0.1       0.0       0.0       0.3
 5 O  pz              0.1       0.0       0.1       0.0       0.1       0.0
 5 O  px              0.0       1.7       0.0       0.2       0.1       5.0
 5 O  py              0.0       0.4       0.5       0.0       0.1       1.9
 5 O  dxz             0.0       0.0       0.0       0.0       0.0       0.2
 5 O  dxy             0.0       0.1       0.0       0.0       0.0       0.1
 6 C  s               0.3       0.2       0.0       0.1       0.0       0.0
 6 C  pz              0.4       4.1       1.0       1.4       0.1       1.5
 6 C  px              0.2       1.0       0.0       0.1       0.1       2.3
 6 C  py              0.0      11.1       0.6       1.9       0.1       0.2
 6 C  dxz             0.0       0.4       0.0       0.0       0.0       0.5
 6 C  dyz             0.0       0.6       0.0       0.2       0.0       0.0
 6 C  dx2y2           0.0       0.1       0.1       0.1       0.0       0.5
 7 H  s               0.9       2.5      13.4      13.2       0.3       1.2
 8 H  s              21.5       0.1      14.2       0.0       0.0       1.8
 9 H  s               3.6       1.8       2.3      21.3       2.6       0.2
10 H  s               1.6      20.8       2.5       7.8       1.8       0.3
11 H  s              25.2       0.8       0.9      11.6       5.4       0.8
12 H  s               1.5       0.6      19.3       0.5       2.4       1.2
13 H  s               5.5       3.6       6.6       0.3       1.4       2.0
14 H  s               0.1       1.3       1.4       0.0       0.0       0.5
15 H  s               0.2      11.8       2.2       0.6       0.0       1.4
16 H  s               1.1      19.7       0.1       5.1       0.2       0.1

                     42        43        44        45        46        47   
                   0.21724   0.26405   0.30353   0.38160   0.39258   0.39646
                   0.00000   0.00000   0.00000   0.00000   0.00000   0.00000
                  --------  --------  --------  --------  --------  --------
 0 C  s               0.3       0.1       0.0       1.0       1.0       1.0
 0 C  pz              0.7       2.2       0.1       4.0       2.5       0.7
 0 C  px              0.5       1.4       1.3      11.2       0.2       0.9
 0 C  py              6.4       0.7       2.1       1.3       2.6      22.9
 0 C  dz2             0.4       0.1       0.1       0.2       0.0       0.2
 0 C  dxz             0.0       0.3       0.0       2.9       0.2       0.5
 0 C  dyz             0.3       0.0       0.5       0.1       0.1       4.2
 0 C  dx2y2           0.8       0.0       0.0       0.9       1.0       0.1
 0 C  dxy             0.2       0.0       0.1       0.0       0.0       0.1
 1 C  s               0.1       0.0       0.4       0.2       0.3       0.1
 1 C  pz              7.1       1.4       0.1       0.1       0.4       8.4
 1 C  px              5.7       0.2       4.0       0.1       0.0       0.7
 1 C  py              4.4       0.2       0.5       0.8       3.9       7.1
 1 C  dz2             0.6       0.2       0.0       0.0       0.1       0.3
 1 C  dxz             1.1       0.0       0.9       0.5       0.0       0.2
 1 C  dyz             0.4       0.0       0.1       0.8       0.9       0.0
 1 C  dx2y2           1.2       1.1       0.1       0.1       0.1       3.5
 1 C  dxy             0.0       0.0       0.0       0.7       0.0       0.0
 2 C  s               0.1       3.2       0.0       2.1       0.2       0.9
 2 C  pz              0.8       6.1       0.5       2.0       0.0       8.9
 2 C  px             24.0       6.4       0.3       0.3       0.1       5.6
 2 C  py              0.1       0.3       1.9       3.3       0.6       0.1
 2 C  dz2             0.2       0.0       1.1       0.0       0.0       0.2
 2 C  dxz             6.6       1.3       0.0       0.1       0.0       0.5
 2 C  dyz             0.0       0.0       1.9       1.4       0.5       0.5
 2 C  dx2y2           0.1       1.8       0.2       0.4       0.0       0.4
 2 C  dxy             0.2       0.0       0.5       0.2       0.1       0.0
 3 C  s              12.5      13.8       4.0       4.1       5.8       0.1
 3 C  pz              1.7       4.1       9.9       2.8       6.9       0.2
 3 C  px              2.8      15.6       4.6       2.0       1.9       1.1
 3 C  py              1.9       0.9      15.1      12.0       0.3       0.3
 3 C  dz2             0.5       0.1       1.0       0.0       0.0       0.2
 3 C  dxz             1.3       0.0       0.6       0.5       0.0       0.0
 3 C  dyz             1.8       4.5       0.2       0.2       0.1       0.1
 3 C  dx2y2           0.0       0.2       0.2       0.2       0.1       0.0
 3 C  dxy             0.1       0.8       2.1       0.0       0.0       0.1
 4 O  s               1.0       3.8       5.0       0.0       0.5       0.1
 4 O  pz              2.3       0.7       0.3       0.3       0.0       0.8
 4 O  px              0.6       2.2       2.1       0.2       0.0       0.1
 4 O  py              0.1       1.9       0.1       0.2       0.8       0.1
 4 O  dz2             0.2       0.0       0.0       0.0       0.0       0.0
 4 O  dxz             0.1       0.3       0.2       0.0       0.0       0.0
 4 O  dyz             0.0       0.1       0.0       0.2       0.0       0.0
 4 O  dx2y2           0.0       0.2       0.0       0.1       0.0       0.0
 4 O  dxy             0.1       0.1       0.1       0.0       0.0       0.0
 5 O  s               0.1       2.2       3.8       0.3       0.1       0.1
 5 O  pz              0.1       0.7       0.2       0.4       2.8       0.2
 5 O  px              0.1       2.3       5.5       1.0       1.1       0.1
 5 O  py              0.6       2.3       1.0       1.8       0.5       0.0
 5 O  dz2             0.0       0.0       0.3       0.0       0.0       0.0
 5 O  dxz             0.1       0.5       0.1       0.6       0.0       0.1
 5 O  dyz             0.0       0.3       0.0       0.2       0.1       0.0
 5 O  dx2y2           0.0       0.5       0.0       0.0       0.0       0.1
 5 O  dxy             0.0       0.0       0.6       0.3       0.8       0.1
 6 C  s               0.1       1.2       0.1       1.0       0.0       0.8
 6 C  pz              0.3       1.2       0.0       7.5      10.6       5.6
 6 C  px              0.3       3.8       4.0       1.3       2.9       2.3
 6 C  py              0.3       0.1       0.5       0.0      18.1       0.5
 6 C  dz2             0.0       0.0       0.0       0.0       0.1       0.0
 6 C  dxz             0.0       0.0       1.2       0.3       0.0       0.0
 6 C  dyz             0.0       0.0       0.0       0.3       6.7       0.3
 6 C  dx2y2           0.0       0.0       0.0       0.6       0.0       0.2
 6 C  dxy             0.0       0.1       0.3       0.5       0.1       0.0
 7 H  s               2.7       0.1       1.4       1.0       0.1      10.6
 8 H  s               1.0       0.8       0.5      10.1       0.3       1.4
 9 H  s               1.1       2.0       0.2       1.5       1.6       0.4
10 H  s               0.6       1.5       2.7       1.1       0.0       0.9
11 H  s               1.1       1.0       0.8       1.1       1.7       0.9
12 H  s               1.1       0.3       8.5       1.3       1.4       2.4
13 H  s               0.1       2.2       2.6       4.5       0.5       0.2
14 H  s               0.1       0.1       2.9       2.5       1.4       0.1
15 H  s               1.0       0.4       0.2       1.0       5.5       0.0
16 H  s               0.0       0.1       0.1       1.9      12.0       1.3

                     48        49        50        51        52        53   
                   0.40894   0.41716   0.44017   0.46252   0.52462   0.53870
                   0.00000   0.00000   0.00000   0.00000   0.00000   0.00000
                  --------  --------  --------  --------  --------  --------
 0 C  s               0.6       0.1       0.9       0.0       0.8       0.3
 0 C  pz             14.4       4.4       0.3       1.3       7.3       2.3
 0 C  px              6.0       5.7       0.2       0.4       0.5       1.7
 0 C  py              2.6       2.9       0.8       0.3       0.5       5.7
 0 C  dz2             0.1       0.0       0.0       0.1       1.0       1.1
 0 C  dxz             1.4       1.8       0.2       0.0       0.2       1.3
[...]
 0 C  dz2             0.2       0.1       0.0       0.0       0.0       0.0
 0 C  dyz             5.1       0.6       0.0       0.0       0.0       0.0
 0 C  dx2y2           4.9       0.8       0.0       0.0       0.0       0.0
 0 C  dxy             0.7       0.0       0.0       0.0       0.0       0.0
 1 C  pz              1.3       0.3       0.0       0.0       0.0       0.0
 1 C  px              0.9       0.3       0.0       0.1       0.0       0.0
 1 C  py              1.0       0.2       0.0       0.0       0.0       0.0
 1 C  dz2             0.2       0.0       0.0       0.0       0.1       0.0
 1 C  dxz             5.1       0.8       0.1       0.4       0.2       0.0
 1 C  dyz             3.2       0.5       0.0       0.0       0.0       0.0
 1 C  dx2y2          16.5       3.6       0.1       0.1       0.1       0.0
 2 C  s               0.3       0.0       0.0       0.1       0.0       0.3
 2 C  pz              0.3       0.1       0.0       0.0       0.1       0.0
 2 C  px              1.5       0.9       0.0       0.1       0.0       0.2
 2 C  py              0.2       0.1       0.0       0.0       0.0       0.0
 2 C  dz2             0.0       0.1       0.1       0.7       1.2       0.3
 2 C  dxz            10.0       4.9       0.2       1.8       0.2       0.3
 2 C  dyz             0.0       0.5       0.1       1.0       0.0       0.2
 2 C  dx2y2           2.4       0.0       0.2       0.2       0.2       0.6
 2 C  dxy             1.1       0.4       0.1       0.9       0.1       0.3
 3 C  s               0.6       0.2       0.0       0.2       0.1       1.0
 3 C  pz              0.0       0.2       0.0       0.2       0.3       0.7
 3 C  px              0.3       0.4       0.0       0.4       0.1       1.1
 3 C  py              0.0       0.1       0.0       0.1       0.7       1.4
 3 C  dz2             0.0       0.0       0.0       2.7       1.5       0.1
 3 C  dxz             0.1       1.2       0.3       0.2       2.9       4.4
 3 C  dyz             0.0       1.3       0.1       1.9       0.8       0.8
 3 C  dx2y2           0.1       0.7       0.6       1.3       7.1       0.4
 3 C  dxy             0.2       0.6       0.2       6.6       1.3       0.2
 4 O  s               0.0       0.0       0.0       1.3       0.1       0.4
 4 O  pz              0.0       0.0       0.0       0.3       0.2       0.3
 4 O  px              0.0       0.0       0.0       0.3       0.0       0.5
 4 O  py              0.0       0.0       0.0       0.1       0.1       0.0
 4 O  dz2             0.1       7.1       4.7       0.2       6.0       1.3
 4 O  dxz             9.1       8.6       0.2      15.2       2.5      14.8
 4 O  dyz             0.1       7.2       1.1       0.5       0.7       0.0
 4 O  dx2y2           2.1      15.7       0.1       0.6      13.6       1.4
 4 O  dxy            22.3      30.6       3.2       0.0       0.1       9.0
 5 O  s               0.0       0.2       0.0       0.5       0.0       7.3
 5 O  pz              0.1       0.2       0.3       1.3       0.0       0.5
 5 O  px              0.0       0.0       0.1       1.1       0.5       0.1
 5 O  py              0.0       0.4       0.4       0.1       0.4       0.4
 5 O  dz2             3.0       0.8      39.8       9.9       5.8       4.5
 5 O  dxz             0.6       0.8       1.4       8.0      23.8       2.1
 5 O  dyz             0.4       7.4       9.2      30.9       0.2       8.2
 5 O  dx2y2           1.0       0.0       1.8       3.0      26.8       9.2
 5 O  dxy             0.8       0.0      23.6       0.5       0.9      22.8
 6 C  s               0.0       0.1       0.0       0.7       0.1       0.5
 6 C  pz              0.0       0.0       0.2       0.1       0.0       0.3
 6 C  px              0.0       0.1       0.1       0.6       0.1       0.6
 6 C  py              0.0       0.0       0.2       0.1       0.0       0.0
 6 C  dz2             0.0       0.1       2.3       0.9       0.9       0.0
 6 C  dxz             0.2       0.2       1.4       0.1       0.1       2.2
 6 C  dyz             0.1       0.0       1.8       0.1       0.1       0.1
 6 C  dx2y2           0.2       0.2       2.4       1.7       0.0       0.7
 6 C  dxy             0.1       0.6       3.2       2.5       0.0       0.0
 8 H  s               0.2       0.0       0.0       0.0       0.0       0.0
13 H  s               0.2       0.0       0.0       0.0       0.0       0.0

                    114       115       116       117   
                   3.11429   3.31327   3.48337   3.55459
                   0.00000   0.00000   0.00000   0.00000
                  --------  --------  --------  --------
 1 C  dxz             0.1       0.0       0.0       0.0
 2 C  s               0.0       0.2       0.1       0.0
 2 C  px              0.0       0.1       0.3       0.1
 2 C  dz2             0.0       0.1       0.3       0.1
 2 C  dxz             0.3       0.5       0.4       0.3
 2 C  dyz             0.0       0.0       0.2       0.0
 2 C  dx2y2           0.6       0.0       0.8       0.0
 2 C  dxy             0.1       0.2       0.2       0.1
 3 C  s               0.0       3.7       0.1       6.2
 3 C  pz              0.1       0.3       1.3       2.8
 3 C  px              0.0       1.3       0.5       0.3
 3 C  py              0.3       0.1       2.0       1.4
 3 C  dz2            12.8       0.8       2.1       1.2
 3 C  dxz             1.7       1.6       9.4       0.8
 3 C  dyz             0.2       1.0       0.6       7.8
 3 C  dx2y2           4.7       3.0       1.0       3.0
 3 C  dxy             1.1       0.5       7.7       0.1
 4 O  s               0.0       1.7       0.9       4.2
 4 O  pz              0.4       0.3       0.3       2.2
 4 O  px              0.1       0.1       0.4       0.4
 4 O  py              0.5       0.4       0.6       0.9
 4 O  dz2            43.1       0.5       0.3      11.8
 4 O  dxz             1.6       1.4       7.7       8.7
 4 O  dyz             2.6      12.3      11.4      26.5
 4 O  dx2y2           6.2       3.1       7.1       1.7
 4 O  dxy             6.9       1.3       2.5       4.8
 5 O  s               0.0       0.1       0.9       0.4
 5 O  px              0.0       1.9       2.4       0.1
 5 O  py              0.0       0.7       0.9       0.1
 5 O  dz2             0.0       0.8       5.5       3.1
 5 O  dxz             4.2      23.3       9.6       0.4
 5 O  dyz             1.1      10.3       1.3       1.0
 5 O  dx2y2           6.3      19.1       0.1       4.3
 5 O  dxy             3.7       0.8      19.2       4.2
 6 C  s               0.0       1.1       0.2       0.0
 6 C  pz              0.0       0.5       0.0       0.1
 6 C  px              0.0       1.3       0.3       0.1
 6 C  dz2             0.3       0.0       0.2       0.0
 6 C  dxz             0.0       3.2       0.0       0.5
 6 C  dyz             0.2       0.0       0.2       0.0
 6 C  dx2y2           0.0       2.1       0.3       0.1
 6 C  dxy             0.2       0.0       0.3       0.1


                      *****************************
                      * MAYER POPULATION ANALYSIS *
                      *****************************

  NA   - Mulliken gross atomic population
  ZA   - Total nuclear charge
  QA   - Mulliken gross atomic charge
  VA   - Mayer's total valence
  BVA  - Mayer's bonded valence
  FA   - Mayer's free valence

  ATOM       NA         ZA         QA         VA         BVA        FA
  0 C      6.2895     6.0000    -0.2895     4.0132     4.0132    -0.0000
  1 C      6.1978     6.0000    -0.1978     4.1676     4.1676    -0.0000
  2 C      6.1285     6.0000    -0.1285     3.9304     3.9304    -0.0000
  3 C      5.9146     6.0000     0.0854     4.4116     4.4116    -0.0000
  4 O      8.2095     8.0000    -0.2095     2.2863     2.2863     0.0000
  5 O      8.2372     8.0000    -0.2372     2.2740     2.2740    -0.0000
  6 C      6.1232     6.0000    -0.1232     3.8605     3.8605    -0.0000
  7 H      0.9011     1.0000     0.0989     0.9555     0.9555    -0.0000
  8 H      0.8922     1.0000     0.1078     0.9506     0.9506     0.0000
  9 H      0.8845     1.0000     0.1155     0.9580     0.9580    -0.0000
 10 H      0.9089     1.0000     0.0911     0.9425     0.9425    -0.0000
 11 H      0.8916     1.0000     0.1084     0.9611     0.9611     0.0000
 12 H      0.9062     1.0000     0.0938     0.9749     0.9749     0.0000
 13 H      0.8857     1.0000     0.1143     0.9517     0.9517    -0.0000
 14 H      0.8779     1.0000     0.1221     0.9560     0.9560     0.0000
 15 H      0.8718     1.0000     0.1282     0.9854     0.9854     0.0000
 16 H      0.8798     1.0000     0.1202     0.9547     0.9547     0.0000

  Mayer bond orders larger than 0.100000
B(  0-C ,  1-C ) :   1.1548 B(  0-C ,  7-H ) :   0.9537 B(  0-C ,  8-H ) :   0.9522 
B(  0-C ,  9-H ) :   0.9494 B(  1-C ,  2-C ) :   1.1131 B(  1-C , 10-H ) :   0.9282 
B(  1-C , 11-H ) :   0.9192 B(  2-C ,  3-C ) :   1.0160 B(  2-C , 12-H ) :   0.9115 
B(  2-C , 13-H ) :   0.8916 B(  3-C ,  4-O ) :   2.0538 B(  3-C ,  5-O ) :   1.2201 
B(  5-O ,  6-C ) :   0.9382 B(  6-C , 14-H ) :   0.9607 B(  6-C , 15-H ) :   0.9375 
B(  6-C , 16-H ) :   0.9590 

-------
TIMINGS
-------

Total SCF time: 0 days 0 hours 0 min 7 sec 

Total time                  ....       7.886 sec
Sum of individual times     ....       7.326 sec  ( 92.9%)

SCF preparation             ....       0.193 sec  (  2.4%)
Fock matrix formation       ....       6.238 sec  ( 79.1%)
  Startup                   ....       0.059 sec  (  0.9% of F)
  Split-RI-J                ....       1.906 sec  ( 30.5% of F)
  XC integration            ....       3.702 sec  ( 59.3% of F)
    Basis function eval.    ....       1.157 sec  ( 31.2% of XC)
    Density eval.           ....       0.393 sec  ( 10.6% of XC)
    XC-Functional eval.     ....       0.323 sec  (  8.7% of XC)
    XC-Potential eval.      ....       0.620 sec  ( 16.8% of XC)
Diagonalization             ....       0.000 sec  (  0.0%)
Density matrix formation    ....       0.190 sec  (  2.4%)
Total Energy calculation    ....       0.040 sec  (  0.5%)
Population analysis         ....       0.076 sec  (  1.0%)
Orbital Transformation      ....       0.048 sec  (  0.6%)
Orbital Orthonormalization  ....       0.000 sec  (  0.0%)
DIIS solution               ....       0.366 sec  (  4.6%)
  MO trafo                  ....       0.000 sec  (  0.0 % of DIIS)
  Orb grad                  ....       0.000 sec  (  0.0 % of DIIS)
  Energy W gradient         ....       0.000 sec  (  0.0 % of DIIS)
  DIIS error                ....       0.004 sec  (  1.1 % of DIIS)
  DIIS work                 ....       0.319 sec  ( 87.1 % of DIIS)
  Form Q                    ....       0.000 sec  (  0.0 % of DIIS)
  Form QpQm                 ....       0.000 sec  (  0.0 % of DIIS)
  Exp/Cayley                ....       0.000 sec  (  0.0 % of DIIS)
  Orb update                ....       0.000 sec  (  0.0 % of DIIS)
  Wake-sleep                ....       0.019 sec  (  5.3 % of DIIS)
SOSCF solution              ....       0.175 sec  (  2.2%)
  MO trafo                  ....       0.065 sec  ( 37.2 % of SOSCF)
  Orb grad                  ....       0.003 sec  (  1.8 % of SOSCF)
  Rot update                ....       0.069 sec  ( 39.4 % of SOSCF)
  Step                      ....       0.038 sec  ( 21.5 % of SOSCF)
Finished LeanSCF after   8.0 sec

Maximum memory used throughout the entire LEANSCF-calculation: 11.1 MB


-------------------------------------------------------------------------------
                          DFT DISPERSION CORRECTION                            
                                                                               
                                DFTD4 V3.4.0                                   
-------------------------------------------------------------------------------
The PBE functional is recognized
Active option DFTDOPT                   ...         5   

-------------------------   ----------------
Dispersion correction           -0.012324643
-------------------------   ----------------

------------------   -----------------
gCP correction             0.077008508
------------------   -----------------

-------------------------   --------------------
FINAL SINGLE POINT ENERGY      -346.239930675593
-------------------------   --------------------


------------------------------------------------------------------------------
                              ORCA PROPERTY CALCULATIONS
------------------------------------------------------------------------------

GBWName                                 ... sp.gbw
Number of atoms                         ...     17
Number of basis functions               ...    118
Max core memory                         ...   1024 MB

Electric properties:
Dipole moment                           ... YES
Quadrupole moment                       ...  NO
Static polarizability (Dipole/Dipole)   ...  NO
Static polarizability (Dipole/Quad.)    ...  NO
Static polarizability (Quad./Quad.)     ...  NO
Static polarizability (Velocity)        ...  NO

Atomic electric properties:
Dipole moment                           ...  NO
Quadrupole moment                       ...  NO
Static polarizability                   ...  NO

Choice of electric origin               ... Center of mass
Position of electric origin             ...    -0.000023     0.000012    -0.000003

General magnetic properties:
Magnetizability                         ...  NO

EPR properties:
g-Tensor (aka g-matrix)                 ...  NO
Zero-Field splitting spin-orbit         ...  NO
Zero-field splitting spin-spin          ...  NO
Hyperfine couplings                     ...  NO (   0 nuclei)
Quadrupole couplings                    ...  NO (   0 nuclei)
Contact density                         ...  NO (   0 nuclei)

NMR properties:
Chemical shifts                         ...  NO (   0 nuclei)
Spin-rotation constants                 ...  NO (   0 nuclei)
Spin-spin couplings                     ...  NO (   0 nuclei,    0 pairs)

Choice of magnetic origin               ... GIAO
Position of magnetic origin             ...     0.000000     0.000000     0.000000

Properties with geometric perturbations:
SCF Hessian                             ...  NO
IR spectrum                             ...  NO
VCD spectrum                            ...  NO
X-ray spectroscopy properties:
SCF XES/XAS/RIXS spectra                ...  NO


-------------
DIPOLE MOMENT
-------------

Method             : SCF
Type of density    : Electron Density
Multiplicity       :   1
Irrep              :   0
Energy             :  -346.3046145397396458 Eh
Relativity type    : 
Basis              : AO
                                X                 Y                 Z
Electronic contribution:      4.530197935      -2.914011631      -0.376253134
Nuclear contribution   :     -4.372449824       3.405465064      -0.043634192
                        -----------------------------------------
Total Dipole Moment    :      0.157748111       0.491453433      -0.419887326
                        -----------------------------------------
Magnitude (a.u.)       :      0.665369303
Magnitude (Debye)      :      1.691234364



--------------------
Rotational spectrum 
--------------------
 
Rotational constants in cm-1:             0.164795             0.051413             0.048853 
Rotational constants in MHz :          4940.430062          1541.322099          1464.565651 

Dipole components along the rotational axes: 
x,y,z [a.u.] :     0.156531     0.520177    -0.384226 
x,y,z [Debye]:     0.397871     1.322186    -0.976625 

 

Dipole moment calculation done in   0.0 sec 

Maximum memory used throughout the entire PROP-calculation: 7.0 MB

--------------------------------
SUGGESTED CITATIONS FOR THIS RUN
--------------------------------

Below you find a list of papers that are relevant to this ORCA run
We neither can nor want to force you to cite these papers, but we appreciate if you do
You receive ORCA, which is the product of decades of hard work by many enthusiastic individuals, for free
The only thing we kindly ask in return is that you cite our papers,
We deeply appreciate it, if you show your appreciation for ORCA by not just citing the generic ORCA reference.

Please note that relegating all ORCA citations to the supporting information does *not* help us.
SI sections are not indexed - citations you put there will not count into any citation statistics
But we need these citations in order to attract the funding resources that allow us to do what we are doing

Therefore, if you are a happy ORCA user, please consider citing a few of the papers listed below in the main body of your paper

In addition to the list printed below, the program has created the file sp.bibtex that contains the list in bibtex format
You can import this file easily into all common literature databanks and citation aid programs


List of essential papers. We consider these as the minimum necessary citations

  1. Neese,F.
     Software update: the ORCA program system, version 5.0
     WIRES Comput. Molec. Sci., 2022 12(1)e1606
     doi.org/10.1002/wcms.1606

List of papers to cite with high priority. The work reported in these papers was absolutely
necessary for this run to complete.
Our perspective: the developers of density functionals and basis sets usually get cited in chemistry papers
Good! But without the algorithms to do something with them, the functionals or basis sets would not do anything.
Hence, in our opinion, the algorithm design and method developments papers are equally worthy of getting cited

  1. Neese,F.
     An improvement of the resolution of the identity approximation for the formation of the Coulomb matrix
     J. Comp. Chem., 2003 24(14)1740-1747
     doi.org/10.1002/jcc.10318
  2. Neese,F.
     The SHARK Integral Generation and Digestion System
     J. Comp. Chem., 2022  1-16
     doi.org/10.1002/jcc.26942
  3. Caldeweyher,E.; Bannwarth,C.; Grimme,S.
     Extension of the D3 dispersion coefficient model
     J. Chem. Phys., 2017 147 034112-XXXX
     doi.org/10.1063/1.4993215
  4. Caldeweyher,E.; Ehlert,S.; Hansen,A.; Neugebauer,H.; Spicher,S.; Bannwarth,C.; Grimme,S.
     A generally applicable atomic-charge dependent London dispersion correction
     J. Chem. Phys., 2019 150 154122-XXXX
     doi.org/10.1063/1.5090222
  5. Caldeweyher,E.; Mewes,J.; Ehlert,S.; Grimme,S.
     Extension and evaluation of the D4 London-dispersion model for periodic systems
     Phys. Chem. Chem. Phys., 2020 22(16)8499-8512
     doi.org/10.1039/D0CP00502A

List of suggested additional citations. These are papers that are important in the 'surrounding' of 
of this run, or papers that preceded the highly important papers. If you like your results we are grateful for a citation.

  1. Neese,F.
     The ORCA program system
     WIRES Comput. Molec. Sci., 2012 2(1)73-78
     doi.org/10.1002/wcms.81
  2. Neese,F.
     Software update: the ORCA program system, version 4.0
     WIRES Comput. Molec. Sci., 2018 8(1)1-6
     doi.org/10.1002/wcms.1327
  3. Neese,F.; Wennmohs,F.; Becker,U.; Riplinger,C.
     The ORCA quantum chemistry program package
     J. Chem. Phys., 2020 152 Art. No. L224108
     doi.org/10.1063/5.0004608

List of optional additional citations

  1. Neese,F.
     Approximate second-order SCF convergence for spin unrestricted wavefunctions
     Chem. Phys. Lett., 2000 325(1-3)93-98
     doi.org/10.1016/s0009-2614(00)00662-x

Timings for individual modules:

Sum of individual times          ...        9.610 sec (=   0.160 min)
Startup calculation              ...        0.765 sec (=   0.013 min)   8.0 %
SCF iterations                   ...        8.740 sec (=   0.146 min)  91.0 %
Property calculations            ...        0.104 sec (=   0.002 min)   1.1 %
                             ****ORCA TERMINATED NORMALLY****
TOTAL RUN TIME: 0 days 0 hours 0 minutes 10 seconds 328 msec
