
                                 *****************
                                 * O   R   C   A *
                                 *****************

                                            #,                                       
                                            ###                                      
                                            ####                                     
                                            #####                                    
                                            ######                                   
                                           ########,                                 
                                     ,,################,,,,,                         
                               ,,#################################,,                 
                          ,,##########################################,,             
                       ,#########################################, ''#####,          
                    ,#############################################,,   '####,        
                  ,##################################################,,,,####,       
                ,###########''''           ''''###############################       
              ,#####''   ,,,,##########,,,,          '''####'''          '####       
            ,##' ,,,,###########################,,,                        '##       
           ' ,,###''''                  '''############,,,                           
         ,,##''                                '''############,,,,        ,,,,,,###''
      ,#''                                            '''#######################'''  
     '                                                          ''''####''''         
             ,#######,   #######,   ,#######,      ##                                
            ,#'     '#,  ##    ##  ,#'     '#,    #''#        ,####,   ,####,        
            ##       ##  ##   ,#'  ##            #'  '#       #'       #'  '#        
            ##       ##  #######   ##           ,######,      #####,   #    #        
            '#,     ,#'  ##    ##  '#,     ,#' ,#      #,     #,   #   #,  ,#        
             '#######'   ##     ##  '#######'  #'      '#     '####' # '####'        



                #########################################################
                #                        -***-                          #
                #          Department of theory and spectroscopy        #
                #                                                       #
                #                      Frank Neese                      #
                #                                                       #
                #     Directorship, Architecture, Infrastructure        #
                #                    SHARK, DRIVERS                     #
                #        Core code/Algorithms in most modules           #
                #                                                       #
                #        Max Planck Institute fuer Kohlenforschung      #
                #                Kaiser Wilhelm Platz 1                 #
                #                 D-45470 Muelheim/Ruhr                 #
                #                      Germany                          #
                #                                                       #
                #                  All rights reserved                  #
                #                        -***-                          #
                #########################################################


                         Program Version 6.0.0  -   RELEASE  -


 With contributions from (in alphabetic order):
   Daniel Aravena         : Magnetic Suceptibility
   Michael Atanasov       : Ab Initio Ligand Field Theory (pilot matlab implementation)
   Alexander A. Auer      : GIAO ZORA, VPT2 properties, NMR spectrum
   Ute Becker             : All parallelization in ORCA, NUMFREQ, NUMCALC
   Giovanni Bistoni       : ED, misc. LED, open-shell LED, HFLD
   Martin Brehm           : Molecular dynamics
   Dmytro Bykov           : pre 5.0 version of the SCF Hessian
   Marcos Casanova-Páez   : Triplet and SCS-CIS(D). UHF-(DLPNO)-IP/EA/STEOM-CCSD. UHF-CVS-IP/STEOM-CCSD
   Vijay G. Chilkuri      : MRCI spin determinant printing, contributions to CSF-ICE
   Pauline Colinet        : FMM embedding
   Dipayan Datta          : RHF DLPNO-CCSD density
   Achintya Kumar Dutta   : EOM-CC, STEOM-CC
   Nicolas Foglia         : Exact transition moments, OPA infrastructure, MCD improvements
   Dmitry Ganyushin       : Spin-Orbit,Spin-Spin,Magnetic field MRCI
   Miquel Garcia          : C-PCM and meta-GGA Hessian, CCSD/C-PCM, Gaussian charge scheme
   Tiago L. C. Gouveia    : GS-ROHF, GS-ROCIS
   Yang Guo               : DLPNO-NEVPT2, F12-NEVPT2, CIM, IAO-localization
   Andreas Hansen         : Spin unrestricted coupled pair/coupled cluster methods
   Ingolf Harden          : AUTO-CI MPn and infrastructure 
   Benjamin Helmich-Paris : MC-RPA, TRAH-(SCF,CASSCF), AVAS, COSX integrals, SCF dyn. polar.
   Lee Huntington         : MR-EOM, pCC
   Robert Izsak           : Overlap fitted RIJCOSX, COSX-SCS-MP3, EOM
   Riya Kayal             : Wick's Theorem for AUTO-CI, AUTO-CI UHF-CCSDT
   Emily Kempfer          : AUTO-CI, RHF CISDT and CCSDT
   Christian Kollmar      : KDIIS, OOCD, Brueckner-CCSD(T), CCSD density, CASPT2, CASPT2-K, improved NEVPT2
   Axel Koslowski         : Symmetry handling
   Simone Kossmann        : Meta GGA functionals, TD-DFT gradient, OOMP2, (MP2 Hessian; deprecated post 5.0)
   Lucas Lang             : DCDCAS
   Marvin Lechner         : AUTO-CI (C++ implementation), FIC-MRCC
   Spencer Leger          : CASSCF response
   Dagmar Lenk            : GEPOL surface, SMD, ORCA-2-JSON
   Dimitrios Liakos       : Extrapolation schemes; Compound Job, initial MDCI parallelization
   Dimitrios Manganas     : Further ROCIS development; embedding schemes. LFT, Crystal Embedding
   Dimitrios Pantazis     : SARC Basis sets
   Anastasios Papadopoulos: AUTO-CI, single reference methods and gradients
   Taras Petrenko         : pre 6.0 DFT Hessian and TD-DFT gradient, (ASA, deprecated), ECA, 1-Electron XAS/XES, NRVS
   Peter Pinski           : DLPNO-MP2, DLPNO-MP2 Gradient
   Christoph Reimann      : Effective Core Potentials
   Marius Retegan         : Local ZFS, SOC
   Christoph Riplinger    : Optimizer, TS searches, QM/MM, DLPNO-CCSD(T), (RO)-DLPNO pert. Triples
   Michael Roemelt        : Original ROCIS implementation
   Masaaki Saitow         : Open-shell DLPNO-CCSD energy and density
   Barbara Sandhoefer     : DKH picture change effects
   Kantharuban Sivalingam : CASSCF convergence/infrastructure, NEVPT2 and variants, FIC-MRCI
   Bernardo de Souza      : ESD, SOC TD-DFT
   Georgi Stoychev        : AutoAux, RI-MP2 NMR, DLPNO-MP2 response, X2C
   Van Anh Tran           : RI-MP2 g-tensors
   Willem Van den Heuvel  : Paramagnetic NMR
   Zikuan Wang            : NOTCH, Electric field optimization 
   Frank Wennmohs         : Technical directorship and infrastructure
   Hang Xu                : AUTO-CI-Response properties 


 We gratefully acknowledge several colleagues who have allowed us to
 interface, adapt or use parts of their codes:
   Stefan Grimme, W. Hujo, H. Kruse, P. Pracht,  : VdW corrections, initial TS optimization,
                  C. Bannwarth, S. Ehlert,         DFT functionals, gCP, sTDA/sTD-DF
                  L. Wittmann, M. Mueller
   Ed Valeev, F. Pavosevic, A. Kumar             : LibInt (2-el integral package), F12 methods
   Garnet Chan, S. Sharma, J. Yang, R. Olivares  : DMRG
   Ulf Ekstrom                                   : XCFun DFT Library
   Mihaly Kallay                                 : mrcc  (arbitrary order and MRCC methods)
   Frank Weinhold                                : gennbo (NPA and NBO analysis)
   Simon Mueller                                 : openCOSMO-RS
   Christopher J. Cramer and Donald G. Truhlar   : smd solvation model
   Lars Goerigk                                  : TD-DFT with DH, B97 family of functionals
   V. Asgeirsson, H. Jonsson                     : NEB implementation
   FAccTs GmbH                                   : IRC, NEB, NEB-TS, DLPNO-Multilevel, CI-OPT
                                                   MM, QMMM, 2- and 3-layer-ONIOM, Crystal-QMMM,
                                                   LR-CPCM, SF, NACMEs, symmetry and pop. for TD-DFT,
                                                   nearIR, NL-DFT gradient (VV10), updates on ESD,
                                                   ML-optimized integration grids, MBIS, APM,
                                                   GOAT, DOCKER, SOLVATOR, interface openCOSMO-RS
   S Lehtola, MJT Oliveira, MAL Marques          : LibXC Library
   Liviu Ungur et al                             : ANISO software


 Your calculation uses the libint2 library for the computation of 2-el integrals
 For citations please refer to: http://libint.valeyev.net

 Your ORCA version has been built with support for libXC version: 6.2.2
 For citations please refer to: https://libxc.gitlab.io

 This ORCA versions uses:
   CBLAS   interface :  Fast vector & matrix operations
   LAPACKE interface :  Fast linear algebra routines
   SCALAPACK package :  Parallel linear algebra routines
   Shared memory     :  Shared parallel matrices
   BLAS/LAPACK       :  OpenBLAS 0.3.27  USE64BITINT DYNAMIC_ARCH NO_AFFINITY SkylakeX SINGLE_THREADED
        Core in use  :  SkylakeX
   Copyright (c) 2011-2014, The OpenBLAS Project


Your calculation utilizes the geometrical counterpoise correction gCP
Please cite in your paper:
H.Kruse, S. Grimme J.Chem.Phys., 136, (2012), 154101 
   

Your calculation utilizes the atom-pairwise dispersion correction
based on EEQ partial charges (D4)


================================================================================

----- Orbital basis set information -----
Your calculation utilizes the basis: def2-SV(P)
   F. Weigend and R. Ahlrichs, Phys. Chem. Chem. Phys. 7, 3297 (2005).

----- AuxJ basis set information -----
Your calculation utilizes the auxiliary basis: def2/J
   F. Weigend, Phys. Chem. Chem. Phys. 8, 1057 (2006).

================================================================================
                                        WARNINGS
                       Please study these warnings very carefully!
================================================================================


================================================================================
                                       INPUT FILE
================================================================================
NAME = sp.inp
|  1> ! pbe def2-sv(p) def2/J RI DEFGRID1 loosescf d4 GCP(DFT/SV(P)) printgap
|  2> %output
|  3>     printlevel normal
|  4> end
|  5> * xyz 0 1
|  6> C -1.7661609466 0.9752543577 -0.3421888428
|  7> C -1.0530034089 0.2101996522 0.7687745266
|  8> C 0.1335226496 -0.6497000488 0.3015236921
|  9> C 1.197425349 0.1216012289 -0.4907604697
| 10> C 1.863550592 1.2282612508 0.3170644351
| 11> O -0.3052656394 -1.7839181834 -0.4305688534
| 12> H -2.1230704425 0.301099769 -1.1173490741
| 13> H -2.6276914774 1.4943308772 0.0705887876
| 14> H -1.1114880145 1.7152883428 -0.7943260253
| 15> H -0.6937131021 0.9105126824 1.5228484615
| 16> H -1.7642484019 -0.462760056 1.2534787137
| 17> H 0.6061889332 -1.081837479 1.1928165426
| 18> H 1.9529159621 -0.6024775591 -0.805455226
| 19> H 0.7475495295 0.5403526302 -1.3928699454
| 20> H 2.6755920199 1.6684180616 -0.2560728157
| 21> H 1.155075772 2.0142891871 0.5631080314
| 22> H 2.2722930794 0.8296150081 1.2426033226
| 23> H -0.7164228344 -1.479543525 -1.2513871724
| 24> *
| 25> 
| 26>                          ****END OF INPUT****
================================================================================

                       ****************************
                       * Single Point Calculation *
                       ****************************

---------------------------------
CARTESIAN COORDINATES (ANGSTROEM)
---------------------------------
  C     -1.766161    0.975254   -0.342189
  C     -1.053003    0.210200    0.768775
  C      0.133523   -0.649700    0.301524
  C      1.197425    0.121601   -0.490760
  C      1.863551    1.228261    0.317064
  O     -0.305266   -1.783918   -0.430569
  H     -2.123070    0.301100   -1.117349
  H     -2.627691    1.494331    0.070589
  H     -1.111488    1.715288   -0.794326
  H     -0.693713    0.910513    1.522848
  H     -1.764248   -0.462760    1.253479
  H      0.606189   -1.081837    1.192817
  H      1.952916   -0.602478   -0.805455
  H      0.747550    0.540353   -1.392870
  H      2.675592    1.668418   -0.256073
  H      1.155076    2.014289    0.563108
  H      2.272293    0.829615    1.242603
  H     -0.716423   -1.479544   -1.251387

----------------------------
CARTESIAN COORDINATES (A.U.)
----------------------------
  NO LB      ZA    FRAG     MASS         X           Y           Z
   0 C     6.0000    0    12.011   -3.337560    1.842964   -0.646643
   1 C     6.0000    0    12.011   -1.989888    0.397220    1.452773
   2 C     6.0000    0    12.011    0.252321   -1.227755    0.569797
   3 C     6.0000    0    12.011    2.262806    0.229793   -0.927403
   4 C     6.0000    0    12.011    3.521600    2.321077    0.599165
   5 O     8.0000    0    15.999   -0.576868   -3.371117   -0.813657
   6 H     1.0000    0     1.008   -4.012022    0.568996   -2.111484
   7 H     1.0000    0     1.008   -4.965617    2.823876    0.133393
   8 H     1.0000    0     1.008   -2.100408    3.241425   -1.501059
   9 H     1.0000    0     1.008   -1.310928    1.720620    2.877767
  10 H     1.0000    0     1.008   -3.333946   -0.874490    2.368731
  11 H     1.0000    0     1.008    1.145531   -2.044377    2.254097
  12 H     1.0000    0     1.008    3.690476   -1.138518   -1.522090
  13 H     1.0000    0     1.008    1.412664    1.021118   -2.632143
  14 H     1.0000    0     1.008    5.056136    3.152853   -0.483907
  15 H     1.0000    0     1.008    2.182777    3.806455    1.064120
  16 H     1.0000    0     1.008    4.294012    1.567745    2.348180
  17 H     1.0000    0     1.008   -1.353843   -2.795932   -2.364779

--------------------------------
INTERNAL COORDINATES (ANGSTROEM)
--------------------------------
 C      0   0   0     0.000000000000     0.00000000     0.00000000
 C      1   0   0     1.525825017535     0.00000000     0.00000000
 C      2   1   0     1.538049064764   114.81571379     0.00000000
 C      3   2   1     1.534440877913   114.24964994    54.86329542
 C      4   3   2     1.523482956993   113.23515047    62.10852450
 O      3   2   1     1.419487736684   111.40385336   288.81346429
 H      1   2   3     1.087539508210   111.19497006    56.93848115
 H      1   2   3     1.087226131380   109.47033491   176.00208208
 H      1   2   3     1.086588688937   111.27548871   295.39515586
 H      2   1   3     1.090025396091   109.61032351   122.22549707
 H      2   1   3     1.092557713771   109.12257545   239.89845869
 H      3   2   1     1.097524086107   107.79788523   175.63613095
 H      4   3   2     1.092743770221   107.15652960   182.79753036
 H      4   3   2     1.091577984026   109.49900850   299.13452844
 H      5   4   3     1.087030637551   109.94921768   174.06298013
 H      5   4   3     1.086422541417   111.13137582   293.92770220
 H      5   4   3     1.087479415943   110.44731829    54.42308873
 H      6   3   2     0.967179861495   108.52073452    65.79208369

---------------------------
INTERNAL COORDINATES (A.U.)
---------------------------
 C      0   0   0     0.000000000000     0.00000000     0.00000000
 C      1   0   0     2.883391411426     0.00000000     0.00000000
 C      2   1   0     2.906491512937   114.81571379     0.00000000
 C      3   2   1     2.899673027950   114.24964994    54.86329542
 C      4   3   2     2.878965558414   113.23515047    62.10852450
 O      3   2   1     2.682443072792   111.40385336   288.81346429
 H      1   2   3     2.055151830337   111.19497006    56.93848115
 H      1   2   3     2.054559633951   109.47033491   176.00208208
 H      1   2   3     2.053355042308   111.27548871   295.39515586
 H      2   1   3     2.059849477632   109.61032351   122.22549707
 H      2   1   3     2.064634864530   109.12257545   239.89845869
 H      3   2   1     2.074019948124   107.79788523   175.63613095
 H      4   3   2     2.064986460266   107.15652960   182.79753036
 H      4   3   2     2.062783443626   109.49900850   299.13452844
 H      5   4   3     2.054190204153   109.94921768   174.06298013
 H      5   4   3     2.053041068996   111.13137582   293.92770220
 H      5   4   3     2.055038272409   110.44731829    54.42308873
 H      6   3   2     1.827705060470   108.52073452    65.79208369

---------------------
BASIS SET INFORMATION
---------------------
There are 3 groups of distinct atoms

 Group   1 Type C   : 7s4p1d contracted to 3s2p1d pattern {511/31/1}
 Group   2 Type O   : 7s4p1d contracted to 3s2p1d pattern {511/31/1}
 Group   3 Type H   : 4s contracted to 2s pattern {31}

Atom   0C    basis set group =>   1
Atom   1C    basis set group =>   1
Atom   2C    basis set group =>   1
Atom   3C    basis set group =>   1
Atom   4C    basis set group =>   1
Atom   5O    basis set group =>   2
Atom   6H    basis set group =>   3
Atom   7H    basis set group =>   3
Atom   8H    basis set group =>   3
Atom   9H    basis set group =>   3
Atom  10H    basis set group =>   3
Atom  11H    basis set group =>   3
Atom  12H    basis set group =>   3
Atom  13H    basis set group =>   3
Atom  14H    basis set group =>   3
Atom  15H    basis set group =>   3
Atom  16H    basis set group =>   3
Atom  17H    basis set group =>   3
---------------------------------
AUXILIARY/J BASIS SET INFORMATION
---------------------------------
There are 3 groups of distinct atoms

 Group   1 Type C   : 12s5p4d2f1g contracted to 6s4p3d1f1g pattern {711111/2111/211/2/1}
 Group   2 Type O   : 12s5p4d2f1g contracted to 6s4p3d1f1g pattern {711111/2111/211/2/1}
 Group   3 Type H   : 5s2p1d contracted to 3s1p1d pattern {311/2/1}

Atom   0C    basis set group =>   1
Atom   1C    basis set group =>   1
Atom   2C    basis set group =>   1
Atom   3C    basis set group =>   1
Atom   4C    basis set group =>   1
Atom   5O    basis set group =>   2
Atom   6H    basis set group =>   3
Atom   7H    basis set group =>   3
Atom   8H    basis set group =>   3
Atom   9H    basis set group =>   3
Atom  10H    basis set group =>   3
Atom  11H    basis set group =>   3
Atom  12H    basis set group =>   3
Atom  13H    basis set group =>   3
Atom  14H    basis set group =>   3
Atom  15H    basis set group =>   3
Atom  16H    basis set group =>   3
Atom  17H    basis set group =>   3
------------------------------------------------------------------------------
                             ORCA STARTUP CALCULATIONS
                           -- RI-GTO INTEGRALS CHOSEN --
------------------------------------------------------------------------------
------------------------------------------------------------------------------
                   ___                                                        
                  /   \      - P O W E R E D   B Y -                         
                 /     \                                                     
                 |  |  |   _    _      __       _____    __    __             
                 |  |  |  | |  | |    /  \     |  _  \  |  |  /  |          
                  \  \/   | |  | |   /    \    | | | |  |  | /  /          
                 / \  \   | |__| |  /  /\  \   | |_| |  |  |/  /          
                |  |  |   |  __  | /  /__\  \  |    /   |      \           
                |  |  |   | |  | | |   __   |  |    \   |  |\   \          
                \     /   | |  | | |  |  |  |  | |\  \  |  | \   \       
                 \___/    |_|  |_| |__|  |__|  |_| \__\ |__|  \__/        
                                                                              
                      - O R C A' S   B I G   F R I E N D -                    
                                      &                                       
                       - I N T E G R A L  F E E D E R -                       
                                                                              
 v1 FN, 2020, v2 2021, v3 2022-2024                                           
------------------------------------------------------------------------------


----------------------
SHARK INTEGRAL PACKAGE
----------------------

Number of atoms                             ...     18
Number of basis functions                   ...    108
Number of shells                            ...     60
Maximum angular momentum                    ...      2
Integral batch strategy                     ... SHARK/LIBINT Hybrid
RI-J (if used) integral strategy            ... SPLIT-RIJ (Revised 2003 algorithm where possible)
Printlevel                                  ...      1
Contraction scheme used                     ... SEGMENTED contraction
Prescreening option                         ... SCHWARTZ
   Thresh                                   ... 1.000e-09
   Tcut                                     ... 1.000e-10
   Tpresel                                  ... 1.000e-10 
Coulomb Range Separation                    ... NOT USED
Exchange Range Separation                   ... NOT USED
Multipole approximations                    ... NOT USED
Finite Nucleus Model                        ... NOT USED
CABS basis                                  ... NOT available
Auxiliary Coulomb fitting basis             ... AVAILABLE
   # of basis functions in Aux-J            ...    426
   # of shells in Aux-J                     ...    150
   Maximum angular momentum in Aux-J        ...      4
Auxiliary J/K fitting basis                 ... NOT available
Auxiliary Correlation fitting basis         ... NOT available
Auxiliary 'external' fitting basis          ... NOT available

Checking pre-screening integrals            ... done (  0.0 sec) Dimension = 60
Check shell pair data                       ... done (  0.0 sec)
Shell pair information
Shell pair cut-off parameter TPreSel        ...   1.0e-10
Total number of shell pairs                 ...      1830
Shell pairs after pre-screening             ...      1797
Total number of primitive shell pairs       ...      7374
Primitive shell pairs kept                  ...      5322
          la=0 lb=0:    878 shell pairs
          la=1 lb=0:    501 shell pairs
          la=1 lb=1:     78 shell pairs
          la=2 lb=0:    247 shell pairs
          la=2 lb=1:     72 shell pairs
          la=2 lb=2:     21 shell pairs

Calculating one electron integrals          ... done (  0.0 sec)
Calculating RI/J V-Matrix + Cholesky decomp.... done (  0.1 sec)
Calculating Nuclear repulsion               ... done (  0.0 sec) ENN=    262.497283170134 Eh

Diagonalization of the overlap matrix:
Smallest eigenvalue                        ... 1.981e-03
Time for diagonalization                   ...    0.001 sec
Threshold for overlap eigenvalues          ... 1.000e-07
Number of eigenvalues below threshold      ... 0
Time for construction of square roots      ...    0.025 sec
Total time needed                          ...    0.038 sec

-------------------
DFT GRID GENERATION
-------------------

General Integration Accuracy     IntAcc      ... 4.159
Radial Grid Type                 RadialGrid  ... OptM3 with GC (2021)
Angular Grid (max. ang.)         AngularGrid ... 3 (Lebedev-194)
Angular grid pruning method      GridPruning ... 4 (adaptive)
Weight generation scheme         WeightScheme... mBecke (2022)
Basis function cutoff            BFCut       ... 1.0000e-10
Integration weight cutoff        WCut        ... 1.0000e-14
Partially contracted basis set               ... off
Rotationally invariant grid construction     ... off
Angular grids for H and He will be reduced by one unit

Total number of grid points                  ...    36341
Total number of batches                      ...      577
Average number of points per batch           ...       62
Average number of grid points per atom       ...     2019
Initializing property integral containers    ... done (  0.0 sec)

SHARK setup successfully completed in   0.6 seconds

Maximum memory used throughout the entire STARTUP-calculation: 17.7 MB
-------------------------------------------------------------------------------
                                 ORCA GUESS
                   Start orbitals & Density for SCF / CASSCF
-------------------------------------------------------------------------------

------------
SCF SETTINGS
------------
Hamiltonian:
 Density Functional     Method          .... DFT(GTOs)
 Exchange Functional    Exchange        .... PBE
   PBE kappa parameter   XKappa         ....  0.804000
   PBE mue parameter    XMuePBE         ....  0.219520
 Correlation Functional Correlation     .... PBE
   PBE beta parameter  CBetaPBE         ....  0.066725
 LDA part of GGA corr.  LDAOpt          .... PW91-LDA
 Gradients option       PostSCFGGA      .... off
   NL short-range parameter             ....  6.400000
 RI-approximation to the Coulomb term is turned on
   Number of AuxJ basis functions       .... 426


General Settings:
 Integral files         IntName         .... sp
 Hartree-Fock type      HFTyp           .... RHF
 Total Charge           Charge          ....    0
 Multiplicity           Mult            ....    1
 Number of Electrons    NEL             ....   50
 Basis Dimension        Dim             ....  108
 Nuclear Repulsion      ENuc            ....    262.4972831701 Eh

Convergence Acceleration:
 AO-DIIS                CNVDIIS         .... on
   Start iteration      DIISMaxIt       ....    12
   Startup error        DIISStart       ....  0.200000
   # of expansion vecs  DIISMaxEq       ....     5
   Bias factor          DIISBfac        ....   1.050
   Max. coefficient     DIISMaxC        ....  10.000
 MO-DIIS                CNVKDIIS        .... off
 Trust-Rad. Augm. Hess. CNVTRAH         .... auto
   Auto Start mean grad. ratio tolernc. ....  1.125000
   Auto Start start iteration           ....    50
   Auto Start num. interpolation iter.  ....    10
   Max. Number of Micro iterations      ....    24
   Max. Number of Macro iterations      .... Maxiter - #DIIS iter
   Number of Davidson start vectors     ....     2
   Converg. threshold    (grad. norm)   ....   1.000e-04
   Grad. Scal. Fac. for Micro threshold ....   0.100
   Minimum threshold for Micro iter.    ....   1.000e-02
   NR start threshold (gradient norm)   ....   1.000e-04
   Initial trust radius                 ....   0.400
   Minimum AH scaling param. (alpha)    ....   1.000
   Maximum AH scaling param. (alpha)    .... 1000.000
   Quad. conv. algorithm                .... NR
   White noise on init. David. guess    .... on
   Maximum white noise                  ....   0.010
   Pseudo random numbers                .... off
   Inactive MOs                         .... canonical
   Orbital update algorithm             .... Taylor
   Preconditioner                       .... Diag
   Full preconditioner red. dimension   ....   250
 SOSCF                  CNVSOSCF        .... on
   Start iteration      SOSCFMaxIt      ....   150
   Startup grad/error   SOSCFStart      ....  0.003300
   Hessian update       SOSCFHessUp     .... L-BFGS
 Level Shifting         CNVShift        .... on
   Level shift para.    LevelShift      ....    0.2500
   Turn off err/grad.   ShiftErr        ....    0.0010
 Zerner damping         CNVZerner       .... off
 Static damping         CNVDamp         .... on
   Fraction old density DampFac         ....    0.7000
   Max. Damping (<1)    DampMax         ....    0.9800
   Min. Damping (>=0)   DampMin         ....    0.0000
   Turn off err/grad.   DampErr         ....    0.1000

SCF Procedure:
 Maximum # iterations   MaxIter         ....   125
 SCF integral mode      SCFMode         .... Direct
   Integral package                     .... SHARK and LIBINT hybrid scheme
 Reset frequency        DirectResetFreq ....    20
 Integral Threshold     Thresh          ....  1.000e-09 Eh
 Primitive CutOff       TCut            ....  1.000e-10 Eh

Convergence Tolerance:
 Convergence Check Mode ConvCheckMode   .... Total+1el-Energy
 Convergence forced     ConvForced      .... 0
 Energy Change          TolE            ....  1.000e-05 Eh
 1-El. energy change                    ....  1.000e-02 Eh
 Orbital Gradient       TolG            ....  1.000e-04
 Orbital Rotation angle TolX            ....  1.000e-04
 DIIS Error             TolErr          ....  5.000e-04

------------------------------
INITIAL GUESS: MODEL POTENTIAL
------------------------------
Loading Hartree-Fock densities                     ... done
Calculating cut-offs                               ... done
Initializing the effective Hamiltonian             ... done
Setting up the integral package (SHARK)            ... done
Starting the Coulomb interaction                   ... done (   0.1 sec)
Making the grid                                    ... done (   0.2 sec)
Mapping shells                                     ... done
Starting the XC term evaluation                    ... done (   0.1 sec)
  promolecular density results
     # of electrons  =     49.994685508
     EX              =    -37.275800522
     EC              =     -1.631576424
     EX+EC           =    -38.907376946
Transforming the Hamiltonian                       ... done (   0.0 sec)
Diagonalizing the Hamiltonian                      ... done (   0.0 sec)
Back transforming the eigenvectors                 ... done (   0.0 sec)
Now organizing SCF variables                       ... done
                      ------------------
                      INITIAL GUESS DONE (   0.4 sec)
                      ------------------
             **** ENERGY FILE WAS UPDATED (sp.en.tmp) ****
Finished Guess after   0.6 sec
Maximum memory used throughout the entire GUESS-calculation: 13.5 MB

-------------------------------------------------------------------------------------------
                                      ORCA LEAN-SCF
                              memory conserving SCF solver
-------------------------------------------------------------------------------------------

----------------------------------------D-I-I-S--------------------------------------------
Iteration    Energy (Eh)           Delta-E    RMSDP     MaxDP     DIISErr   Damp  Time(sec)
-------------------------------------------------------------------------------------------
               ***  Starting incremental Fock matrix formation  ***
    1    -272.1696130060556698     0.00e+00  5.50e-03  8.10e-02  2.13e-01  0.700   0.7
    2    -272.2712513706187565    -1.02e-01  3.88e-03  4.68e-02  8.54e-02  0.700   0.8
                               ***Turning on AO-DIIS***
    3    -272.3060561754381297    -3.48e-02  1.53e-03  1.35e-02  1.98e-02  0.700   0.7
    4    -272.3266608572622545    -2.06e-02  2.19e-03  2.07e-02  1.12e-02  0.000   0.7
    5    -272.3738173740542834    -4.72e-02  7.07e-04  9.07e-03  1.11e-02  0.000   0.7
                              *** Initializing SOSCF ***
---------------------------------------S-O-S-C-F--------------------------------------
Iteration    Energy (Eh)           Delta-E    RMSDP     MaxDP     MaxGrad    Time(sec)
--------------------------------------------------------------------------------------
    6    -272.3743146286238925    -4.97e-04  2.45e-04  2.41e-03  1.92e-03     0.7
               *** Restarting incremental Fock matrix formation ***
    7    -272.3743619209675444    -4.73e-05  1.87e-04  2.66e-03  2.39e-04     0.7
    8    -272.3743610066397878     9.14e-07  5.69e-05  1.09e-03  5.75e-04     0.6
                 **** Energy Check signals convergence ****

               *****************************************************
               *                     SUCCESS                       *
               *           SCF CONVERGED AFTER   8 CYCLES          *
               *****************************************************

             **** ENERGY FILE WAS UPDATED (sp.en.tmp) ****

----------------
TOTAL SCF ENERGY
----------------

Total Energy       :       -272.37436100663979 Eh           -7411.68317 eV

Components:
Nuclear Repulsion  :        262.49728317013353 Eh            7142.91421 eV
Electronic Energy  :       -534.87164417677332 Eh          -14554.59738 eV
One Electron Energy:       -888.20164408215874 Eh          -24169.19547 eV
Two Electron Energy:        353.32999990538542 Eh            9614.59809 eV

Virial components:
Potential Energy   :       -542.41461894398299 Eh          -14759.85216 eV
Kinetic Energy     :        270.04025793734326 Eh            7348.16899 eV
Virial Ratio       :          2.00864353740115

DFT components:
N(Alpha)           :       24.999723458757 electrons
N(Beta)            :       24.999723458757 electrons
N(Total)           :       49.999446917514 electrons
E(X)               :      -38.203244353939 Eh       
E(C)               :       -1.643418103517 Eh       
E(XC)              :      -39.846662457456 Eh       

---------------
SCF CONVERGENCE
---------------

  Last Energy change         ...   -9.1433e-07  Tolerance :   1.0000e-05
  Last MAX-Density change    ...    1.0903e-03  Tolerance :   1.0000e-03
  Last RMS-Density change    ...    5.6949e-05  Tolerance :   1.0000e-04
  Last DIIS Error            ...    1.9220e-03  Tolerance :   5.0000e-04
  Last Orbital Gradient      ...    5.7512e-04  Tolerance :   1.0000e-04
  Last Orbital Rotation      ...    1.8740e-04  Tolerance :   1.0000e-04


----------------
ORBITAL ENERGIES
----------------

  NO   OCC          E(Eh)            E(eV) 
   0   2.0000     -18.735535      -509.8198 
   1   2.0000      -9.931116      -270.2394 
   2   2.0000      -9.882488      -268.9162 
   3   2.0000      -9.882348      -268.9124 
   4   2.0000      -9.880980      -268.8751 
   5   2.0000      -9.877694      -268.7857 
   6   2.0000      -0.913298       -24.8521 
   7   2.0000      -0.714945       -19.4546 
   8   2.0000      -0.675135       -18.3714 
   9   2.0000      -0.604714       -16.4551 
  10   2.0000      -0.556521       -15.1437 
  11   2.0000      -0.509625       -13.8676 
  12   2.0000      -0.439687       -11.9645 
  13   2.0000      -0.423392       -11.5211 
  14   2.0000      -0.403914       -10.9911 
  15   2.0000      -0.377147       -10.2627 
  16   2.0000      -0.366992        -9.9864 
  17   2.0000      -0.344679        -9.3792 
  18   2.0000      -0.331257        -9.0140 
  19   2.0000      -0.325226        -8.8498 
  20   2.0000      -0.304036        -8.2733 
  21   2.0000      -0.298768        -8.1299 
  22   2.0000      -0.287925        -7.8348 
  23   2.0000      -0.260527        -7.0893 
  24   2.0000      -0.208121        -5.6633 
  25   0.0000       0.023494         0.6393 
  26   0.0000       0.040925         1.1136 
  27   0.0000       0.064152         1.7457 
  28   0.0000       0.077562         2.1106 
  29   0.0000       0.091749         2.4966 
  30   0.0000       0.100509         2.7350 
  31   0.0000       0.106986         2.9112 
  32   0.0000       0.120939         3.2909 
  33   0.0000       0.132131         3.5955 
  34   0.0000       0.142190         3.8692 
  35   0.0000       0.151882         4.1329 
*Only the first 10 virtual orbitals were printed.

                    ********************************
                    * MULLIKEN POPULATION ANALYSIS *
                    ********************************

-----------------------
MULLIKEN ATOMIC CHARGES
-----------------------
   0 C :   -0.311458
   1 C :   -0.162038
   2 C :    0.040921
   3 C :   -0.181576
   4 C :   -0.289416
   5 O :   -0.429305
   6 H :    0.087064
   7 H :    0.110493
   8 H :    0.113202
   9 H :    0.086935
  10 H :    0.092097
  11 H :    0.065583
  12 H :    0.092736
  13 H :    0.076474
  14 H :    0.105374
  15 H :    0.108148
  16 H :    0.102839
  17 H :    0.291926
Sum of atomic charges:   -0.0000000

--------------------------------
MULLIKEN REDUCED ORBITAL CHARGES
--------------------------------
  0 C s       :     3.108369  s :     3.108369
      pz      :     1.044216  p :     3.173751
      px      :     1.065102
      py      :     1.064433
      dz2     :     0.003934  d :     0.029338
      dxz     :     0.006343
      dyz     :     0.008698
      dx2y2   :     0.002349
      dxy     :     0.008014

  1 C s       :     3.045224  s :     3.045224
      pz      :     1.032255  p :     3.081639
      px      :     1.026743
      py      :     1.022642
      dz2     :     0.004246  d :     0.035176
      dxz     :     0.007800
      dyz     :     0.009658
      dx2y2   :     0.003682
      dxy     :     0.009789

  2 C s       :     3.066508  s :     3.066508
      pz      :     0.969089  p :     2.823104
      px      :     0.985054
      py      :     0.868960
      dz2     :     0.010034  d :     0.069467
      dxz     :     0.012273
      dyz     :     0.017472
      dx2y2   :     0.012648
      dxy     :     0.017040

  3 C s       :     3.060244  s :     3.060244
      pz      :     1.055953  p :     3.085952
      px      :     1.013949
      py      :     1.016051
      dz2     :     0.006159  d :     0.035379
      dxz     :     0.007290
      dyz     :     0.007649
      dx2y2   :     0.004222
      dxy     :     0.010060

  4 C s       :     3.095585  s :     3.095585
      pz      :     1.050259  p :     3.164478
      px      :     1.061673
      py      :     1.052546
      dz2     :     0.005264  d :     0.029353
      dxz     :     0.006790
      dyz     :     0.005741
      dx2y2   :     0.002876
      dxy     :     0.008682

  5 O s       :     3.795185  s :     3.795185
      pz      :     1.351228  p :     4.618772
      px      :     1.748715
      py      :     1.518829
      dz2     :     0.002973  d :     0.015348
      dxz     :     0.002646
      dyz     :     0.004311
      dx2y2   :     0.002800
      dxy     :     0.002618

  6 H s       :     0.912936  s :     0.912936

  7 H s       :     0.889507  s :     0.889507

  8 H s       :     0.886798  s :     0.886798

  9 H s       :     0.913065  s :     0.913065

 10 H s       :     0.907903  s :     0.907903

 11 H s       :     0.934417  s :     0.934417

 12 H s       :     0.907264  s :     0.907264

 13 H s       :     0.923526  s :     0.923526

 14 H s       :     0.894626  s :     0.894626

 15 H s       :     0.891852  s :     0.891852

 16 H s       :     0.897161  s :     0.897161

 17 H s       :     0.708074  s :     0.708074


------------------------
MULLIKEN OVERLAP CHARGES
------------------------
B(  0-C ,  1-C ) :   0.8298 B(  0-C ,  2-C ) :  -0.0785 B(  0-C ,  6-H ) :   0.7268 
B(  0-C ,  7-H ) :   0.7370 B(  0-C ,  8-H ) :   0.7504 B(  0-C , 10-H ) :  -0.0645 
B(  1-C ,  2-C ) :   0.6948 B(  1-C ,  3-C ) :  -0.1426 B(  1-C ,  5-O ) :  -0.1129 
B(  1-C ,  6-H ) :  -0.0837 B(  1-C ,  9-H ) :   0.6153 B(  1-C , 10-H ) :   0.6910 
B(  1-C , 11-H ) :  -0.0887 B(  1-C , 13-H ) :  -0.0586 B(  2-C ,  3-C ) :   0.7613 
B(  2-C ,  4-C ) :  -0.0747 B(  2-C ,  5-O ) :   0.6744 B(  2-C , 11-H ) :   0.6877 
B(  2-C , 17-H ) :  -0.1061 B(  3-C ,  4-C ) :   0.6847 B(  3-C ,  5-O ) :  -0.1169 
B(  3-C , 11-H ) :  -0.0708 B(  3-C , 12-H ) :   0.6636 B(  3-C , 13-H ) :   0.6632 
B(  3-C , 16-H ) :  -0.0550 B(  4-C , 14-H ) :   0.7043 B(  4-C , 15-H ) :   0.7509 
B(  4-C , 16-H ) :   0.7606 B(  5-O , 11-H ) :  -0.0650 B(  5-O , 17-H ) :   0.5381 
B(  6-H ,  8-H ) :  -0.0579 B( 12-H , 13-H ) :  -0.0701 B( 15-H , 16-H ) :  -0.0548 



                     *******************************
                     * LOEWDIN POPULATION ANALYSIS *
                     *******************************

----------------------
LOEWDIN ATOMIC CHARGES
----------------------
   0 C :   -0.346877
   1 C :   -0.249521
   2 C :   -0.053759
   3 C :   -0.249957
   4 C :   -0.341255
   5 O :   -0.329006
   6 H :    0.109556
   7 H :    0.125354
   8 H :    0.118216
   9 H :    0.118519
  10 H :    0.121591
  11 H :    0.111022
  12 H :    0.120601
  13 H :    0.110011
  14 H :    0.122168
  15 H :    0.116644
  16 H :    0.119620
  17 H :    0.277072

-------------------------------
LOEWDIN REDUCED ORBITAL CHARGES
-------------------------------
  0 C s       :     2.942296  s :     2.942296
      pz      :     1.107193  p :     3.333435
      px      :     1.114323
      py      :     1.111919
      dz2     :     0.008816  d :     0.071145
      dxz     :     0.015826
      dyz     :     0.021840
      dx2y2   :     0.004716
      dxy     :     0.019948

  1 C s       :     2.916657  s :     2.916657
      pz      :     1.083316  p :     3.246042
      px      :     1.076008
      py      :     1.086718
      dz2     :     0.009801  d :     0.086821
      dxz     :     0.019771
      dyz     :     0.024776
      dx2y2   :     0.007538
      dxy     :     0.024935

  2 C s       :     2.885931  s :     2.885931
      pz      :     1.024281  p :     3.010008
      px      :     1.039873
      py      :     0.945854
      dz2     :     0.021228  d :     0.157820
      dxz     :     0.029036
      dyz     :     0.039843
      dx2y2   :     0.024778
      dxy     :     0.042935

  3 C s       :     2.916588  s :     2.916588
      pz      :     1.089680  p :     3.245977
      px      :     1.076738
      py      :     1.079558
      dz2     :     0.013599  d :     0.087393
      dxz     :     0.019162
      dyz     :     0.020088
      dx2y2   :     0.008581
      dxy     :     0.025963

  4 C s       :     2.942303  s :     2.942303
      pz      :     1.115194  p :     3.327693
      px      :     1.113115
      py      :     1.099384
      dz2     :     0.012158  d :     0.071259
      dxz     :     0.016308
      dyz     :     0.014857
      dx2y2   :     0.005916
      dxy     :     0.022019

  5 O s       :     3.544817  s :     3.544817
      pz      :     1.418651  p :     4.757583
      px      :     1.759311
      py      :     1.579621
      dz2     :     0.005499  d :     0.026605
      dxz     :     0.004839
      dyz     :     0.007948
      dx2y2   :     0.004213
      dxy     :     0.004106

  6 H s       :     0.890444  s :     0.890444

  7 H s       :     0.874646  s :     0.874646

  8 H s       :     0.881784  s :     0.881784

  9 H s       :     0.881481  s :     0.881481

 10 H s       :     0.878409  s :     0.878409

 11 H s       :     0.888978  s :     0.888978

 12 H s       :     0.879399  s :     0.879399

 13 H s       :     0.889989  s :     0.889989

 14 H s       :     0.877832  s :     0.877832

 15 H s       :     0.883356  s :     0.883356

 16 H s       :     0.880380  s :     0.880380

 17 H s       :     0.722928  s :     0.722928


---------------------------------
LOEWDIN BOND ORDERS (THRESH 0.050000)
---------------------------------
B(  0-C ,  1-C ) :   1.1269 B(  0-C ,  6-H ) :   0.9357 B(  0-C ,  7-H ) :   0.9366 
B(  0-C ,  8-H ) :   0.9374 B(  1-C ,  2-C ) :   1.0700 B(  1-C ,  5-O ) :   0.0722 
B(  1-C ,  9-H ) :   0.8971 B(  1-C , 10-H ) :   0.9009 B(  2-C ,  3-C ) :   1.0684 
B(  2-C ,  4-C ) :   0.0553 B(  2-C ,  5-O ) :   1.2033 B(  2-C , 11-H ) :   0.8795 
B(  3-C ,  4-C ) :   1.1242 B(  3-C ,  5-O ) :   0.0779 B(  3-C , 12-H ) :   0.9010 
B(  3-C , 13-H ) :   0.8997 B(  4-C , 14-H ) :   0.9370 B(  4-C , 15-H ) :   0.9382 
B(  4-C , 16-H ) :   0.9392 B(  5-O , 17-H ) :   0.8882 

------------------------------------------
LOEWDIN REDUCED ORBITAL POPULATIONS PER MO
-------------------------------------------
THRESHOLD FOR PRINTING IS 0.1%%
                      0         1         2         3         4         5   
                 -18.73553  -9.93112  -9.88249  -9.88235  -9.88098  -9.87769
                   2.00000   2.00000   2.00000   2.00000   2.00000   2.00000
                  --------  --------  --------  --------  --------  --------
 0 C  s               0.0       0.0       0.0       0.1      99.6       0.0
 1 C  s               0.0       0.0       0.8      98.8       0.0       0.0
 2 C  s               0.0      99.6       0.0       0.0       0.0       0.0
 3 C  s               0.0       0.0      98.8       0.8       0.0       0.0
 4 C  s               0.0       0.0       0.0       0.0       0.0      99.7
 5 O  s              99.9       0.0       0.0       0.0       0.0       0.0

                      6         7         8         9        10        11   
                  -0.91330  -0.71494  -0.67514  -0.60471  -0.55652  -0.50963
                   2.00000   2.00000   2.00000   2.00000   2.00000   2.00000
                  --------  --------  --------  --------  --------  --------
 0 C  s               0.1       8.1      16.9      12.2       5.4       3.9
 0 C  pz              0.0       0.7       0.7       0.4       2.4       2.9
 0 C  px              0.0       0.6       0.1       0.3       0.3       1.4
 0 C  py              0.1       0.3       0.3       0.3       0.7       1.1
 1 C  s               0.9      14.5      13.4       1.1       7.0       6.0
 1 C  pz              0.3       0.6       0.7       1.2       3.2       1.7
 1 C  px              0.4       0.3       1.2       4.6       0.2       0.0
 1 C  py              0.6       0.0       0.5       3.5       0.7       0.3
 1 C  dxy             0.0       0.0       0.0       0.0       0.0       0.1
 2 C  s              10.7      10.0       0.0      14.4       0.0       3.9
 2 C  pz              2.9       0.2       1.0       1.5       5.0       1.2
 2 C  px              1.0       0.1       5.7       0.1       5.8       0.7
 2 C  py              4.5       5.6       0.0       0.0       0.0       9.4
 2 C  dxz             0.1       0.1       0.0       0.0       0.0       0.1
 2 C  dyz             0.4       0.1       0.0       0.0       0.1       0.0
 2 C  dx2y2           0.1       0.0       0.0       0.0       0.0       0.1
 2 C  dxy             0.1       0.0       0.1       0.0       0.1       0.0
 3 C  s               0.9      15.5      12.2       0.1      10.0       4.1
 3 C  pz              0.1       1.1       0.2       0.1       2.9       3.4
 3 C  px              0.7       0.1       0.9       2.8       0.7       0.0
 3 C  py              0.6       0.2       0.7       4.3       3.1       0.2
 3 C  dxz             0.0       0.0       0.0       0.1       0.0       0.0
 3 C  dyz             0.0       0.0       0.0       0.1       0.1       0.0
 4 C  s               0.1       9.2      14.1      11.2      10.2       1.8
 4 C  pz              0.0       0.3       0.4       0.0       1.9       1.7
 4 C  px              0.0       0.5       0.1       0.2       0.6       0.7
 4 C  py              0.0       0.9       0.6       0.4       2.6       0.9
 5 O  s              57.6       4.2       0.0       1.9       0.3       0.0
 5 O  pz              0.2       1.1       0.0       5.9       0.1      16.8
 5 O  px              0.0       0.3       0.1       1.7       0.6       4.8
 5 O  py              3.2       0.4       0.0       1.3       0.1       0.8
 5 O  dyz             0.0       0.0       0.0       0.1       0.0       0.2
 6 H  s               0.0       1.4       3.6       3.9       2.5       2.0
 7 H  s               0.0       1.4       3.7       3.8       1.9       2.1
 8 H  s               0.0       1.8       3.2       3.6       2.7       1.9
 9 H  s               0.1       3.1       2.5       0.3       3.4       3.6
10 H  s               0.2       2.4       3.0       0.4       3.3       2.3
11 H  s               1.3       2.0       0.0       5.1       0.1       4.8
12 H  s               0.2       2.5       2.8       0.0       4.3       1.4
13 H  s               0.2       3.1       2.2       0.0       4.8       3.8
14 H  s               0.0       1.6       3.0       3.6       3.8       0.8
15 H  s               0.0       2.0       2.6       3.1       4.5       0.8
16 H  s               0.0       1.8       2.9       2.7       4.3       1.7
17 H  s              12.1       1.4       0.0       3.3       0.0       6.1

                     12        13        14        15        16        17   
                  -0.43969  -0.42339  -0.40391  -0.37715  -0.36699  -0.34468
                   2.00000   2.00000   2.00000   2.00000   2.00000   2.00000
                  --------  --------  --------  --------  --------  --------
 0 C  s               0.0       0.2       0.0       0.0       0.0       0.0
 0 C  pz              4.1       1.4       3.8       7.0       1.9       0.4
 0 C  px              3.0       1.7       4.4       0.6      19.9       6.3
 0 C  py              0.2       4.5      14.6       1.8       1.3       2.6
 1 C  s               1.1       0.0       0.0       0.3       0.3       0.1
 1 C  pz              3.6       6.4       2.0       3.0       1.4       1.8
 1 C  px             12.9       0.0       1.3       2.8       5.2       0.7
 1 C  py              0.2       4.8      15.6       3.8       0.9       0.1
 1 C  dx2y2           0.0       0.0       0.1       0.0       0.1       0.0
 2 C  s               2.1       0.1       0.4       0.1       0.0       2.1
 2 C  pz              0.1       5.7       1.0      20.6       0.2       0.0
 2 C  px              0.1      13.7       0.2       0.5       2.1       0.7
 2 C  py             11.4       0.1       1.2       0.4       0.0       0.4
 2 C  dz2             0.0       0.0       0.0       0.0       0.0       0.3
 2 C  dx2y2           0.0       0.0       0.4       0.0       0.0       0.1
 2 C  dxy             0.0       0.0       0.0       0.0       0.1       0.1
 3 C  s               1.1       0.0       0.0       0.1       0.3       0.5
 3 C  pz              5.3       7.9       1.7       1.0       0.5       3.3
 3 C  px             11.5       2.9       2.2       1.4       6.3       2.4
 3 C  py              0.4       5.0       1.7      10.1       1.5       5.5
 3 C  dyz             0.0       0.0       0.0       0.0       0.0       0.2
 4 C  s               0.0       0.1       0.0       0.1       0.0       0.0
 4 C  pz              3.2       3.0       0.5      13.1       0.7       2.3
 4 C  px              3.4       0.0       3.4       1.4      20.7      11.8
 4 C  py              0.5       6.0       4.0       0.0       2.3      16.6
 4 C  dxz             0.0       0.0       0.0       0.0       0.0       0.3
 4 C  dyz             0.0       0.0       0.0       0.1       0.1       0.1
 5 O  s               0.8       0.6       1.5       0.7       0.0       2.8
 5 O  pz              8.5       5.4       3.4       0.1       0.1       7.6
 5 O  px              2.4       0.0       3.9       4.0       0.2       0.1
 5 O  py              0.2       5.7       0.4       7.3       0.0       5.1
 6 H  s               0.3       0.6       9.0       1.2       0.6       0.2
 7 H  s               1.0       2.8       0.2       0.1       5.8       5.3
 8 H  s               1.9       0.0       4.1       1.8       7.2       0.4
 9 H  s               0.2       3.7       6.6       0.0       0.3       0.2
10 H  s               6.6       0.1       1.9       0.2       2.4       0.0
11 H  s               0.2       4.8       0.4       6.4       0.0       1.1
12 H  s               6.6       1.4       0.7       0.2       2.8       0.0
13 H  s               0.4       5.2       1.7       2.0       0.5       0.2
14 H  s               1.2       1.5       0.0       0.3       5.0      14.5
15 H  s               1.7       1.0       3.1       0.0       7.8       0.1
16 H  s               0.1       1.6       1.8       6.4       1.0       1.2
17 H  s               3.2       1.5       2.1       0.4       0.0       1.8

                     18        19        20        21        22        23   
                  -0.33126  -0.32523  -0.30404  -0.29877  -0.28792  -0.26053
                   2.00000   2.00000   2.00000   2.00000   2.00000   2.00000
                  --------  --------  --------  --------  --------  --------
 0 C  s               0.0       0.2       0.1       0.1       0.1       0.1
 0 C  pz             12.9       3.9       4.2       4.2       3.2       1.1
 0 C  px              2.7       1.1       9.4       0.1       2.2       1.4
 0 C  py              6.2      14.2       3.5       1.2       0.7       1.7
 0 C  dz2             0.1       0.1       0.1       0.0       0.0       0.1
 0 C  dxz             0.1       0.2       0.1       0.0       0.0       0.0
 0 C  dyz             0.0       0.0       0.6       0.0       0.1       0.0
 0 C  dxy             0.3       0.0       0.0       0.1       0.2       0.0
 1 C  s               0.1       0.1       0.0       0.0       0.0       0.3
 1 C  pz              4.2       8.1       5.5       3.2       5.9       0.0
 1 C  px              0.2       0.5       9.1       0.6       8.5       2.2
 1 C  py              0.3       7.3       6.3       0.3       1.1       5.3
 1 C  dz2             0.1       0.0       0.1       0.0       0.0       0.0
 1 C  dxz             0.0       0.2       0.1       0.0       0.2       0.2
 1 C  dyz             0.0       0.0       0.8       0.1       0.1       0.0
 1 C  dxy             0.3       0.0       0.0       0.1       0.4       0.0
 2 C  s               0.7       0.1       0.1       0.1       0.0       0.1
 2 C  pz              0.2       0.1       1.4       2.8       2.9       3.3
 2 C  px              3.5       4.8       0.6       1.0       6.6       0.6
 2 C  py              1.4       0.1       0.6       0.3       0.0      11.7
 2 C  dz2             0.1       0.0       0.0       0.0       0.0       0.4
 2 C  dxz             0.0       0.1       0.0       0.0       0.0       0.9
 2 C  dyz             0.0       0.0       0.2       0.4       0.0       0.0
 2 C  dx2y2           0.0       0.0       0.3       0.0       0.0       0.0
 2 C  dxy             0.1       0.0       0.0       0.1       0.1       0.0
 3 C  s               0.1       0.0       0.0       0.0       0.0       0.3
 3 C  pz              4.7       5.1       0.0       7.5       6.2       1.9
 3 C  px              0.1       0.3       0.6       9.9       7.0       1.1
 3 C  py              7.0       0.0       2.7       1.4       2.7       4.8
 3 C  dz2             0.0       0.1       0.0       0.4       0.0       0.1
 3 C  dxz             0.0       0.1       0.0       0.1       0.1       0.2
 3 C  dyz             0.0       0.0       0.0       0.4       0.1       0.0
 3 C  dxy             0.2       0.1       0.1       0.0       0.6       0.0
 4 C  s               0.1       0.0       0.0       0.1       0.1       0.0
 4 C  pz              4.6      15.5       0.1       5.1       3.3       0.0
 4 C  px              0.3       0.0       2.0       7.5       1.7       0.5
 4 C  py              9.5       1.6       3.9       0.1       2.5       1.6
 4 C  dz2             0.0       0.1       0.0       0.2       0.0       0.1
 4 C  dxz             0.0       0.2       0.0       0.1       0.0       0.0
 4 C  dyz             0.0       0.0       0.0       0.2       0.0       0.0
 4 C  dxy             0.2       0.1       0.1       0.0       0.3       0.0
 5 O  s               0.0       0.5       0.4       1.1       0.0       4.8
 5 O  pz              0.4       0.1       1.5       0.1       1.8       2.1
 5 O  px              3.3       1.5       1.2       0.0       6.8       0.5
 5 O  py              2.5       3.9       0.2      16.4       0.2      31.0
 6 H  s               8.2       0.5       9.5       0.6       0.0       0.1
 7 H  s               9.9       1.9       0.3       0.1       2.1       0.9
 8 H  s               0.5       4.4       5.4       0.9       4.1       0.1
 9 H  s               3.0       0.1      13.4       1.7       0.1       0.7
10 H  s               0.8       3.3       4.9       0.3      10.5       1.1
11 H  s               0.8       1.0       2.4       3.8       0.0      10.3
12 H  s               2.9       0.1       2.1       3.7      10.8       0.9
13 H  s               0.7       3.9       0.4      12.9       0.0       2.6
14 H  s               0.1       4.2       0.3       0.2       1.9       1.1
15 H  s               5.7       0.0       4.0       3.0       4.5       0.1
16 H  s               0.1       9.7       0.6       7.4       0.0       0.4
17 H  s               0.2       0.0       0.5       0.2       0.0       3.1

                     24        25        26        27        28        29   
                  -0.20812   0.02349   0.04092   0.06415   0.07756   0.09175
                   2.00000   0.00000   0.00000   0.00000   0.00000   0.00000
                  --------  --------  --------  --------  --------  --------
 0 C  s               0.0      10.8       0.0       0.9       2.4       3.6
 0 C  pz              0.0       1.7       0.4       1.1       0.2       0.7
 0 C  px              0.2       0.5       0.6       2.8       0.2       3.7
 0 C  py              0.0       0.0       2.6       0.8       2.1       1.6
 0 C  dyz             0.0       0.1       0.0       0.2       0.0       0.0
 0 C  dx2y2           0.0       0.0       0.0       0.0       0.0       0.4
 0 C  dxy             0.1       0.0       0.0       0.2       0.0       0.0
 1 C  s               0.9       1.7       1.8       3.7       1.1       0.8
 1 C  pz              1.3       1.0       1.4       1.2       1.5       0.3
 1 C  px              2.8       0.2       0.1       0.6       0.1       2.4
 1 C  py              2.6       0.0       0.5       0.0       1.2       4.8
 1 C  dz2             0.0       0.0       0.0       0.3       0.0       0.0
 1 C  dxz             0.0       0.1       0.0       0.1       0.0       0.3
 1 C  dyz             0.0       0.1       0.0       0.0       0.1       0.2
 1 C  dx2y2           0.0       0.0       0.1       0.2       0.0       0.2
 1 C  dxy             0.1       0.1       0.1       0.1       0.0       0.1
 2 C  s               0.0       0.3       0.8       2.2       1.1       0.0
 2 C  pz              1.1       0.6       0.9       5.6       0.5       1.1
 2 C  px              4.1       0.2       0.2       1.7       0.1       0.6
 2 C  py              0.0       0.5       1.7       0.6       0.4       1.4
 2 C  dz2             0.1       0.1       0.0       0.2       0.0       0.0
 2 C  dxz             0.0       0.0       0.4       0.0       0.0       0.3
 2 C  dyz             0.4       0.1       0.1       0.8       0.1       0.2
 2 C  dx2y2           0.1       0.0       0.0       0.0       0.3       0.5
 2 C  dxy             1.2       0.1       0.0       0.1       0.0       0.0
 3 C  s               0.8       2.9       1.3       1.5       4.7       1.4
 3 C  pz              1.3       1.8       0.1       2.7       1.2       0.1
 3 C  px              3.0       0.0       0.3       1.1       3.1       0.0
 3 C  py              2.1       0.1       0.6       0.5       1.4       0.6
 3 C  dz2             0.0       0.0       0.0       0.4       0.0       0.0
 3 C  dxz             0.0       0.1       0.1       0.0       0.1       0.1
 3 C  dyz             0.1       0.0       0.1       0.3       0.2       0.0
 3 C  dxy             0.0       0.0       0.1       0.1       0.3       0.2
 4 C  s               0.1       1.2      12.6       1.4       0.3       2.3
 4 C  pz              0.0       0.3       0.7       1.8       0.2       2.5
 4 C  px              0.7       0.0       0.2       0.0       7.4       0.1
 4 C  py              0.7       1.3       0.4       0.6       0.6       0.6
 4 C  dyz             0.0       0.1       0.1       0.0       0.4       0.0
 4 C  dx2y2           0.0       0.0       0.0       0.0       0.1       0.0
 4 C  dxy             0.1       0.0       0.0       0.0       0.1       0.1
 5 O  s               0.0       3.6       2.7       1.1       0.1       2.0
 5 O  pz             15.7       2.9       1.5       0.0       1.4       0.4
 5 O  px             56.4       1.4       0.3       0.0       0.0       0.1
 5 O  py              0.1       1.2       0.9       0.6       0.4       1.7
 6 H  s               0.3      12.1       4.0       0.2       0.0       0.2
 7 H  s               0.4       6.1       0.3       1.5       5.6      19.9
 8 H  s               0.0       5.2       3.0      10.7       3.6       0.1
 9 H  s               1.1       2.3       6.5       4.1       8.0       3.7
10 H  s               0.4       2.1       0.8       7.9       0.2      17.3
11 H  s               0.0       0.7       5.6      18.8       2.7       0.6
12 H  s               0.4       2.0       2.4       0.1      22.4       2.8
13 H  s               0.0       5.4       0.1      13.5       1.3       1.0
14 H  s               0.8       0.7       7.4       4.1       8.6       0.2
15 H  s               0.0       3.3       7.2       1.4       9.2       5.0
16 H  s               0.1       0.4      11.7       1.2       2.3       6.4
17 H  s               0.0      24.1      16.5       0.9       2.2       7.2

                     30        31        32        33        34        35   
                   0.10051   0.10699   0.12094   0.13213   0.14219   0.15188
                   0.00000   0.00000   0.00000   0.00000   0.00000   0.00000
                  --------  --------  --------  --------  --------  --------
 0 C  s               1.6       4.7       1.3       1.4       2.7       0.3
 0 C  pz              1.7       2.1       3.2       0.2       1.7       2.9
 0 C  px              0.5       0.8       8.4       0.1       0.9       0.9
 0 C  py              2.3       2.6       0.2       0.5       1.5       0.4
 0 C  dz2             0.0       0.1       0.1       0.0       0.0       0.0
 0 C  dxz             0.0       0.7       0.0       0.0       0.3       0.0
 0 C  dyz             0.3       0.0       0.0       0.1       0.1       0.0
 0 C  dx2y2           0.0       0.0       0.0       0.1       0.1       0.5
 0 C  dxy             0.2       0.2       0.6       0.1       0.0       0.3
 1 C  s               4.8       2.4       2.3       0.1       1.1       3.3
 1 C  pz              0.5       0.5       0.1       0.2       0.2       2.6
 1 C  px              1.1       0.3       1.8       3.9       0.8       1.9
 1 C  py              0.2       3.1       1.4       1.0       0.0       2.2
 1 C  dz2             0.3       0.5       0.2       0.1       0.0       0.1
 1 C  dxz             0.0       0.3       0.0       0.0       0.0       0.2
 1 C  dyz             0.5       0.0       0.1       0.2       0.1       0.2
 1 C  dxy             0.0       0.0       0.0       0.0       0.0       0.1
 2 C  s               0.6       0.3       0.5       1.3       3.1       0.8
 2 C  pz              3.7       0.0       0.3       0.9       2.6       1.2
 2 C  px              0.5       0.3       0.2       0.7       2.6       0.6
 2 C  py              0.5       0.6       0.9       0.8       0.3       3.0
 2 C  dxz             0.0       0.0       0.0       0.0       0.0       0.2
 2 C  dyz             0.1       0.1       0.0       0.7       0.1       0.5
 2 C  dx2y2           0.3       0.2       0.2       0.1       0.1       0.0
 2 C  dxy             0.3       0.0       0.0       0.0       0.0       0.2
 3 C  s               2.4       1.9       1.3       0.0       1.0       0.9
 3 C  pz              1.1       2.0       0.1       0.8       0.6       0.9
 3 C  px              0.1       0.1       0.5      10.1       0.0       0.4
 3 C  py              0.4       1.7       0.0       7.3       1.2       0.2
 3 C  dz2             0.4       0.2       0.1       0.2       0.1       0.1
 3 C  dxz             0.3       0.5       0.1       0.1       0.2       0.5
 3 C  dyz             0.0       0.2       0.0       0.2       0.5       0.0
 3 C  dx2y2           0.0       0.0       0.1       0.0       0.0       0.2
 3 C  dxy             0.0       0.0       0.0       0.1       0.0       0.1
 4 C  s               3.9       2.3       1.9       0.3       0.6       3.0
 4 C  pz              3.9       3.5       0.2       0.6       6.5       0.4
 4 C  px              0.3       0.2       6.0       0.9       1.4       4.5
 4 C  py              1.6       2.9       0.9       0.6       2.3       5.5
 4 C  dz2             0.0       0.1       0.2       0.0       0.0       0.4
 4 C  dxz             0.1       0.8       0.0       0.1       0.6       0.1
 4 C  dyz             0.2       0.0       0.0       0.1       0.0       0.4
 4 C  dx2y2           0.0       0.0       0.0       0.7       0.0       0.0
 4 C  dxy             0.2       0.0       0.2       0.0       0.1       0.2
 5 O  s               0.0       0.4       0.0       0.3       0.3       1.1
 5 O  pz              0.1       0.1       0.0       0.4       0.9       0.0
 5 O  px              1.0       0.0       0.0       0.2       0.0       0.1
 5 O  py              0.4       0.3       0.2       0.1       0.0       0.3
 6 H  s               2.4      18.1       0.1       0.2       8.7       4.7
 7 H  s               3.4       1.2      24.7       1.5       1.0       3.4
 8 H  s               6.5       1.9       5.1       1.2       2.2       1.6
 9 H  s               2.2      12.1       0.3       2.4       0.1      20.0
10 H  s              11.8       0.6      11.8       5.1       2.1       0.4
11 H  s               9.1       0.0       1.4       4.3      17.7       1.8
12 H  s               1.2       0.5       2.8      27.2       3.6       0.2
13 H  s               4.7       8.4       0.5      17.1       0.9       0.5
14 H  s              17.0       3.0      10.0       0.1      11.2       2.5
15 H  s               2.9       0.4       3.8       0.8       0.7      20.3
16 H  s               1.1      15.7       5.4       4.1      13.2       2.0
17 H  s               1.0       1.1       0.2       0.1       3.4       0.7

                     36        37        38        39        40        41   
                   0.16604   0.17853   0.19969   0.20340   0.20971   0.25088
                   0.00000   0.00000   0.00000   0.00000   0.00000   0.00000
                  --------  --------  --------  --------  --------  --------
 0 C  s               0.1       0.9       0.1       0.1       0.1       0.4
 0 C  pz              0.2       9.7       2.4       0.6       0.3       6.9
 0 C  px              4.0       6.3       1.8       0.7       0.7       1.5
 0 C  py              9.5       5.1       0.1       0.3       0.3       3.5
 0 C  dz2             0.3       0.0       0.3       0.7       0.0       1.2
 0 C  dxz             0.1       1.9       0.0       0.3       0.0       1.1
 0 C  dyz             0.4       1.7       0.7       0.5       0.0       1.0
 0 C  dxy             0.3       0.9       0.0       0.3       0.0       0.3
 1 C  s               0.0       4.1       0.2       4.2       0.2       0.2
 1 C  pz              0.0      15.5       0.2       7.9       0.8       2.8
 1 C  px              1.7       0.1       7.6       5.2       0.7       6.0
 1 C  py              1.1       2.2       2.9       4.7       0.0       6.6
 1 C  dz2             0.0       0.2       0.0       0.0       0.0       1.3
 1 C  dxz             0.6       0.6       1.0       1.0       0.0       0.7
 1 C  dyz             0.0       1.4       0.8       0.2       0.4       0.3
 1 C  dx2y2           0.0       0.0       1.2       0.0       0.9       0.0
 1 C  dxy             0.1       1.8       0.3       4.1       0.1       0.1
 2 C  s               0.3       3.4       2.1      15.8       0.4       1.8
 2 C  pz              0.2       4.1       0.4       1.3       0.8      11.7
 2 C  px              0.1       2.9       0.4       9.9       4.0       9.0
 2 C  py              2.5       2.2      14.3       0.2      12.7       0.4
 2 C  dz2             0.0       0.3       0.0       2.0       0.4       0.0
 2 C  dxz             0.6       0.4       2.1       0.0       0.4       0.1
 2 C  dyz             0.0       0.1       0.1       1.5       1.9       0.1
 2 C  dx2y2           0.1       0.1       0.7       0.0       0.5       0.1
 2 C  dxy             0.0       2.4       0.2       0.0       0.0       2.4
 3 C  s               2.2       3.0       1.0       1.3       4.5       0.9
 3 C  pz              1.6       3.0       0.1       2.4      14.9       2.0
 3 C  px              2.5       2.3       7.0       0.1       0.4       7.2
 3 C  py              0.5       0.1       7.6       1.2       2.0       7.5
 3 C  dz2             0.1       0.0       0.0       0.2       0.3       0.3
 3 C  dxz             0.0       0.2       1.7       0.0       0.2       1.4
 3 C  dyz             0.6       0.1       0.6       0.4       0.7       1.6
 3 C  dx2y2           0.5       0.1       1.6       0.2       0.0       0.0
 3 C  dxy             0.1       1.2       0.0       1.4       1.7       1.3
 4 C  s               0.1       0.1       0.6       0.1       1.1       0.2
 4 C  pz              0.3       0.2       5.2       2.5       2.6       1.8
 4 C  px              4.5       1.1       2.4       2.4       3.6       0.1
 4 C  py              0.1       1.0       4.5       2.3      11.4       0.8
 4 C  dz2             0.1       0.3       0.0       0.2       0.1       0.9
 4 C  dxz             0.0       0.1       0.1       0.1       1.4       0.1
 4 C  dyz             0.2       0.0       1.8       0.3       1.1       0.5
 4 C  dx2y2           0.2       0.1       0.4       0.0       0.4       0.0
 4 C  dxy             0.1       0.4       0.6       1.0       1.5       0.0
 5 O  s               1.4       1.6       0.0       0.7       1.2       0.3
 5 O  pz              0.4       0.6       3.5       2.2       5.7       0.1
 5 O  px              0.1       1.1       2.1       0.5       0.0       1.0
 5 O  py              0.1       1.4       0.1       5.0       1.2       0.9
 5 O  dz2             0.1       0.1       0.0       0.0       0.0       0.3
 5 O  dxz             0.0       0.1       0.0       0.0       0.0       0.2
 5 O  dyz             0.0       0.1       0.1       0.2       0.3       0.0
 5 O  dx2y2           0.0       0.0       0.1       0.5       0.1       0.0
 5 O  dxy             0.0       0.1       0.1       0.1       0.0       0.1
 6 H  s              10.2       1.4       3.9       0.9       0.3       0.7
 7 H  s               0.1       1.2       0.2       0.3       1.1       1.2
 8 H  s              21.1       0.7       1.0       0.1       0.1       1.5
 9 H  s               1.9       1.7       0.1       1.5       2.1       0.2
10 H  s               3.4       3.9       0.1       1.8       2.7       0.3
11 H  s               0.6       2.0       3.4       1.0       0.2       0.3
12 H  s               2.5       1.2       0.6       0.3       0.6       1.1
13 H  s               7.3       0.1       0.3       2.5       3.0       0.6
14 H  s               3.6       0.6       0.5       1.8       1.0       2.2
15 H  s               5.3       0.2       0.1       0.7       3.7       0.6
16 H  s               1.4       0.4       1.6       1.2       0.3       2.2
17 H  s               4.8       0.0       6.7       1.0       2.6       0.1

                     42        43        44        45        46        47   
                   0.37653   0.40389   0.40825   0.41967   0.44175   0.45184
                   0.00000   0.00000   0.00000   0.00000   0.00000   0.00000
                  --------  --------  --------  --------  --------  --------
 0 C  s               2.0       1.0       1.7       0.2       0.2       0.6
 0 C  pz              2.0      14.0       3.1      11.8       0.7       1.3
 0 C  px             14.5       0.4       0.2       3.8       2.0       2.7
 0 C  py              0.9       7.7      16.9       0.3       5.1       0.2
 0 C  dz2             0.0       0.3       0.8       0.1       0.1       0.2
 0 C  dxz             0.1       0.7       3.0       0.0       0.4       0.0
 0 C  dyz             2.4       0.0       1.2       0.0       1.5       0.3
 0 C  dx2y2           0.2       0.1       0.8       0.2       0.0       0.1
 0 C  dxy             0.5       2.9       0.2       2.5       0.0       0.1
 1 C  s               1.5       0.3       0.4       0.2       0.0       2.7
 1 C  pz              2.3       6.4       1.2       5.7       0.5       2.4
 1 C  px              0.5       5.2       0.2       0.1       1.1      13.8
 1 C  py              3.9       1.5       0.8       0.0       0.8       3.3
 1 C  dz2             0.1       0.6       0.4       1.0       0.1       0.0
 1 C  dxz             2.4       0.1       0.1       0.0       0.6       0.7
 1 C  dyz             0.0       2.5       0.7       0.3       1.0       0.0
 1 C  dx2y2           0.0       0.1       0.2       0.0       0.0       0.2
 1 C  dxy             1.4       0.0       0.7       0.1       0.0       0.3
 2 C  s               1.2       0.4       1.7       0.4       1.2       1.6
 2 C  pz              1.5       0.7       1.1       3.3       2.9       6.0
 2 C  px              0.0       4.9       0.2       3.6       3.6       3.4
 2 C  py              0.0       0.6       4.5       0.1       8.1       5.6
 2 C  dz2             0.0       0.6       0.9       0.0       0.0       0.0
 2 C  dxz             0.9       0.2       1.5       0.0       0.3       0.0
 2 C  dyz             0.4       0.1       0.2       0.0       0.2       0.4
 2 C  dx2y2           0.3       0.2       0.0       0.0       0.0       0.0
 2 C  dxy             0.2       0.1       0.2       0.1       0.3       2.4
 3 C  s               1.7       0.7       0.1       0.0       0.8       0.1
 3 C  pz              2.5       8.1       0.4       6.3       0.2       0.9
 3 C  px              3.8       0.3       4.7       0.0       3.3       2.2
 3 C  py              3.8       0.5       1.7       0.6       2.6       5.4
 3 C  dz2             0.9       0.4       0.0       0.0       0.6       0.0
 3 C  dxz             0.5       1.1       0.1       0.5       0.5       1.1
 3 C  dyz             0.0       1.3       1.6       0.7       0.0       0.5
 3 C  dx2y2           0.0       0.0       0.0       0.7       0.0       0.9
 3 C  dxy             2.2       0.5       0.0       0.0       0.0       0.9
 4 C  s               0.4       0.3       0.2       0.1       0.1       5.1
 4 C  pz              2.7       1.5       7.9       1.4      13.2       1.2
 4 C  px              4.5       0.6       1.1       9.8       0.3       4.9
 4 C  py              0.4       7.5       1.6      10.5       1.3      12.2
 4 C  dz2             0.5       0.8       0.2       1.2       0.8       0.1
 4 C  dxz             0.1       0.5       0.1       0.3       2.4       0.7
 4 C  dyz             1.3       0.0       0.4       0.3       0.7       0.0
 4 C  dx2y2           0.3       0.0       0.0       0.0       0.1       0.3
 4 C  dxy             0.1       0.8       0.4       3.3       1.4       0.2
 5 O  s               0.1       0.0       0.4       0.2       0.1       0.3
 5 O  pz              0.3       0.0       0.1       0.8       1.1       2.0
 5 O  px              0.2       0.6       0.0       0.3       1.6       1.5
 5 O  py              0.0       0.0       1.4       0.1       1.0       1.1
 5 O  dz2             0.0       0.0       0.1       0.0       0.2       0.0
 5 O  dyz             0.1       0.0       0.0       0.2       0.6       0.7
 5 O  dx2y2           0.0       0.0       0.0       0.0       0.1       0.2
 5 O  dxy             0.0       0.0       0.0       0.0       0.4       0.0
 6 H  s               1.8       0.1      10.2       0.9       4.7       1.5
 7 H  s               4.3       0.7       5.0       2.5       0.0       0.4
 8 H  s               2.5       7.2       3.0       4.3       2.3       0.2
 9 H  s               0.3       1.7       3.6       1.0       3.6       2.5
10 H  s               6.9       0.5       0.0       0.1       3.9       0.1
11 H  s               2.0       0.1       6.4       0.5       0.1       0.4
12 H  s               8.9       0.8       0.7       0.3       0.3       0.8
13 H  s               0.9       7.0       0.5       3.2       3.0       0.1
14 H  s               0.8       0.3       0.2       1.0       4.9       1.6
15 H  s               2.1       3.6       0.4      11.9       0.3       1.5
16 H  s               3.4       0.9       2.5       1.4      10.6       0.0
17 H  s               0.8       0.1       1.8       1.7       2.1       0.2

                     48        49        50        51        52        53   
                   0.49630   0.52273   0.54816   0.56050   0.58930   0.59650
                   0.00000   0.00000   0.00000   0.00000   0.00000   0.00000
                  --------  --------  --------  --------  --------  --------
 0 C  s               1.6       0.9       1.6       0.9       6.5       0.5
 0 C  pz              6.4       0.1       3.7       3.0       2.7       0.9
 0 C  px              0.8       0.3       4.6       3.5       4.6       0.4
 0 C  py              3.6       0.7       1.5       4.0       1.1       1.4
 0 C  dz2             0.2       0.0       0.1       0.0       0.1       0.1
 0 C  dxz             0.2       0.0       0.2       0.4       0.0       0.0
 0 C  dyz             1.4       0.0       0.2       1.0       0.0       0.1
 0 C  dx2y2           0.3       0.1       0.1       0.5       0.3       0.1
 0 C  dxy             0.0       0.3       0.8       2.2       0.2       0.2
 1 C  s               0.7       0.5       6.4       1.7       2.7       0.6
 1 C  pz              8.0       0.7       4.4       6.2       1.3       1.6
 1 C  px              0.6       0.3      10.2       4.2      11.2       0.0
 1 C  py              0.7       2.7       0.1       2.2      11.6       5.9
 1 C  dz2             0.3       0.1       0.3       0.3       0.1       0.0
 1 C  dxz             0.1       0.1       0.0       0.3       0.1       0.0
 1 C  dyz             0.2       0.0       0.6       1.3       0.6       0.0
 1 C  dx2y2           1.0       0.0       0.0       0.3       0.2       0.0
 1 C  dxy             1.6       0.1       0.0       0.3       0.4       0.1
 2 C  s               2.2       9.1       1.2       9.0       0.9       2.7
 2 C  pz              0.7       1.0       0.2       4.6       0.3       0.1
 2 C  px              8.6       0.4       0.1       4.3       9.4       0.1
 2 C  py              4.1       4.0      24.2       5.2       2.0       0.5
 2 C  dz2             0.6       0.4       0.0       0.0       0.0       0.0
 2 C  dxz             0.0       0.7       0.0       0.4       0.0       0.0
 2 C  dyz             0.8       0.6       0.0       0.0       0.2       0.1
 2 C  dx2y2           0.0       0.2       0.4       1.1       0.2       0.0
 2 C  dxy             0.6       0.0       0.0       0.0       0.2       0.2
 3 C  s               1.2       0.3       5.8       2.2       2.8       2.2
 3 C  pz              9.6       4.8       3.7       0.7       0.2       3.2
 3 C  px              0.0       1.3      12.2       3.7       1.8      15.8
 3 C  py              0.4       3.2       0.4       3.1       0.3      10.4
 3 C  dz2             0.0       0.1       0.3       0.7       0.3       0.0
 3 C  dxz             0.1       0.3       0.0       0.1       0.1       0.0
 3 C  dyz             0.4       0.0       0.0       0.4       0.7       0.0
 3 C  dx2y2           0.3       0.1       0.1       0.0       0.0       0.0
 3 C  dxy             1.0       0.3       0.1       0.1       0.0       0.0
 4 C  s               0.8       0.1       0.2       0.6       0.0      12.1
 4 C  pz              0.9      13.0       1.8       0.1       0.2       1.2
 4 C  px              6.2       1.5       1.1       5.1       1.2       3.5
 4 C  py              3.2       2.3       1.2       0.1       0.9       6.5
 4 C  dz2             0.2       0.1       0.1       0.5       0.2       0.0
 4 C  dxz             0.2       2.7       0.2       0.6       0.3       0.2
[...]
 3 C  dxy             0.5       1.9       0.4      16.8      10.6       0.7
 4 C  s               0.0       0.2       0.1       0.3       0.8       0.6
 4 C  pz              0.1       0.0       0.1       0.4       0.5       0.2
 4 C  px              0.2       0.1       0.1       0.1       0.4       0.4
 4 C  py              0.1       0.0       0.0       0.4       1.0       0.7
 4 C  dz2             1.6       0.0       1.3       0.1       0.1       2.0
 4 C  dxz             0.7       0.0       0.7       0.9       4.7       0.6
 4 C  dyz             3.1       1.3       4.0       7.3       6.9       2.1
 4 C  dx2y2           3.9       0.1       1.9       1.4       1.1       0.5
 4 C  dxy            13.4       0.5      15.1       1.3       3.6       4.9
 5 O  s               0.0       0.4       0.3       0.0       0.6       0.2
 5 O  pz              0.0       0.0       0.5       0.0       0.1       0.0
 5 O  px              0.0       0.1       0.1       0.0       0.0       0.0
 5 O  py              0.0       0.0       0.3       0.0       0.1       0.2
 5 O  dz2             0.7       0.0       0.3       1.3       1.9       0.5
 5 O  dxz             0.0       1.3       0.2       1.4       0.5       0.0
 5 O  dyz             0.3       0.1       3.9       0.1       3.9       1.1
 5 O  dx2y2           0.3       1.8       0.9       0.8       0.0       6.0
 5 O  dxy             0.0       5.2       0.0       0.0       6.0       4.3
 6 H  s               0.0       0.2       0.2       0.1       0.0       0.1
 7 H  s               1.1       0.2       0.9       0.1       0.1       0.0
 8 H  s               2.1       0.3       0.8       0.1       0.1       0.0
 9 H  s               1.2       1.7       0.2       0.3       0.1       0.1
10 H  s               0.7       0.6       0.1       0.8       0.7       0.0
11 H  s               0.2       0.1       1.1       0.0       0.4       0.8
12 H  s               0.4       2.3       0.1       0.3       0.4       0.0
13 H  s               0.8       2.6       0.0       0.6       0.1       0.0
14 H  s               0.7       0.0       1.5       0.1       0.3       0.0
15 H  s               2.0       0.1       1.0       0.0       0.1       0.1
16 H  s               0.1       0.1       0.1       0.1       0.0       0.2

                    102       103       104       105       106       107   
                   2.54058   2.60632   2.77274   2.92408   2.93639   3.30057
                   0.00000   0.00000   0.00000   0.00000   0.00000   0.00000
                  --------  --------  --------  --------  --------  --------
 0 C  s               0.1       0.8       0.0       0.0       0.0       0.0
 0 C  pz              0.2       0.7       0.0       0.0       0.0       0.0
 0 C  px              0.2       0.5       0.0       0.0       0.0       0.0
 0 C  py              0.2       0.5       0.0       0.0       0.0       0.0
 0 C  dz2             0.7       0.6       0.0       0.0       0.1       0.0
 0 C  dxz             1.4       4.2       0.0       0.0       0.0       0.0
 0 C  dyz             1.5       4.1       0.0       0.1       0.0       0.0
 0 C  dxy             0.1       1.0       0.0       0.0       0.0       0.0
 1 C  s               0.3       0.0       0.0       0.0       0.1       0.0
 1 C  pz              0.2       0.1       0.0       0.1       0.1       0.0
 1 C  px              0.4       2.0       0.1       0.1       0.1       0.0
 1 C  py              0.3       0.9       0.0       0.0       0.0       0.1
 1 C  dz2             0.2       1.5       0.5       0.2       0.1       0.0
 1 C  dxz             2.7      10.0       0.2       0.0       0.0       0.1
 1 C  dyz             2.1      11.9       0.1       0.4       0.0       0.0
 1 C  dx2y2           0.1       0.9       0.4       2.0       0.1       0.0
 1 C  dxy             0.0       0.2       0.0       0.4       1.1       0.1
 2 C  s               0.1       0.0       0.1       0.0       0.0       2.1
 2 C  pz              0.3       0.4       0.9       0.0       0.3       1.0
 2 C  px              1.3       2.3       0.3       0.4       0.0       0.3
 2 C  py              0.0       0.1       0.1       0.1       0.1       2.6
 2 C  dz2             0.3       3.9       5.3       1.2       2.9       0.1
 2 C  dxz             1.5       2.8       3.0       0.6       1.1       1.2
 2 C  dyz             0.1       2.7       0.3       1.9       1.8       6.4
 2 C  dx2y2           0.1       0.2       2.9       3.7       0.6       2.8
 2 C  dxy             1.2      12.5       0.2       7.2       3.6       2.4
 3 C  s               0.4       0.4       0.0       0.0       0.0       0.0
 3 C  pz              0.0       0.4       0.0       0.1       0.0       0.0
 3 C  px              0.8       0.5       0.0       0.4       0.1       0.0
 3 C  py              0.8       0.2       0.1       0.1       0.0       0.1
 3 C  dz2             0.2       0.5       0.0       0.5       0.8       0.2
 3 C  dxz             2.9       1.9       1.3       0.8       1.3       0.0
 3 C  dyz             5.3       0.6       0.3       1.4       0.3       0.1
 3 C  dx2y2           0.4       0.5       0.0       0.3       0.7       0.0
 3 C  dxy             0.3       6.4       0.3       0.0       0.8       0.1
 4 C  s               0.3       0.0       0.1       0.1       0.0       0.0
 4 C  px              0.2       0.1       0.0       0.0       0.0       0.0
 4 C  py              0.4       0.0       0.1       0.1       0.1       0.0
 4 C  dz2             0.4       0.3       0.0       0.0       0.1       0.1
 4 C  dxz             0.4       0.0       0.1       0.1       0.2       0.0
 4 C  dyz             1.3       0.1       0.3       0.3       0.4       0.0
 4 C  dx2y2           0.3       0.0       0.1       0.0       0.1       0.0
 4 C  dxy             1.5       0.0       0.0       0.0       0.0       0.1
 5 O  s               0.0       0.0       0.6       0.7       1.2       4.5
 5 O  pz              0.0       0.0       1.0       0.7       0.1       2.1
 5 O  px              0.0       0.0       0.3       0.2       0.6       0.7
 5 O  py              0.0       0.0       0.6       0.1       0.3       1.9
 5 O  dz2            29.6       6.5       6.9       0.3      39.3       2.1
 5 O  dxz            20.7       3.2       0.4      37.1      19.7       2.7
 5 O  dyz             1.5       1.6      18.6      13.2       0.6      36.5
 5 O  dx2y2           5.1       0.6      48.7       2.0       2.7      15.8
 5 O  dxy            11.3      10.2       4.5      20.1      13.5      12.6
 7 H  s               0.1       0.2       0.0       0.0       0.0       0.0
11 H  s               0.0       0.0       0.1       0.0       0.0       0.1
12 H  s               0.0       0.3       0.0       0.0       0.0       0.0
13 H  s               0.0       0.2       0.0       0.1       0.0       0.0
17 H  s               0.0       0.0       0.7       2.5       4.7       0.8



                      *****************************
                      * MAYER POPULATION ANALYSIS *
                      *****************************

  NA   - Mulliken gross atomic population
  ZA   - Total nuclear charge
  QA   - Mulliken gross atomic charge
  VA   - Mayer's total valence
  BVA  - Mayer's bonded valence
  FA   - Mayer's free valence

  ATOM       NA         ZA         QA         VA         BVA        FA
  0 C      6.3115     6.0000    -0.3115     4.0252     4.0252     0.0000
  1 C      6.1620     6.0000    -0.1620     4.0404     4.0404    -0.0000
  2 C      5.9591     6.0000     0.0409     4.1477     4.1477    -0.0000
  3 C      6.1816     6.0000    -0.1816     4.0732     4.0732    -0.0000
  4 C      6.2894     6.0000    -0.2894     4.0079     4.0079    -0.0000
  5 O      8.4293     8.0000    -0.4293     1.9993     1.9993    -0.0000
  6 H      0.9129     1.0000     0.0871     0.9681     0.9681    -0.0000
  7 H      0.8895     1.0000     0.1105     0.9504     0.9504    -0.0000
  8 H      0.8868     1.0000     0.1132     0.9573     0.9573     0.0000
  9 H      0.9131     1.0000     0.0869     0.9557     0.9557    -0.0000
 10 H      0.9079     1.0000     0.0921     0.9584     0.9584     0.0000
 11 H      0.9344     1.0000     0.0656     0.9523     0.9523    -0.0000
 12 H      0.9073     1.0000     0.0927     0.9569     0.9569    -0.0000
 13 H      0.9235     1.0000     0.0765     0.9651     0.9651    -0.0000
 14 H      0.8946     1.0000     0.1054     0.9492     0.9492    -0.0000
 15 H      0.8919     1.0000     0.1081     0.9591     0.9591    -0.0000
 16 H      0.8972     1.0000     0.1028     0.9570     0.9570    -0.0000
 17 H      0.7081     1.0000     0.2919     0.8952     0.8952    -0.0000

  Mayer bond orders larger than 0.100000
B(  0-C ,  1-C ) :   1.1414 B(  0-C ,  6-H ) :   0.9474 B(  0-C ,  7-H ) :   0.9504 
B(  0-C ,  8-H ) :   0.9455 B(  1-C ,  2-C ) :   1.0628 B(  1-C ,  9-H ) :   0.9090 
B(  1-C , 10-H ) :   0.9186 B(  2-C ,  3-C ) :   1.0804 B(  2-C ,  5-O ) :   1.0381 
B(  2-C , 11-H ) :   0.9017 B(  3-C ,  4-C ) :   1.1377 B(  3-C , 12-H ) :   0.9180 
B(  3-C , 13-H ) :   0.9090 B(  4-C , 14-H ) :   0.9482 B(  4-C , 15-H ) :   0.9465 
B(  4-C , 16-H ) :   0.9537 B(  5-O , 17-H ) :   0.8509 

-------
TIMINGS
-------

Total SCF time: 0 days 0 hours 0 min 5 sec 

Total time                  ....       5.875 sec
Sum of individual times     ....       5.438 sec  ( 92.6%)

SCF preparation             ....       0.176 sec  (  3.0%)
Fock matrix formation       ....       4.458 sec  ( 75.9%)
  Startup                   ....       0.062 sec  (  1.4% of F)
  Split-RI-J                ....       1.220 sec  ( 27.4% of F)
  XC integration            ....       2.698 sec  ( 60.5% of F)
    Basis function eval.    ....       0.867 sec  ( 32.1% of XC)
    Density eval.           ....       0.286 sec  ( 10.6% of XC)
    XC-Functional eval.     ....       0.237 sec  (  8.8% of XC)
    XC-Potential eval.      ....       0.498 sec  ( 18.5% of XC)
Diagonalization             ....       0.000 sec  (  0.0%)
Density matrix formation    ....       0.184 sec  (  3.1%)
Total Energy calculation    ....       0.083 sec  (  1.4%)
Population analysis         ....       0.058 sec  (  1.0%)
Orbital Transformation      ....       0.046 sec  (  0.8%)
Orbital Orthonormalization  ....       0.000 sec  (  0.0%)
DIIS solution               ....       0.360 sec  (  6.1%)
  MO trafo                  ....       0.000 sec  (  0.0 % of DIIS)
  Orb grad                  ....       0.000 sec  (  0.0 % of DIIS)
  Energy W gradient         ....       0.000 sec  (  0.0 % of DIIS)
  DIIS error                ....       0.002 sec  (  0.5 % of DIIS)
  DIIS work                 ....       0.317 sec  ( 88.1 % of DIIS)
  Form Q                    ....       0.000 sec  (  0.0 % of DIIS)
  Form QpQm                 ....       0.000 sec  (  0.0 % of DIIS)
  Exp/Cayley                ....       0.000 sec  (  0.0 % of DIIS)
  Orb update                ....       0.000 sec  (  0.0 % of DIIS)
  Wake-sleep                ....       0.016 sec  (  4.5 % of DIIS)
SOSCF solution              ....       0.073 sec  (  1.2%)
  MO trafo                  ....       0.036 sec  ( 49.0 % of SOSCF)
  Orb grad                  ....       0.002 sec  (  2.2 % of SOSCF)
  Rot update                ....       0.012 sec  ( 16.6 % of SOSCF)
  Step                      ....       0.023 sec  ( 32.2 % of SOSCF)
Finished LeanSCF after   5.9 sec

Maximum memory used throughout the entire LEANSCF-calculation: 10.7 MB


-------------------------------------------------------------------------------
                          DFT DISPERSION CORRECTION                            
                                                                               
                                DFTD4 V3.4.0                                   
-------------------------------------------------------------------------------
The PBE functional is recognized
Active option DFTDOPT                   ...         5   

-------------------------   ----------------
Dispersion correction           -0.013169367
-------------------------   ----------------

------------------   -----------------
gCP correction             0.082858661
------------------   -----------------

-------------------------   --------------------
FINAL SINGLE POINT ENERGY      -272.304671712560
-------------------------   --------------------


------------------------------------------------------------------------------
                              ORCA PROPERTY CALCULATIONS
------------------------------------------------------------------------------

GBWName                                 ... sp.gbw
Number of atoms                         ...     18
Number of basis functions               ...    108
Max core memory                         ...   1024 MB

Electric properties:
Dipole moment                           ... YES
Quadrupole moment                       ...  NO
Static polarizability (Dipole/Dipole)   ...  NO
Static polarizability (Dipole/Quad.)    ...  NO
Static polarizability (Quad./Quad.)     ...  NO
Static polarizability (Velocity)        ...  NO

Atomic electric properties:
Dipole moment                           ...  NO
Quadrupole moment                       ...  NO
Static polarizability                   ...  NO

Choice of electric origin               ... Center of mass
Position of electric origin             ...     0.000003     0.000028     0.000004

General magnetic properties:
Magnetizability                         ...  NO

EPR properties:
g-Tensor (aka g-matrix)                 ...  NO
Zero-Field splitting spin-orbit         ...  NO
Zero-field splitting spin-spin          ...  NO
Hyperfine couplings                     ...  NO (   0 nuclei)
Quadrupole couplings                    ...  NO (   0 nuclei)
Contact density                         ...  NO (   0 nuclei)

NMR properties:
Chemical shifts                         ...  NO (   0 nuclei)
Spin-rotation constants                 ...  NO (   0 nuclei)
Spin-spin couplings                     ...  NO (   0 nuclei,    0 pairs)

Choice of magnetic origin               ... GIAO
Position of magnetic origin             ...     0.000000     0.000000     0.000000

Properties with geometric perturbations:
SCF Hessian                             ...  NO
IR spectrum                             ...  NO
VCD spectrum                            ...  NO
X-ray spectroscopy properties:
SCF XES/XAS/RIXS spectra                ...  NO


-------------
DIPOLE MOMENT
-------------

Method             : SCF
Type of density    : Electron Density
Multiplicity       :   1
Irrep              :   0
Energy             :  -272.3743610066397878 Eh
Relativity type    : 
Basis              : AO
                                X                 Y                 Z
Electronic contribution:     -0.421897234      -4.874177763      -0.397357861
Nuclear contribution   :      0.345386950       5.459238716       0.207496086
                        -----------------------------------------
Total Dipole Moment    :     -0.076510284       0.585060953      -0.189861775
                        -----------------------------------------
Magnitude (a.u.)       :      0.619836782
Magnitude (Debye)      :      1.575499892



--------------------
Rotational spectrum 
--------------------
 
Rotational constants in cm-1:             0.130776             0.093636             0.066543 
Rotational constants in MHz :          3920.563357          2807.141039          1994.909236 

Dipole components along the rotational axes: 
x,y,z [a.u.] :     0.106051     0.538910    -0.287275 
x,y,z [Debye]:     0.269561     1.369800    -0.730195 

 

Dipole moment calculation done in   0.0 sec 

Maximum memory used throughout the entire PROP-calculation: 6.7 MB

--------------------------------
SUGGESTED CITATIONS FOR THIS RUN
--------------------------------

Below you find a list of papers that are relevant to this ORCA run
We neither can nor want to force you to cite these papers, but we appreciate if you do
You receive ORCA, which is the product of decades of hard work by many enthusiastic individuals, for free
The only thing we kindly ask in return is that you cite our papers,
We deeply appreciate it, if you show your appreciation for ORCA by not just citing the generic ORCA reference.

Please note that relegating all ORCA citations to the supporting information does *not* help us.
SI sections are not indexed - citations you put there will not count into any citation statistics
But we need these citations in order to attract the funding resources that allow us to do what we are doing

Therefore, if you are a happy ORCA user, please consider citing a few of the papers listed below in the main body of your paper

In addition to the list printed below, the program has created the file sp.bibtex that contains the list in bibtex format
You can import this file easily into all common literature databanks and citation aid programs


List of essential papers. We consider these as the minimum necessary citations

  1. Neese,F.
     Software update: the ORCA program system, version 5.0
     WIRES Comput. Molec. Sci., 2022 12(1)e1606
     doi.org/10.1002/wcms.1606

List of papers to cite with high priority. The work reported in these papers was absolutely
necessary for this run to complete.
Our perspective: the developers of density functionals and basis sets usually get cited in chemistry papers
Good! But without the algorithms to do something with them, the functionals or basis sets would not do anything.
Hence, in our opinion, the algorithm design and method developments papers are equally worthy of getting cited

  1. Neese,F.
     An improvement of the resolution of the identity approximation for the formation of the Coulomb matrix
     J. Comp. Chem., 2003 24(14)1740-1747
     doi.org/10.1002/jcc.10318
  2. Neese,F.
     The SHARK Integral Generation and Digestion System
     J. Comp. Chem., 2022  1-16
     doi.org/10.1002/jcc.26942
  3. Caldeweyher,E.; Bannwarth,C.; Grimme,S.
     Extension of the D3 dispersion coefficient model
     J. Chem. Phys., 2017 147 034112-XXXX
     doi.org/10.1063/1.4993215
  4. Caldeweyher,E.; Ehlert,S.; Hansen,A.; Neugebauer,H.; Spicher,S.; Bannwarth,C.; Grimme,S.
     A generally applicable atomic-charge dependent London dispersion correction
     J. Chem. Phys., 2019 150 154122-XXXX
     doi.org/10.1063/1.5090222
  5. Caldeweyher,E.; Mewes,J.; Ehlert,S.; Grimme,S.
     Extension and evaluation of the D4 London-dispersion model for periodic systems
     Phys. Chem. Chem. Phys., 2020 22(16)8499-8512
     doi.org/10.1039/D0CP00502A

List of suggested additional citations. These are papers that are important in the 'surrounding' of 
of this run, or papers that preceded the highly important papers. If you like your results we are grateful for a citation.

  1. Neese,F.
     The ORCA program system
     WIRES Comput. Molec. Sci., 2012 2(1)73-78
     doi.org/10.1002/wcms.81
  2. Neese,F.
     Software update: the ORCA program system, version 4.0
     WIRES Comput. Molec. Sci., 2018 8(1)1-6
     doi.org/10.1002/wcms.1327
  3. Neese,F.; Wennmohs,F.; Becker,U.; Riplinger,C.
     The ORCA quantum chemistry program package
     J. Chem. Phys., 2020 152 Art. No. L224108
     doi.org/10.1063/5.0004608

List of optional additional citations

  1. Neese,F.
     Approximate second-order SCF convergence for spin unrestricted wavefunctions
     Chem. Phys. Lett., 2000 325(1-3)93-98
     doi.org/10.1016/s0009-2614(00)00662-x

Timings for individual modules:

Sum of individual times          ...        7.402 sec (=   0.123 min)
Startup calculation              ...        0.660 sec (=   0.011 min)   8.9 %
SCF iterations                   ...        6.633 sec (=   0.111 min)  89.6 %
Property calculations            ...        0.109 sec (=   0.002 min)   1.5 %
                             ****ORCA TERMINATED NORMALLY****
TOTAL RUN TIME: 0 days 0 hours 0 minutes 8 seconds 176 msec
