
                                 *****************
                                 * O   R   C   A *
                                 *****************

                                            #,                                       
                                            ###                                      
                                            ####                                     
                                            #####                                    
                                            ######                                   
                                           ########,                                 
                                     ,,################,,,,,                         
                               ,,#################################,,                 
                          ,,##########################################,,             
                       ,#########################################, ''#####,          
                    ,#############################################,,   '####,        
                  ,##################################################,,,,####,       
                ,###########''''           ''''###############################       
              ,#####''   ,,,,##########,,,,          '''####'''          '####       
            ,##' ,,,,###########################,,,                        '##       
           ' ,,###''''                  '''############,,,                           
         ,,##''                                '''############,,,,        ,,,,,,###''
      ,#''                                            '''#######################'''  
     '                                                          ''''####''''         
             ,#######,   #######,   ,#######,      ##                                
            ,#'     '#,  ##    ##  ,#'     '#,    #''#        ,####,   ,####,        
            ##       ##  ##   ,#'  ##            #'  '#       #'       #'  '#        
            ##       ##  #######   ##           ,######,      #####,   #    #        
            '#,     ,#'  ##    ##  '#,     ,#' ,#      #,     #,   #   #,  ,#        
             '#######'   ##     ##  '#######'  #'      '#     '####' # '####'        



                #########################################################
                #                        -***-                          #
                #          Department of theory and spectroscopy        #
                #                                                       #
                #                      Frank Neese                      #
                #                                                       #
                #     Directorship, Architecture, Infrastructure        #
                #                    SHARK, DRIVERS                     #
                #        Core code/Algorithms in most modules           #
                #                                                       #
                #        Max Planck Institute fuer Kohlenforschung      #
                #                Kaiser Wilhelm Platz 1                 #
                #                 D-45470 Muelheim/Ruhr                 #
                #                      Germany                          #
                #                                                       #
                #                  All rights reserved                  #
                #                        -***-                          #
                #########################################################


                         Program Version 6.0.0  -   RELEASE  -


 With contributions from (in alphabetic order):
   Daniel Aravena         : Magnetic Suceptibility
   Michael Atanasov       : Ab Initio Ligand Field Theory (pilot matlab implementation)
   Alexander A. Auer      : GIAO ZORA, VPT2 properties, NMR spectrum
   Ute Becker             : All parallelization in ORCA, NUMFREQ, NUMCALC
   Giovanni Bistoni       : ED, misc. LED, open-shell LED, HFLD
   Martin Brehm           : Molecular dynamics
   Dmytro Bykov           : pre 5.0 version of the SCF Hessian
   Marcos Casanova-Páez   : Triplet and SCS-CIS(D). UHF-(DLPNO)-IP/EA/STEOM-CCSD. UHF-CVS-IP/STEOM-CCSD
   Vijay G. Chilkuri      : MRCI spin determinant printing, contributions to CSF-ICE
   Pauline Colinet        : FMM embedding
   Dipayan Datta          : RHF DLPNO-CCSD density
   Achintya Kumar Dutta   : EOM-CC, STEOM-CC
   Nicolas Foglia         : Exact transition moments, OPA infrastructure, MCD improvements
   Dmitry Ganyushin       : Spin-Orbit,Spin-Spin,Magnetic field MRCI
   Miquel Garcia          : C-PCM and meta-GGA Hessian, CCSD/C-PCM, Gaussian charge scheme
   Tiago L. C. Gouveia    : GS-ROHF, GS-ROCIS
   Yang Guo               : DLPNO-NEVPT2, F12-NEVPT2, CIM, IAO-localization
   Andreas Hansen         : Spin unrestricted coupled pair/coupled cluster methods
   Ingolf Harden          : AUTO-CI MPn and infrastructure 
   Benjamin Helmich-Paris : MC-RPA, TRAH-(SCF,CASSCF), AVAS, COSX integrals, SCF dyn. polar.
   Lee Huntington         : MR-EOM, pCC
   Robert Izsak           : Overlap fitted RIJCOSX, COSX-SCS-MP3, EOM
   Riya Kayal             : Wick's Theorem for AUTO-CI, AUTO-CI UHF-CCSDT
   Emily Kempfer          : AUTO-CI, RHF CISDT and CCSDT
   Christian Kollmar      : KDIIS, OOCD, Brueckner-CCSD(T), CCSD density, CASPT2, CASPT2-K, improved NEVPT2
   Axel Koslowski         : Symmetry handling
   Simone Kossmann        : Meta GGA functionals, TD-DFT gradient, OOMP2, (MP2 Hessian; deprecated post 5.0)
   Lucas Lang             : DCDCAS
   Marvin Lechner         : AUTO-CI (C++ implementation), FIC-MRCC
   Spencer Leger          : CASSCF response
   Dagmar Lenk            : GEPOL surface, SMD, ORCA-2-JSON
   Dimitrios Liakos       : Extrapolation schemes; Compound Job, initial MDCI parallelization
   Dimitrios Manganas     : Further ROCIS development; embedding schemes. LFT, Crystal Embedding
   Dimitrios Pantazis     : SARC Basis sets
   Anastasios Papadopoulos: AUTO-CI, single reference methods and gradients
   Taras Petrenko         : pre 6.0 DFT Hessian and TD-DFT gradient, (ASA, deprecated), ECA, 1-Electron XAS/XES, NRVS
   Peter Pinski           : DLPNO-MP2, DLPNO-MP2 Gradient
   Christoph Reimann      : Effective Core Potentials
   Marius Retegan         : Local ZFS, SOC
   Christoph Riplinger    : Optimizer, TS searches, QM/MM, DLPNO-CCSD(T), (RO)-DLPNO pert. Triples
   Michael Roemelt        : Original ROCIS implementation
   Masaaki Saitow         : Open-shell DLPNO-CCSD energy and density
   Barbara Sandhoefer     : DKH picture change effects
   Kantharuban Sivalingam : CASSCF convergence/infrastructure, NEVPT2 and variants, FIC-MRCI
   Bernardo de Souza      : ESD, SOC TD-DFT
   Georgi Stoychev        : AutoAux, RI-MP2 NMR, DLPNO-MP2 response, X2C
   Van Anh Tran           : RI-MP2 g-tensors
   Willem Van den Heuvel  : Paramagnetic NMR
   Zikuan Wang            : NOTCH, Electric field optimization 
   Frank Wennmohs         : Technical directorship and infrastructure
   Hang Xu                : AUTO-CI-Response properties 


 We gratefully acknowledge several colleagues who have allowed us to
 interface, adapt or use parts of their codes:
   Stefan Grimme, W. Hujo, H. Kruse, P. Pracht,  : VdW corrections, initial TS optimization,
                  C. Bannwarth, S. Ehlert,         DFT functionals, gCP, sTDA/sTD-DF
                  L. Wittmann, M. Mueller
   Ed Valeev, F. Pavosevic, A. Kumar             : LibInt (2-el integral package), F12 methods
   Garnet Chan, S. Sharma, J. Yang, R. Olivares  : DMRG
   Ulf Ekstrom                                   : XCFun DFT Library
   Mihaly Kallay                                 : mrcc  (arbitrary order and MRCC methods)
   Frank Weinhold                                : gennbo (NPA and NBO analysis)
   Simon Mueller                                 : openCOSMO-RS
   Christopher J. Cramer and Donald G. Truhlar   : smd solvation model
   Lars Goerigk                                  : TD-DFT with DH, B97 family of functionals
   V. Asgeirsson, H. Jonsson                     : NEB implementation
   FAccTs GmbH                                   : IRC, NEB, NEB-TS, DLPNO-Multilevel, CI-OPT
                                                   MM, QMMM, 2- and 3-layer-ONIOM, Crystal-QMMM,
                                                   LR-CPCM, SF, NACMEs, symmetry and pop. for TD-DFT,
                                                   nearIR, NL-DFT gradient (VV10), updates on ESD,
                                                   ML-optimized integration grids, MBIS, APM,
                                                   GOAT, DOCKER, SOLVATOR, interface openCOSMO-RS
   S Lehtola, MJT Oliveira, MAL Marques          : LibXC Library
   Liviu Ungur et al                             : ANISO software


 Your calculation uses the libint2 library for the computation of 2-el integrals
 For citations please refer to: http://libint.valeyev.net

 Your ORCA version has been built with support for libXC version: 6.2.2
 For citations please refer to: https://libxc.gitlab.io

 This ORCA versions uses:
   CBLAS   interface :  Fast vector & matrix operations
   LAPACKE interface :  Fast linear algebra routines
   SCALAPACK package :  Parallel linear algebra routines
   Shared memory     :  Shared parallel matrices
   BLAS/LAPACK       :  OpenBLAS 0.3.27  USE64BITINT DYNAMIC_ARCH NO_AFFINITY SkylakeX SINGLE_THREADED
        Core in use  :  SkylakeX
   Copyright (c) 2011-2014, The OpenBLAS Project


Your calculation utilizes the geometrical counterpoise correction gCP
Please cite in your paper:
H.Kruse, S. Grimme J.Chem.Phys., 136, (2012), 154101 
   

Your calculation utilizes the atom-pairwise dispersion correction
based on EEQ partial charges (D4)


================================================================================

----- Orbital basis set information -----
Your calculation utilizes the basis: def2-mTZVPP
   Stefan Grimme, Andreas Hansen, Sebastian Ehlert, and Jan-Michael Mewes 
   J. Chem. Phys. 154, 064103 (2021). DOI: 10.1063/5.0040021

----- AuxJ basis set information -----
Your calculation utilizes the auxiliary basis: def2/J
   F. Weigend, Phys. Chem. Chem. Phys. 8, 1057 (2006).

================================================================================
                                        WARNINGS
                       Please study these warnings very carefully!
================================================================================

Using LibXC functional ID 497 : Re-regularized SCAN exchange by Furness et al
[ 1]  J. W. Furness, A. D. Kaplan, J. Ning, J. P. Perdew, and J. Sun.,  J. Phys. Chem. Lett. 11, 8208-8215 (2020)
[ 2]  J. W. Furness, A. D. Kaplan, J. Ning, J. P. Perdew, and J. Sun.,  J. Phys. Chem. Lett. 11, 9248-9248 (2020)
Using LibXC functional ID 498 : Re-regularized SCAN correlation by Furness et al
[ 1]  J. W. Furness, A. D. Kaplan, J. Ning, J. P. Perdew, and J. Sun.,  J. Phys. Chem. Lett. 11, 8208-8215 (2020)
[ 2]  J. W. Furness, A. D. Kaplan, J. Ning, J. P. Perdew, and J. Sun.,  J. Phys. Chem. Lett. 11, 9248-9248 (2020)
Using LibXC functional ID 497 : Re-regularized SCAN exchange by Furness et al
[ 1]  J. W. Furness, A. D. Kaplan, J. Ning, J. P. Perdew, and J. Sun.,  J. Phys. Chem. Lett. 11, 8208-8215 (2020)
[ 2]  J. W. Furness, A. D. Kaplan, J. Ning, J. P. Perdew, and J. Sun.,  J. Phys. Chem. Lett. 11, 9248-9248 (2020)
Using LibXC functional ID 498 : Re-regularized SCAN correlation by Furness et al
[ 1]  J. W. Furness, A. D. Kaplan, J. Ning, J. P. Perdew, and J. Sun.,  J. Phys. Chem. Lett. 11, 8208-8215 (2020)
[ 2]  J. W. Furness, A. D. Kaplan, J. Ning, J. P. Perdew, and J. Sun.,  J. Phys. Chem. Lett. 11, 9248-9248 (2020)

================================================================================
                                       INPUT FILE
================================================================================
NAME = sp_gas.inp
|  1> ! r2scan-3c def2/J RI DEFGRID2 scfconv6 printgap
|  2> %output
|  3>     printlevel normal
|  4> end
|  5> * xyz 0 1
|  6> C 1.4653316721 -2.4425140328 -0.963665833
|  7> O 1.0879366271 -1.7698589319 0.2394294582
|  8> C 0.7240352462 -0.4587267849 0.0869080693
|  9> C 1.6748928362 0.563103641 0.0430279619
| 10> C 1.2909639177 1.8919429723 -0.0389018429
| 11> C -0.050432113 2.2253772895 -0.07024628
| 12> C -1.0055225648 1.2234221294 -0.0098697886
| 13> C -0.631735999 -0.1149991802 0.0625415278
| 14> C -1.6433184744 -1.2193597443 0.1014329102
| 15> O -1.7089480206 -2.0925489572 -0.7332921601
| 16> O -2.447156455 -1.1328789172 1.1380865771
| 17> Cl -2.6793444182 1.6417748665 -0.0670889871
| 18> Cl 3.3532298677 0.1558537745 0.1226327975
| 19> H 2.2550721371 -1.9006039812 -1.4875315703
| 20> H 0.5953231798 -2.5595575765 -1.6145043718
| 21> H 1.8273882466 -3.4160055531 -0.6448490855
| 22> H 2.0445165305 2.6612606011 -0.0737677355
| 23> H -0.3569834825 3.255798198 -0.1355706189
| 24> H -3.1041367124 -1.8577809307 1.1757547146
| 25> *
| 26> 
| 27>                          ****END OF INPUT****
================================================================================

                       ****************************
                       * Single Point Calculation *
                       ****************************

---------------------------------
CARTESIAN COORDINATES (ANGSTROEM)
---------------------------------
  C      1.465332   -2.442514   -0.963666
  O      1.087937   -1.769859    0.239429
  C      0.724035   -0.458727    0.086908
  C      1.674893    0.563104    0.043028
  C      1.290964    1.891943   -0.038902
  C     -0.050432    2.225377   -0.070246
  C     -1.005523    1.223422   -0.009870
  C     -0.631736   -0.114999    0.062542
  C     -1.643318   -1.219360    0.101433
  O     -1.708948   -2.092549   -0.733292
  O     -2.447156   -1.132879    1.138087
  Cl    -2.679344    1.641775   -0.067089
  Cl     3.353230    0.155854    0.122633
  H      2.255072   -1.900604   -1.487532
  H      0.595323   -2.559558   -1.614504
  H      1.827388   -3.416006   -0.644849
  H      2.044517    2.661261   -0.073768
  H     -0.356983    3.255798   -0.135571
  H     -3.104137   -1.857781    1.175755

----------------------------
CARTESIAN COORDINATES (A.U.)
----------------------------
  NO LB      ZA    FRAG     MASS         X           Y           Z
   0 C     6.0000    0    12.011    2.769076   -4.615683   -1.821065
   1 O     8.0000    0    15.999    2.055902   -3.344549    0.452456
   2 C     6.0000    0    12.011    1.368228   -0.866868    0.164232
   3 C     6.0000    0    12.011    3.165089    1.064112    0.081311
   4 C     6.0000    0    12.011    2.439568    3.575254   -0.073514
   5 C     6.0000    0    12.011   -0.095303    4.205354   -0.132746
   6 C     6.0000    0    12.011   -1.900162    2.311933   -0.018651
   7 C     6.0000    0    12.011   -1.193808   -0.217317    0.118186
   8 C     6.0000    0    12.011   -3.105422   -2.304256    0.191680
   9 O     8.0000    0    15.999   -3.229444   -3.954344   -1.385721
  10 O     8.0000    0    15.999   -4.624456   -2.140831    2.150672
  11 Cl   17.0000    0    35.453   -5.063227    3.102505   -0.126780
  12 Cl   17.0000    0    35.453    6.336686    0.294521    0.231742
  13 H     1.0000    0     1.008    4.261469   -3.591621   -2.811027
  14 H     1.0000    0     1.008    1.124998   -4.836863   -3.050971
  15 H     1.0000    0     1.008    3.453263   -6.455315   -1.218588
  16 H     1.0000    0     1.008    3.863576    5.029054   -0.139401
  17 H     1.0000    0     1.008   -0.674601    6.152567   -0.256191
  18 H     1.0000    0     1.008   -5.865968   -3.510697    2.221854

--------------------------------
INTERNAL COORDINATES (ANGSTROEM)
--------------------------------
 C      0   0   0     0.000000000000     0.00000000     0.00000000
 O      1   0   0     1.429101180625     0.00000000     0.00000000
 C      2   1   0     1.369216745439   115.28524359     0.00000000
 C      3   2   1     1.396493121924   121.54775671   276.35797444
 C      4   3   2     1.385614620226   120.99248639   183.52713775
 C      5   4   3     1.382571599882   120.09652779     0.39776857
 C      6   5   4     1.385553042898   119.56450020     0.44530205
 C      7   6   5     1.391521252984   120.84075970   359.07040314
 C      8   7   6     1.498140146882   121.93781334   181.23528244
 O      9   8   7     1.209765506967   123.42088526   119.83652039
 O      9   8   7     1.314642634942   112.63411134   299.86794086
 Cl     7   6   5     1.726259727340   119.45143888   180.68283895
 Cl     4   3   2     1.728873788025   119.15534621     2.36985777
 H      1   2   3     1.091692180425   111.18430505    54.39203752
 H      1   2   3     1.092796765818   109.97170088   292.21193130
 H      1   2   3     1.086468969516   105.23063644   173.63139114
 H      5   4   3     1.077453843423   119.53037153   180.14687309
 H      6   5   4     1.077036796061   120.54764065   180.10587007
 H     11   9   8     0.979042836842   113.07535031   180.69644810

---------------------------
INTERNAL COORDINATES (A.U.)
---------------------------
 C      0   0   0     0.000000000000     0.00000000     0.00000000
 O      1   0   0     2.700609849046     0.00000000     0.00000000
 C      2   1   0     2.587444666858   115.28524359     0.00000000
 C      3   2   1     2.638989548341   121.54775671   276.35797444
 C      4   3   2     2.618432159385   120.99248639   183.52713775
 C      5   4   3     2.612681684315   120.09652779     0.39776857
 C      6   5   4     2.618315795099   119.56450020     0.44530205
 C      7   6   5     2.629594077671   120.84075970   359.07040314
 C      8   7   6     2.831074587840   121.93781334   181.23528244
 O      9   8   7     2.286125494432   123.42088526   119.83652039
 O      9   8   7     2.484314544018   112.63411134   299.86794086
 Cl     7   6   5     3.262158120690   119.45143888   180.68283895
 Cl     4   3   2     3.267097979482   119.15534621     2.36985777
 H      1   2   3     2.062999243546   111.18430505    54.39203752
 H      1   2   3     2.065086607432   109.97170088   292.21193130
 H      1   2   3     2.053128805389   105.23063644   173.63139114
 H      5   4   3     2.036092686010   119.53037153   180.14687309
 H      6   5   4     2.035304580711   120.54764065   180.10587007
 H     11   9   8     1.850122835010   113.07535031   180.69644810

---------------------
BASIS SET INFORMATION
---------------------
There are 4 groups of distinct atoms

 Group   1 Type C   : 11s6p1d contracted to 5s3p1d pattern {62111/411/1}
 Group   2 Type O   : 11s6p2d contracted to 5s3p2d pattern {62111/411/11}
 Group   3 Type Cl  : 14s9p2d contracted to 5s4p2d pattern {73211/6111/11}
 Group   4 Type H   : 4s1p contracted to 2s1p pattern {31/1}

Atom   0C    basis set group =>   1
Atom   1O    basis set group =>   2
Atom   2C    basis set group =>   1
Atom   3C    basis set group =>   1
Atom   4C    basis set group =>   1
Atom   5C    basis set group =>   1
Atom   6C    basis set group =>   1
Atom   7C    basis set group =>   1
Atom   8C    basis set group =>   1
Atom   9O    basis set group =>   2
Atom  10O    basis set group =>   2
Atom  11Cl   basis set group =>   3
Atom  12Cl   basis set group =>   3
Atom  13H    basis set group =>   4
Atom  14H    basis set group =>   4
Atom  15H    basis set group =>   4
Atom  16H    basis set group =>   4
Atom  17H    basis set group =>   4
Atom  18H    basis set group =>   4
---------------------------------
AUXILIARY/J BASIS SET INFORMATION
---------------------------------
There are 4 groups of distinct atoms

 Group   1 Type C   : 12s5p4d2f1g contracted to 6s4p3d1f1g pattern {711111/2111/211/2/1}
 Group   2 Type O   : 12s5p4d2f1g contracted to 6s4p3d1f1g pattern {711111/2111/211/2/1}
 Group   3 Type Cl  : 14s5p5d2f1g contracted to 8s4p3d1f1g pattern {71111111/2111/311/2/1}
 Group   4 Type H   : 5s2p1d contracted to 3s1p1d pattern {311/2/1}

Atom   0C    basis set group =>   1
Atom   1O    basis set group =>   2
Atom   2C    basis set group =>   1
Atom   3C    basis set group =>   1
Atom   4C    basis set group =>   1
Atom   5C    basis set group =>   1
Atom   6C    basis set group =>   1
Atom   7C    basis set group =>   1
Atom   8C    basis set group =>   1
Atom   9O    basis set group =>   2
Atom  10O    basis set group =>   2
Atom  11Cl   basis set group =>   3
Atom  12Cl   basis set group =>   3
Atom  13H    basis set group =>   4
Atom  14H    basis set group =>   4
Atom  15H    basis set group =>   4
Atom  16H    basis set group =>   4
Atom  17H    basis set group =>   4
Atom  18H    basis set group =>   4

Checking for AutoStart:
The File: sp_gas.gbw exists
Trying to determine its content:
     ... Fine, the file contains calculation information
     ... Fine, the calculation information was read
     ... Fine, the file contains a basis set
     ... Fine, the basis set was read
     ... Fine, the file contains a geometry
     ... Fine, the geometry was read
     ... Fine, the file contains a set of orbitals
     ... Fine, the orbitals can be read
     => possible old guess file was deleted
     => GBW file was renamed to GES file
     => GES file is set as startup file
     => Guess is set to MORead
     ... now leaving AutoStart

------------------------------------------------------------------------------
                             ORCA STARTUP CALCULATIONS
                           -- RI-GTO INTEGRALS CHOSEN --
------------------------------------------------------------------------------
------------------------------------------------------------------------------
                   ___                                                        
                  /   \      - P O W E R E D   B Y -                         
                 /     \                                                     
                 |  |  |   _    _      __       _____    __    __             
                 |  |  |  | |  | |    /  \     |  _  \  |  |  /  |          
                  \  \/   | |  | |   /    \    | | | |  |  | /  /          
                 / \  \   | |__| |  /  /\  \   | |_| |  |  |/  /          
                |  |  |   |  __  | /  /__\  \  |    /   |      \           
                |  |  |   | |  | | |   __   |  |    \   |  |\   \          
                \     /   | |  | | |  |  |  |  | |\  \  |  | \   \       
                 \___/    |_|  |_| |__|  |__|  |_| \__\ |__|  \__/        
                                                                              
                      - O R C A' S   B I G   F R I E N D -                    
                                      &                                       
                       - I N T E G R A L  F E E D E R -                       
                                                                              
 v1 FN, 2020, v2 2021, v3 2022-2024                                           
------------------------------------------------------------------------------


----------------------
SHARK INTEGRAL PACKAGE
----------------------

Number of atoms                             ...     19
Number of basis functions                   ...    308
Number of shells                            ...    142
Maximum angular momentum                    ...      2
Integral batch strategy                     ... SHARK/LIBINT Hybrid
RI-J (if used) integral strategy            ... SPLIT-RIJ (Revised 2003 algorithm where possible)
Printlevel                                  ...      1
Contraction scheme used                     ... SEGMENTED contraction
Prescreening option                         ... SCHWARTZ
   Thresh                                   ... 1.000e-10
   Tcut                                     ... 1.000e-11
   Tpresel                                  ... 1.000e-11 
Coulomb Range Separation                    ... NOT USED
Exchange Range Separation                   ... NOT USED
Multipole approximations                    ... NOT USED
Finite Nucleus Model                        ... NOT USED
CABS basis                                  ... NOT available
Auxiliary Coulomb fitting basis             ... AVAILABLE
   # of basis functions in Aux-J            ...    707
   # of shells in Aux-J                     ...    229
   Maximum angular momentum in Aux-J        ...      4
Auxiliary J/K fitting basis                 ... NOT available
Auxiliary Correlation fitting basis         ... NOT available
Auxiliary 'external' fitting basis          ... NOT available

Checking pre-screening integrals            ... done (  0.0 sec) Dimension = 142
Check shell pair data                       ... done (  0.0 sec)
Shell pair information
Shell pair cut-off parameter TPreSel        ...   1.0e-11
Total number of shell pairs                 ...     10153
Shell pairs after pre-screening             ...      8411
Total number of primitive shell pairs       ...     39961
Primitive shell pairs kept                  ...     21578
          la=0 lb=0:   2318 shell pairs
          la=1 lb=0:   3032 shell pairs
          la=1 lb=1:   1007 shell pairs
          la=2 lb=0:   1146 shell pairs
          la=2 lb=1:    751 shell pairs
          la=2 lb=2:    157 shell pairs

Calculating one electron integrals          ... done (  0.1 sec)
Calculating RI/J V-Matrix + Cholesky decomp.... done (  0.1 sec)
Calculating Nuclear repulsion               ... done (  0.0 sec) ENN=   1000.081514237602 Eh

Diagonalization of the overlap matrix:
Smallest eigenvalue                        ... 1.298e-05
Time for diagonalization                   ...    0.015 sec
Threshold for overlap eigenvalues          ... 1.000e-07
Number of eigenvalues below threshold      ... 0
Time for construction of square roots      ...    0.020 sec
Total time needed                          ...    0.047 sec

-------------------
DFT GRID GENERATION
-------------------

General Integration Accuracy     IntAcc      ... 4.388
Radial Grid Type                 RadialGrid  ... OptM3 with GC (2021)
Angular Grid (max. ang.)         AngularGrid ... 4 (Lebedev-302)
Angular grid pruning method      GridPruning ... 4 (adaptive)
Weight generation scheme         WeightScheme... mBecke (2022)
Basis function cutoff            BFCut       ... 1.0000e-10
Integration weight cutoff        WCut        ... 1.0000e-14
Partially contracted basis set               ... off
Rotationally invariant grid construction     ... off
Angular grids for H and He will be reduced by one unit
Diffuse basis detected: some atoms will have their outermost
                        angular grid increased by 1.

Total number of grid points                  ...   100930
Total number of batches                      ...     1586
Average number of points per batch           ...       63
Average number of grid points per atom       ...     5312
Initializing property integral containers    ... done (  0.0 sec)

SHARK setup successfully completed in   1.8 seconds

Maximum memory used throughout the entire STARTUP-calculation: 50.5 MB
-------------------------------------------------------------------------------
                                 ORCA GUESS
                   Start orbitals & Density for SCF / CASSCF
-------------------------------------------------------------------------------

------------
SCF SETTINGS
------------
Hamiltonian:
 Density Functional     Method          .... DFT(GTOs)
  Functional kind                       .... Exchange
  Functional name                       .... Re-regularized SCAN exchange by Furness et al
  Functional family                     .... MGGA
  Functional refs                              
    [ 0] J. W. Furness, A. D. Kaplan, J. Ning, J. P. Perdew, and J. Sun.,  J. Phys. Chem. Lett. 11, 8208-8215 (2020), doi: 10.1021/acs.jpclett.0c02405
    [ 1] J. W. Furness, A. D. Kaplan, J. Ning, J. P. Perdew, and J. Sun.,  J. Phys. Chem. Lett. 11, 9248-9248 (2020), doi: 10.1021/acs.jpclett.0c03077
  Functional external parameters        .... 6
    Parameter  0 _c1        =  6.670000e-01 : c1 parameter        
    Parameter  1 _c2        =  8.000000e-01 : c2 parameter        
    Parameter  2 _d         =  1.240000e+00 : d parameter         
    Parameter  3 _k1        =  6.500000e-02 : k1 parameter        
    Parameter  4 _eta       =  1.000000e-03 : eta parameter       
    Parameter  5 _dp2       =  3.610000e-01 : dp2 parameter       
  Functional kind                       .... Correlation
  Functional name                       .... Re-regularized SCAN correlation by Furness et al
  Functional family                     .... MGGA
  Functional refs                              
    [ 0] J. W. Furness, A. D. Kaplan, J. Ning, J. P. Perdew, and J. Sun.,  J. Phys. Chem. Lett. 11, 8208-8215 (2020), doi: 10.1021/acs.jpclett.0c02405
    [ 1] J. W. Furness, A. D. Kaplan, J. Ning, J. P. Perdew, and J. Sun.,  J. Phys. Chem. Lett. 11, 9248-9248 (2020), doi: 10.1021/acs.jpclett.0c03077
  Functional external parameters        .... 1
    Parameter  0 _eta       =  1.000000e-03 : Regularization parameter
 Gradients option       PostSCFGGA      .... off
 RI-approximation to the Coulomb term is turned on
   Number of AuxJ basis functions       .... 707


General Settings:
 Integral files         IntName         .... sp_gas
 Hartree-Fock type      HFTyp           .... RHF
 Total Charge           Charge          ....    0
 Multiplicity           Mult            ....    1
 Number of Electrons    NEL             ....  112
 Basis Dimension        Dim             ....  308
 Nuclear Repulsion      ENuc            ....   1000.0815142376 Eh

Convergence Acceleration:
 AO-DIIS                CNVDIIS         .... on
   Start iteration      DIISMaxIt       ....    12
   Startup error        DIISStart       ....  0.200000
   # of expansion vecs  DIISMaxEq       ....     5
   Bias factor          DIISBfac        ....   1.050
   Max. coefficient     DIISMaxC        ....  10.000
 MO-DIIS                CNVKDIIS        .... off
 Trust-Rad. Augm. Hess. CNVTRAH         .... auto
   Auto Start mean grad. ratio tolernc. ....  1.125000
   Auto Start start iteration           ....     1
   Auto Start num. interpolation iter.  ....    10
   Max. Number of Micro iterations      ....    24
   Max. Number of Macro iterations      .... Maxiter - #DIIS iter
   Number of Davidson start vectors     ....     2
   Converg. threshold    (grad. norm)   ....   3.330e-04
   Grad. Scal. Fac. for Micro threshold ....   0.100
   Minimum threshold for Micro iter.    ....   1.000e-02
   NR start threshold (gradient norm)   ....   1.000e-04
   Initial trust radius                 ....   0.400
   Minimum AH scaling param. (alpha)    ....   1.000
   Maximum AH scaling param. (alpha)    .... 1000.000
   Quad. conv. algorithm                .... NR
   White noise on init. David. guess    .... on
   Maximum white noise                  ....   0.010
   Pseudo random numbers                .... off
   Inactive MOs                         .... canonical
   Orbital update algorithm             .... Taylor
   Preconditioner                       .... Diag
   Full preconditioner red. dimension   ....   250
   COSX micro iterations for RIJONX calc.... off
 SOSCF                  CNVSOSCF        .... on
   Start iteration      SOSCFMaxIt      ....   150
   Startup grad/error   SOSCFStart      ....  0.003300
   Hessian update       SOSCFHessUp     .... L-BFGS
 Level Shifting         CNVShift        .... on
   Level shift para.    LevelShift      ....    0.2500
   Turn off err/grad.   ShiftErr        ....    0.0010
 Zerner damping         CNVZerner       .... off
 Static damping         CNVDamp         .... on
   Fraction old density DampFac         ....    0.7000
   Max. Damping (<1)    DampMax         ....    0.9800
   Min. Damping (>=0)   DampMin         ....    0.0000
   Turn off err/grad.   DampErr         ....    0.1000

SCF Procedure:
 Maximum # iterations   MaxIter         ....   125
 SCF integral mode      SCFMode         .... Direct
   Integral package                     .... SHARK and LIBINT hybrid scheme
 Reset frequency        DirectResetFreq ....    20
 Integral Threshold     Thresh          ....  1.000e-10 Eh
 Primitive CutOff       TCut            ....  1.000e-11 Eh

Convergence Tolerance:
 Convergence Check Mode ConvCheckMode   .... Total+1el-Energy
 Convergence forced     ConvForced      .... 0
 Energy Change          TolE            ....  1.000e-06 Eh
 1-El. energy change                    ....  1.000e-03 Eh
 Orbital Gradient       TolG            ....  3.330e-04
 Orbital Rotation angle TolX            ....  3.330e-04
 DIIS Error             TolErr          ....  1.000e-06

---------------------
INITIAL GUESS: MOREAD
---------------------
Guess MOs are being read from file: sp_gas.ges
Input Geometry matches current geometry (good)
Atom 0: N(Shells)= 9 and 6 - projection required
Input basis set needs projection
NBasis(read)= 202
NBasis(calc)= 308
Basis set overlap was calculated
Using GuessMode=FMatrix for the initial guess
C*T matrix was formed
Effective Fockian was calculated
Effective Fockian was diagonalized
Initial density was built
                      ------------------
                      INITIAL GUESS DONE (   0.1 sec)
                      ------------------
             **** ENERGY FILE WAS UPDATED (sp_gas.en.tmp) ****
Finished Guess after   0.6 sec
Maximum memory used throughout the entire GUESS-calculation: 25.4 MB

-------------------------------------------------------------------------------------------
                                      ORCA LEAN-SCF
                              memory conserving SCF solver
-------------------------------------------------------------------------------------------

----------------------------------------D-I-I-S--------------------------------------------
Iteration    Energy (Eh)           Delta-E    RMSDP     MaxDP     DIISErr   Damp  Time(sec)
-------------------------------------------------------------------------------------------
               ***  Starting incremental Fock matrix formation  ***
    1    -1454.0921795877507066     0.00e+00  2.36e-02  1.28e+00  6.26e-01  0.700   5.2
    2    -1454.1816670384437202    -8.95e-02  1.66e-02  8.65e-01  4.40e-01  0.700   4.5
    3    -1454.2448344139529581    -6.32e-02  1.15e-02  5.84e-01  3.08e-01  0.700   4.4
    4    -1454.2891644202732095    -4.43e-02  8.00e-03  4.01e-01  2.16e-01  0.700   4.3
                               ***Turning on AO-DIIS***
    5    -1454.3202512078587461    -3.11e-02  5.55e-03  2.75e-01  1.51e-01  0.700   4.2
    6    -1454.3420367001090199    -2.18e-02  3.88e-03  1.91e-01  1.06e-01  0.700   4.1
    7    -1454.3573075174094811    -1.53e-02  2.71e-03  1.33e-01  7.41e-02  0.700   4.1
    8    -1454.3680057100509657    -1.07e-02  6.31e-03  3.09e-01  5.19e-02  0.000   4.1
                              *** Initializing SOSCF ***
---------------------------------------S-O-S-C-F--------------------------------------
Iteration    Energy (Eh)           Delta-E    RMSDP     MaxDP     MaxGrad    Time(sec)
--------------------------------------------------------------------------------------
    9    -1454.3929964867334093    -2.50e-02  1.96e-05  8.94e-04  2.21e-04     4.5
               *** Restarting incremental Fock matrix formation ***
   10    -1454.3929965449760857    -5.82e-08  2.34e-05  1.48e-03  8.97e-05     5.1
   11    -1454.3929956062706879     9.39e-07  7.93e-06  2.14e-04  2.67e-04     3.6
                 **** Energy Check signals convergence ****

               *****************************************************
               *                     SUCCESS                       *
               *           SCF CONVERGED AFTER  11 CYCLES          *
               *****************************************************

             **** ENERGY FILE WAS UPDATED (sp_gas.en.tmp) ****

----------------
TOTAL SCF ENERGY
----------------

Total Energy       :      -1454.39299560627069 Eh          -39576.04542 eV

Components:
Nuclear Repulsion  :       1000.08151423760171 Eh           27213.60152 eV
Electronic Energy  :      -2454.47450984387251 Eh          -66789.64693 eV
One Electron Energy:      -3986.70416555032807 Eh         -108483.73555 eV
Two Electron Energy:       1532.22965570645556 Eh           41694.08862 eV

Virial components:
Potential Energy   :      -2904.66985983017639 Eh          -79040.08521 eV
Kinetic Energy     :       1450.27686422390570 Eh           39464.03979 eV
Virial Ratio       :          2.00283816937573

DFT components:
N(Alpha)           :       56.000016503501 electrons
N(Beta)            :       56.000016503501 electrons
N(Total)           :      112.000033007003 electrons
E(X)               :     -123.784088683172 Eh       
E(C)               :       -3.923337069707 Eh       
E(XC)              :     -127.707425752879 Eh       

---------------
SCF CONVERGENCE
---------------

  Last Energy change         ...   -9.3871e-07  Tolerance :   1.0000e-06
  Last MAX-Density change    ...    2.1358e-04  Tolerance :   1.0000e-05
  Last RMS-Density change    ...    7.9345e-06  Tolerance :   1.0000e-06
  Last DIIS Error            ...    2.2053e-04  Tolerance :   1.0000e-06
  Last Orbital Gradient      ...    2.6686e-04  Tolerance :   3.3300e-04
  Last Orbital Rotation      ...    2.5452e-04  Tolerance :   3.3300e-04


----------------
ORBITAL ENERGIES
----------------

  NO   OCC          E(Eh)            E(eV) 
   0   2.0000    -101.233122     -2754.6933 
   1   2.0000    -101.232857     -2754.6861 
   2   2.0000     -19.016579      -517.4674 
   3   2.0000     -18.988332      -516.6988 
   4   2.0000     -18.951798      -515.7046 
   5   2.0000     -10.183196      -277.0988 
   6   2.0000     -10.127884      -275.5937 
   7   2.0000     -10.123108      -275.4638 
   8   2.0000     -10.116370      -275.2804 
   9   2.0000     -10.081511      -274.3319 
  10   2.0000     -10.081097      -274.3206 
  11   2.0000     -10.071347      -274.0553 
  12   2.0000     -10.067079      -273.9392 
  13   2.0000      -9.389156      -255.4919 
  14   2.0000      -9.388612      -255.4771 
  15   2.0000      -7.135522      -194.1674 
  16   2.0000      -7.135003      -194.1533 
  17   2.0000      -7.125372      -193.8912 
  18   2.0000      -7.124893      -193.8782 
  19   2.0000      -7.124801      -193.8757 
  20   2.0000      -7.124227      -193.8601 
  21   2.0000      -1.094691       -29.7881 
  22   2.0000      -1.038180       -28.2503 
  23   2.0000      -0.996456       -27.1150 
  24   2.0000      -0.889195       -24.1962 
  25   2.0000      -0.857962       -23.3463 
  26   2.0000      -0.804434       -21.8898 
  27   2.0000      -0.763639       -20.7797 
  28   2.0000      -0.712532       -19.3890 
  29   2.0000      -0.672867       -18.3096 
  30   2.0000      -0.654008       -17.7965 
  31   2.0000      -0.593578       -16.1521 
  32   2.0000      -0.583149       -15.8683 
  33   2.0000      -0.514967       -14.0130 
  34   2.0000      -0.498811       -13.5733 
  35   2.0000      -0.491784       -13.3821 
  36   2.0000      -0.461543       -12.5592 
  37   2.0000      -0.457321       -12.4443 
  38   2.0000      -0.445109       -12.1120 
  39   2.0000      -0.436084       -11.8664 
  40   2.0000      -0.425488       -11.5781 
  41   2.0000      -0.414160       -11.2699 
  42   2.0000      -0.391843       -10.6626 
  43   2.0000      -0.390723       -10.6321 
  44   2.0000      -0.378084       -10.2882 
  45   2.0000      -0.366804        -9.9812 
  46   2.0000      -0.354141        -9.6367 
  47   2.0000      -0.334112        -9.0916 
  48   2.0000      -0.311087        -8.4651 
  49   2.0000      -0.301580        -8.2064 
  50   2.0000      -0.296813        -8.0767 
  51   2.0000      -0.293132        -7.9765 
  52   2.0000      -0.273750        -7.4491 
  53   2.0000      -0.258416        -7.0319 
  54   2.0000      -0.246722        -6.7136 
  55   2.0000      -0.232138        -6.3168 
  56   0.0000      -0.077433        -2.1070 
  57   0.0000      -0.057958        -1.5771 
  58   0.0000      -0.026697        -0.7265 
  59   0.0000      -0.008593        -0.2338 
  60   0.0000       0.010588         0.2881 
  61   0.0000       0.051858         1.4111 
  62   0.0000       0.062676         1.7055 
  63   0.0000       0.088821         2.4169 
  64   0.0000       0.096285         2.6200 
  65   0.0000       0.112523         3.0619 
  66   0.0000       0.118529         3.2253 
*Only the first 10 virtual orbitals were printed.

                    ********************************
                    * MULLIKEN POPULATION ANALYSIS *
                    ********************************

-----------------------
MULLIKEN ATOMIC CHARGES
-----------------------
   0 C :   -0.273039
   1 O :   -0.226041
   2 C :    0.171643
   3 C :    0.049938
   4 C :   -0.167866
   5 C :   -0.246465
   6 C :    0.110103
   7 C :    0.055977
   8 C :    0.301793
   9 O :   -0.369697
  10 O :   -0.329648
  11 Cl:   -0.108864
  12 Cl:   -0.112231
  13 H :    0.146143
  14 H :    0.176345
  15 H :    0.152426
  16 H :    0.166026
  17 H :    0.165076
  18 H :    0.338382
Sum of atomic charges:   -0.0000000

--------------------------------
MULLIKEN REDUCED ORBITAL CHARGES
--------------------------------
  0 C s       :     3.314667  s :     3.314667
      pz      :     0.827694  p :     2.913359
      px      :     1.082258
      py      :     1.003407
      dz2     :     0.009136  d :     0.045013
      dxz     :     0.014385
      dyz     :     0.010133
      dx2y2   :     0.005673
      dxy     :     0.005687

  1 O s       :     3.737948  s :     3.737948
      pz      :     1.472264  p :     4.458817
      px      :     1.802351
      py      :     1.184202
      dz2     :     0.009421  d :     0.029277
      dxz     :     0.007510
      dyz     :     0.001804
      dx2y2   :     0.003370
      dxy     :     0.007172

  2 C s       :     3.153982  s :     3.153982
      pz      :     0.967305  p :     2.601407
      px      :     0.859508
      py      :     0.774594
      dz2     :     0.004749  d :     0.072968
      dxz     :     0.008010
      dyz     :     0.011898
      dx2y2   :     0.022105
      dxy     :     0.026207

  3 C s       :     3.196207  s :     3.196207
      pz      :     1.054240  p :     2.701088
      px      :     0.731512
      py      :     0.915337
      dz2     :     0.004085  d :     0.052766
      dxz     :     0.008111
      dyz     :     0.007052
      dx2y2   :     0.015874
      dxy     :     0.017644

  4 C s       :     3.189217  s :     3.189217
      pz      :     0.984742  p :     2.941554
      px      :     1.003470
      py      :     0.953342
      dz2     :     0.003467  d :     0.037095
      dxz     :     0.005165
      dyz     :     0.005027
      dx2y2   :     0.011386
      dxy     :     0.012050

  5 C s       :     3.206008  s :     3.206008
      pz      :     1.010528  p :     3.003783
      px      :     0.978966
      py      :     1.014289
      dz2     :     0.003458  d :     0.036674
      dxz     :     0.006663
      dyz     :     0.002936
      dx2y2   :     0.010828
      dxy     :     0.012789

  6 C s       :     3.219158  s :     3.219158
      pz      :     1.023965  p :     2.615721
      px      :     0.742378
      py      :     0.849378
      dz2     :     0.004019  d :     0.055018
      dxz     :     0.008223
      dyz     :     0.008001
      dx2y2   :     0.017955
      dxy     :     0.016820

  7 C s       :     3.217896  s :     3.217896
      pz      :     1.059755  p :     2.683803
      px      :     0.915570
      py      :     0.708478
      dz2     :     0.004132  d :     0.042323
      dxz     :     0.005596
      dyz     :     0.005747
      dx2y2   :     0.012617
      dxy     :     0.014231

  8 C s       :     3.089800  s :     3.089800
      pz      :     0.783321  p :     2.478842
      px      :     0.840176
      py      :     0.855345
      dz2     :     0.037134  d :     0.129564
      dxz     :     0.029250
      dyz     :     0.022288
      dx2y2   :     0.016073
      dxy     :     0.024820

  9 O s       :     3.837038  s :     3.837038
      pz      :     1.448323  p :     4.508001
      px      :     1.657503
      py      :     1.402176
      dz2     :     0.004854  d :     0.024658
      dxz     :     0.002117
      dyz     :     0.009907
      dx2y2   :     0.005186
      dxy     :     0.002594

 10 O s       :     3.725626  s :     3.725626
      pz      :     1.536126  p :     4.578009
      px      :     1.418529
      py      :     1.623354
      dz2     :     0.008928  d :     0.026013
      dxz     :     0.002462
      dyz     :     0.004298
      dx2y2   :     0.002194
      dxy     :     0.008131

 11 Cls       :     5.943459  s :     5.943459
      pz      :     3.916691  p :    11.109198
      px      :     3.278059
      py      :     3.914448
      dz2     :     0.005988  d :     0.056207
      dxz     :     0.018617
      dyz     :     0.002176
      dx2y2   :     0.016458
      dxy     :     0.012968

 12 Cls       :     5.944365  s :     5.944365
      pz      :     3.919485  p :    11.112964
      px      :     3.273380
      py      :     3.920099
      dz2     :     0.005837  d :     0.054902
      dxz     :     0.018302
      dyz     :     0.002309
      dx2y2   :     0.016164
      dxy     :     0.012290

 13 H s       :     0.835968  s :     0.835968
      pz      :     0.004818  p :     0.017889
      px      :     0.008083
      py      :     0.004988

 14 H s       :     0.805741  s :     0.805741
      pz      :     0.005622  p :     0.017914
      px      :     0.009087
      py      :     0.003205

 15 H s       :     0.829862  s :     0.829862
      pz      :     0.003061  p :     0.017713
      px      :     0.004620
      py      :     0.010032

 16 H s       :     0.814147  s :     0.814147
      pz      :     0.004045  p :     0.019827
      px      :     0.007851
      py      :     0.007931

 17 H s       :     0.815024  s :     0.815024
      pz      :     0.004226  p :     0.019900
      px      :     0.003812
      py      :     0.011863

 18 H s       :     0.621042  s :     0.621042
      pz      :     0.008228  p :     0.040577
      px      :     0.015376
      py      :     0.016972


------------------------
MULLIKEN OVERLAP CHARGES
------------------------
B(  0-C ,  1-O ) :   0.4238 B(  0-C ,  2-C ) :  -0.3546 B(  0-C ,  7-C ) :   0.0609 
B(  0-C , 13-H ) :   0.8021 B(  0-C , 14-H ) :   0.8287 B(  0-C , 15-H ) :   0.7942 
B(  1-O ,  2-C ) :   0.8148 B(  1-O ,  3-C ) :  -0.2566 B(  1-O ,  7-C ) :  -0.3274 
B(  1-O ,  8-C ) :   0.0841 B(  1-O , 13-H ) :  -0.0757 B(  1-O , 14-H ) :  -0.0962 
B(  1-O , 15-H ) :  -0.0870 B(  2-C ,  3-C ) :  -0.4668 B(  2-C ,  4-C ) :   0.5871 
B(  2-C ,  5-C ) :  -0.7009 B(  2-C ,  6-C ) :   0.5923 B(  2-C ,  7-C ) :  -1.0153 
B(  2-C ,  8-C ) :  -0.2103 B(  2-C , 12-Cl) :  -0.2542 B(  3-C ,  4-C ) :   0.0635 
B(  3-C ,  5-C ) :   0.3702 B(  3-C ,  6-C ) :  -0.7407 B(  3-C ,  7-C ) :   0.2558 
B(  3-C ,  8-C ) :   0.0994 B(  3-C , 12-Cl) :   0.6453 B(  4-C ,  5-C ) :   0.0721 
B(  4-C ,  6-C ) :   0.4038 B(  4-C ,  7-C ) :  -0.7145 B(  4-C , 11-Cl) :   0.0500 
B(  4-C , 12-Cl) :  -0.1377 B(  4-C , 16-H ) :   0.7901 B(  5-C ,  6-C ) :   0.0787 
B(  5-C ,  7-C ) :   0.5877 B(  5-C ,  8-C ) :   0.0643 B(  5-C , 11-Cl) :  -0.0989 
B(  5-C , 17-H ) :   0.7752 B(  6-C ,  7-C ) :  -0.9456 B(  6-C ,  8-C ) :  -0.2820 
B(  6-C , 10-O ) :   0.0545 B(  6-C , 11-Cl) :   0.5859 B(  7-C ,  8-C ) :   0.3768 
B(  7-C ,  9-O ) :  -0.1946 B(  7-C , 10-O ) :  -0.2235 B(  7-C , 11-Cl) :  -0.2145 
B(  8-C ,  9-O ) :   1.1196 B(  8-C , 10-O ) :   0.4788 B(  9-O , 10-O ) :  -0.2131 
B( 10-O , 18-H ) :   0.5778 B( 13-H , 14-H ) :  -0.0684 


                     *******************************
                     * LOEWDIN POPULATION ANALYSIS *
                     *******************************

----------------------
LOEWDIN ATOMIC CHARGES
----------------------
   0 C :   -0.044615
   1 O :   -0.695190
   2 C :    0.194590
   3 C :   -0.142464
   4 C :   -0.148145
   5 C :   -0.165908
   6 C :   -0.137144
   7 C :   -0.008886
   8 C :    0.362893
   9 O :   -0.389317
  10 O :   -0.378794
  11 Cl:    0.183791
  12 Cl:    0.173272
  13 H :    0.164931
  14 H :    0.179612
  15 H :    0.179558
  16 H :    0.183530
  17 H :    0.182592
  18 H :    0.305696

-------------------------------
LOEWDIN REDUCED ORBITAL CHARGES
-------------------------------
  0 C s       :     2.906930  s :     2.906930
      pz      :     0.905265  p :     3.030535
      px      :     1.095191
      py      :     1.030079
      dz2     :     0.021546  d :     0.107151
      dxz     :     0.035224
      dyz     :     0.023631
      dx2y2   :     0.013275
      dxy     :     0.013474

  1 O s       :     3.473616  s :     3.473616
      pz      :     1.549506  p :     4.732968
      px      :     1.790146
      py      :     1.393316
      dz2     :     0.103399  d :     0.488607
      dxz     :     0.074381
      dyz     :     0.124239
      dx2y2   :     0.094113
      dxy     :     0.092475

  2 C s       :     2.772365  s :     2.772365
      pz      :     0.919615  p :     2.871054
      px      :     1.033466
      py      :     0.917973
      dz2     :     0.010526  d :     0.161992
      dxz     :     0.014563
      dyz     :     0.024460
      dx2y2   :     0.051551
      dxy     :     0.060892

  3 C s       :     2.887703  s :     2.887703
      pz      :     1.037385  p :     3.141730
      px      :     1.003691
      py      :     1.100654
      dz2     :     0.008209  d :     0.113032
      dxz     :     0.015019
      dyz     :     0.012408
      dx2y2   :     0.036977
      dxy     :     0.040419

  4 C s       :     2.902130  s :     2.902130
      pz      :     0.975213  p :     3.163968
      px      :     1.107482
      py      :     1.081273
      dz2     :     0.006029  d :     0.082047
      dxz     :     0.009123
      dyz     :     0.009214
      dx2y2   :     0.027464
      dxy     :     0.030218

  5 C s       :     2.900611  s :     2.900611
      pz      :     1.000441  p :     3.183836
      px      :     1.087545
      py      :     1.095849
      dz2     :     0.006041  d :     0.081460
      dxz     :     0.012476
      dyz     :     0.004679
      dx2y2   :     0.027365
      dxy     :     0.030899

  6 C s       :     2.883483  s :     2.883483
      pz      :     1.011381  p :     3.135405
      px      :     1.018430
      py      :     1.105594
      dz2     :     0.008011  d :     0.118256
      dxz     :     0.015007
      dyz     :     0.014547
      dx2y2   :     0.041055
      dxy     :     0.039636

  7 C s       :     2.849699  s :     2.849699
      pz      :     1.009581  p :     3.070973
      px      :     1.031494
      py      :     1.029898
      dz2     :     0.007616  d :     0.088214
      dxz     :     0.010062
      dyz     :     0.010250
      dx2y2   :     0.029360
      dxy     :     0.030927

  8 C s       :     2.731772  s :     2.731772
      pz      :     0.879721  p :     2.625133
      px      :     0.833014
      py      :     0.912398
      dz2     :     0.077720  d :     0.280203
      dxz     :     0.065203
      dyz     :     0.054912
      dx2y2   :     0.032661
      dxy     :     0.049707

  9 O s       :     3.549581  s :     3.549581
      pz      :     1.518089  p :     4.629323
      px      :     1.608408
      py      :     1.502826
      dz2     :     0.047923  d :     0.210413
      dxz     :     0.036386
      dyz     :     0.058326
      dx2y2   :     0.033514
      dxy     :     0.034264

 10 O s       :     3.469359  s :     3.469359
      pz      :     1.584113  p :     4.659663
      px      :     1.474525
      py      :     1.601025
      dz2     :     0.061444  d :     0.249772
      dxz     :     0.058097
      dyz     :     0.045635
      dx2y2   :     0.028336
      dxy     :     0.056260

 11 Cls       :     5.637177  s :     5.637177
      pz      :     3.889093  p :    11.062505
      px      :     3.319715
      py      :     3.853698
      dz2     :     0.015017  d :     0.116526
      dxz     :     0.031869
      dyz     :     0.003649
      dx2y2   :     0.039163
      dxy     :     0.026828

 12 Cls       :     5.640177  s :     5.640177
      pz      :     3.893946  p :    11.071220
      px      :     3.311026
      py      :     3.866248
      dz2     :     0.014609  d :     0.115331
      dxz     :     0.031724
      dyz     :     0.003615
      dx2y2   :     0.038853
      dxy     :     0.026530

 13 H s       :     0.793341  s :     0.793341
      pz      :     0.010647  p :     0.041728
      px      :     0.019054
      py      :     0.012027

 14 H s       :     0.777805  s :     0.777805
      pz      :     0.012891  p :     0.042583
      px      :     0.022588
      py      :     0.007103

 15 H s       :     0.780586  s :     0.780586
      pz      :     0.007441  p :     0.039856
      px      :     0.009822
      py      :     0.022593

 16 H s       :     0.770792  s :     0.770792
      pz      :     0.008927  p :     0.045678
      px      :     0.018187
      py      :     0.018564

 17 H s       :     0.771472  s :     0.771472
      pz      :     0.009452  p :     0.045937
      px      :     0.008351
      py      :     0.028134

 18 H s       :     0.579210  s :     0.579210
      pz      :     0.021306  p :     0.115094
      px      :     0.043244
      py      :     0.050544


---------------------------------
LOEWDIN BOND ORDERS (THRESH 0.050000)
---------------------------------
B(  0-C ,  1-O ) :   1.3647 B(  0-C ,  2-C ) :   0.0792 B(  0-C , 13-H ) :   0.8607 
B(  0-C , 14-H ) :   0.8527 B(  0-C , 15-H ) :   0.8641 B(  1-O ,  2-C ) :   1.4212 
B(  1-O ,  3-C ) :   0.1920 B(  1-O ,  7-C ) :   0.1936 B(  1-O , 12-Cl) :   0.0633 
B(  1-O , 13-H ) :   0.1041 B(  1-O , 14-H ) :   0.1035 B(  1-O , 15-H ) :   0.0993 
B(  2-C ,  3-C ) :   1.2596 B(  2-C ,  4-C ) :   0.0925 B(  2-C ,  5-C ) :   0.1029 
B(  2-C ,  6-C ) :   0.0896 B(  2-C ,  7-C ) :   1.2521 B(  2-C ,  8-C ) :   0.0752 
B(  2-C , 12-Cl) :   0.1418 B(  3-C ,  4-C ) :   1.4259 B(  3-C ,  5-C ) :   0.0955 
B(  3-C ,  6-C ) :   0.1035 B(  3-C ,  7-C ) :   0.0899 B(  3-C , 12-Cl) :   1.4070 
B(  3-C , 16-H ) :   0.0535 B(  4-C ,  5-C ) :   1.5003 B(  4-C ,  6-C ) :   0.0951 
B(  4-C ,  7-C ) :   0.1084 B(  4-C , 12-Cl) :   0.1553 B(  4-C , 16-H ) :   0.8629 
B(  4-C , 17-H ) :   0.0541 B(  5-C ,  6-C ) :   1.4228 B(  5-C ,  7-C ) :   0.0909 
B(  5-C , 11-Cl) :   0.1569 B(  5-C , 16-H ) :   0.0540 B(  5-C , 17-H ) :   0.8636 
B(  6-C ,  7-C ) :   1.3480 B(  6-C ,  8-C ) :   0.0783 B(  6-C , 11-Cl) :   1.4083 
B(  6-C , 17-H ) :   0.0536 B(  7-C ,  8-C ) :   0.8591 B(  7-C ,  9-O ) :   0.1766 
B(  7-C , 10-O ) :   0.1698 B(  7-C , 11-Cl) :   0.1493 B(  8-C ,  9-O ) :   2.1870 
B(  8-C , 10-O ) :   1.5087 B(  8-C , 18-H ) :   0.0560 B(  9-O , 10-O ) :   0.4732 
B( 10-O , 11-Cl) :   0.0598 B( 10-O , 18-H ) :   0.9073 

------------------------------------------
LOEWDIN REDUCED ORBITAL POPULATIONS PER MO
-------------------------------------------
THRESHOLD FOR PRINTING IS 0.1%%
                      0         1         2         3         4         5   
                 -101.23312 -101.23286 -19.01658 -18.98833 -18.95180 -10.18320
                   2.00000   2.00000   2.00000   2.00000   2.00000   2.00000
                  --------  --------  --------  --------  --------  --------
 1 O  s               0.0       0.0       0.0      99.9       0.0       0.0
 8 C  s               0.0       0.0       0.0       0.0       0.0      98.9
 9 O  s               0.0       0.0       0.0       0.0      99.9       0.0
 9 O  pz              0.0       0.0       0.0       0.0       0.0       0.1
 9 O  py              0.0       0.0       0.0       0.0       0.0       0.1
 9 O  dyz             0.0       0.0       0.0       0.0       0.0       0.2
10 O  s               0.0       0.0      99.9       0.0       0.0       0.0
10 O  dxz             0.0       0.0       0.0       0.0       0.0       0.2
11 Cl s             100.0       0.0       0.0       0.0       0.0       0.0
12 Cl s               0.0     100.0       0.0       0.0       0.0       0.0

                      6         7         8         9        10        11   
                 -10.12788 -10.12311 -10.11637 -10.08151 -10.08110 -10.07135
                   2.00000   2.00000   2.00000   2.00000   2.00000   2.00000
                  --------  --------  --------  --------  --------  --------
 0 C  s               0.0       0.0       0.0      99.4       0.0       0.0
 1 O  py              0.1       0.0       0.0       0.0       0.0       0.0
 1 O  dyz             0.0       0.0       0.0       0.1       0.0       0.0
 1 O  dx2y2           0.2       0.0       0.0       0.0       0.0       0.0
 2 C  s              99.2       0.0       0.1       0.0       0.0       0.0
 2 C  px              0.0       0.0       0.1       0.0       0.1       0.0
 3 C  s               0.1       0.0      99.5       0.0       0.0       0.0
 3 C  py              0.1       0.0       0.0       0.0       0.0       0.1
 4 C  s               0.0       0.0       0.0       0.0       0.0      99.3
 4 C  py              0.0       0.0       0.1       0.0       0.0       0.0
 5 C  s               0.0       0.0       0.0       0.0       0.0       0.3
 5 C  px              0.0       0.1       0.0       0.0       0.0       0.1
 6 C  s               0.0      99.5       0.0       0.0       0.0       0.0
 6 C  py              0.0       0.0       0.0       0.0       0.1       0.0
 7 C  s               0.0       0.0       0.0       0.0      99.5       0.0
 7 C  px              0.1       0.0       0.0       0.0       0.0       0.0
 7 C  py              0.0       0.1       0.0       0.0       0.0       0.0

                     12        13        14        15        16        17   
                 -10.06708  -9.38916  -9.38861  -7.13552  -7.13500  -7.12537
                   2.00000   2.00000   2.00000   2.00000   2.00000   2.00000
                  --------  --------  --------  --------  --------  --------
 3 C  px              0.0       0.0       0.2       0.0       0.0       0.0
 4 C  s               0.3       0.0       0.0       0.0       0.0       0.0
 4 C  px              0.1       0.0       0.0       0.0       0.0       0.0
 5 C  s              99.3       0.0       0.0       0.0       0.0       0.0
 6 C  px              0.1       0.2       0.0       0.0       0.0       0.0
11 Cl s               0.0      99.8       0.0       0.0       0.0       0.0
11 Cl pz              0.0       0.0       0.0       0.2       0.0      96.4
11 Cl px              0.0       0.0       0.0      93.3       0.0       0.0
11 Cl py              0.0       0.0       0.0       6.5       0.0       3.6
12 Cl s               0.0       0.0      99.8       0.0       0.0       0.0
12 Cl pz              0.0       0.0       0.0       0.0       0.2       0.0
12 Cl px              0.0       0.0       0.0       0.0      95.0       0.0
12 Cl py              0.0       0.0       0.0       0.0       4.8       0.0

                     18        19        20        21        22        23   
                  -7.12489  -7.12480  -7.12423  -1.09469  -1.03818  -0.99646
                   2.00000   2.00000   2.00000   2.00000   2.00000   2.00000
                  --------  --------  --------  --------  --------  --------
 0 C  s               0.0       0.0       0.0       0.0       6.3       0.1
 0 C  pz              0.0       0.0       0.0       0.0       4.4       0.0
 0 C  px              0.0       0.0       0.0       0.0       0.5       0.0
 0 C  py              0.0       0.0       0.0       0.0       1.9       0.0
 0 C  dz2             0.0       0.0       0.0       0.0       0.2       0.0
 0 C  dyz             0.0       0.0       0.0       0.0       0.3       0.0
 1 O  s               0.0       0.0       0.0       0.2      54.7       0.6
 1 O  pz              0.0       0.0       0.0       0.0       1.6       0.0
 1 O  py              0.0       0.0       0.0       0.0       1.1       0.0
 1 O  dx2y2           0.0       0.0       0.0       0.0       0.2       0.0
 1 O  dxy             0.0       0.0       0.0       0.0       0.1       0.0
 2 C  s               0.0       0.0       0.0       0.2       9.9       0.0
 2 C  px              0.0       0.0       0.0       0.2       0.7       0.2
 2 C  py              0.0       0.0       0.0       0.0       7.4       0.1
 2 C  dz2             0.0       0.0       0.0       0.0       0.3       0.0
 2 C  dx2y2           0.0       0.0       0.0       0.0       0.4       0.0
 2 C  dxy             0.0       0.0       0.0       0.0       0.2       0.0
 3 C  s               0.0       0.0       0.0       0.0       1.1       0.0
 3 C  px              0.0       0.0       0.0       0.0       0.2       0.0
 3 C  py              0.0       0.0       0.0       0.0       1.2       0.0
 4 C  s               0.0       0.0       0.0       0.0       0.1       0.0
 4 C  py              0.0       0.0       0.0       0.0       0.2       0.0
 6 C  s               0.0       0.0       0.0       0.1       0.1       0.0
 6 C  py              0.0       0.0       0.0       0.3       0.1       0.0
 7 C  s               0.0       0.0       0.0       1.2       0.9       0.1
 7 C  pz              0.0       0.0       0.0       0.0       0.0       0.2
 7 C  px              0.0       0.0       0.0       1.1       1.4       0.1
 7 C  py              0.0       0.0       0.0       1.1       0.3       0.3
 8 C  s               0.0       0.0       0.0      17.8       0.0       3.4
 8 C  pz              0.0       0.0       0.0       1.0       0.2      16.5
 8 C  px              0.0       0.0       0.0       3.0       0.7       1.3
 8 C  py              0.0       0.0       0.0       1.0       0.0       6.8
 8 C  dz2             0.0       0.0       0.0       0.2       0.0       0.0
 8 C  dxz             0.0       0.0       0.0       0.6       0.0       0.4
 8 C  dyz             0.0       0.0       0.0       0.4       0.0       1.0
 8 C  dx2y2           0.0       0.0       0.0       0.0       0.0       0.6
 9 O  s               0.0       0.0       0.0      12.8       0.1      41.5
 9 O  pz              0.0       0.0       0.0       1.9       0.0       1.5
 9 O  py              0.0       0.0       0.0       1.4       0.0       2.1
 9 O  dz2             0.0       0.0       0.0       0.3       0.0       0.1
 9 O  dxz             0.0       0.0       0.0       0.1       0.0       0.1
 9 O  dyz             0.0       0.0       0.0       1.0       0.0       0.1
10 O  s               0.0       0.0       0.0      41.8       0.7      17.5
10 O  pz              0.0       0.0       0.0       2.3       0.0       0.5
10 O  px              0.0       0.0       0.0       0.3       0.0       0.2
10 O  py              0.0       0.0       0.0       0.7       0.0       0.1
10 O  dz2             0.0       0.0       0.0       0.2       0.0       0.4
10 O  dxz             0.0       0.0       0.0       0.5       0.0       0.3
10 O  dyz             0.0       0.0       0.0       0.1       0.0       0.3
10 O  dxy             0.0       0.0       0.0       0.0       0.0       0.1
11 Cl pz              0.0       3.4       0.0       0.0       0.0       0.0
11 Cl px              0.0       6.6       0.0       0.0       0.0       0.0
11 Cl py              0.0      90.0       0.0       0.0       0.0       0.0
12 Cl s               0.0       0.0       0.0       0.0       0.1       0.0
12 Cl pz             98.2       0.0       1.5       0.0       0.0       0.0
12 Cl px              0.0       0.0       5.0       0.0       0.1       0.0
12 Cl py              1.7       0.0      93.5       0.0       0.0       0.0
13 H  s               0.0       0.0       0.0       0.0       0.4       0.0
14 H  s               0.0       0.0       0.0       0.0       0.4       0.0
15 H  s               0.0       0.0       0.0       0.0       0.4       0.0
18 H  s               0.0       0.0       0.0       6.1       0.1       2.5
18 H  px              0.0       0.0       0.0       0.7       0.0       0.3
18 H  py              0.0       0.0       0.0       0.7       0.0       0.4

                     24        25        26        27        28        29   
                  -0.88920  -0.85796  -0.80443  -0.76364  -0.71253  -0.67287
                   2.00000   2.00000   2.00000   2.00000   2.00000   2.00000
                  --------  --------  --------  --------  --------  --------
 0 C  s               0.3       0.1       0.4       2.2       6.0      16.4
 0 C  pz              0.2       0.1       0.1       0.3       0.1       0.2
 0 C  py              0.1       0.1       0.0       0.1       0.1       0.4
 1 O  s               1.5       0.6       0.3       0.9       0.0       1.3
 1 O  pz              0.1       0.0       0.1       0.5       1.4       4.0
 1 O  px              0.0       0.0       0.3       0.7       0.4       1.0
 1 O  py              0.6       0.3       0.7       2.8       6.2       6.5
 1 O  dz2             0.2       0.1       0.1       0.5       0.4       0.4
 1 O  dxz             0.0       0.0       0.0       0.0       0.1       0.2
 1 O  dyz             0.0       0.0       0.0       0.1       0.4       0.6
 1 O  dx2y2           0.1       0.1       0.1       0.1       0.5       0.0
 1 O  dxy             0.0       0.1       0.3       0.2       0.0       0.1
 2 C  s               3.9       0.8       3.2       5.2       6.1       0.3
 2 C  pz              0.0       0.0       0.0       0.0       0.1       0.7
 2 C  px              0.1       2.8       2.3       3.1       2.7       0.0
 2 C  py              4.5       1.5       1.1       0.1       0.6       3.8
 2 C  dx2y2           0.0       0.0       0.0       0.1       0.1       0.1
 2 C  dxy             0.0       0.1       0.0       0.0       0.1       0.1
 3 C  s              10.3      13.5       0.1       0.1       5.9       3.7
 3 C  px              0.0       4.8      10.9       0.1       5.2       0.8
 3 C  py              0.1       0.1       0.8       6.5       0.1       2.5
 3 C  dz2             0.1       0.2       0.0       0.0       0.0       0.0
 3 C  dx2y2           0.0       0.1       0.1       0.1       0.2       0.1
 3 C  dxy             0.0       0.0       0.0       0.1       0.1       0.0
 4 C  s               7.5       2.5       3.2      13.5       0.9       2.8
 4 C  px              0.6       1.3       1.6       1.6       1.1       2.8
 4 C  py              1.3       2.0       0.0       0.5       1.7       1.8
 4 C  dx2y2           0.0       0.0       0.0       0.0       0.2       0.2
 5 C  s               9.0       0.3       3.0      13.5       3.3       5.5
 5 C  px              0.1       2.9       1.4       1.8       1.3       2.9
 5 C  py              2.4       0.1       0.4       0.2       0.3       0.1
 5 C  dz2             0.1       0.0       0.0       0.1       0.0       0.0
 6 C  s              17.6       7.2       0.1       0.0       5.1       2.3
 6 C  px              0.1       4.1      12.3       0.7       3.8       1.8
 6 C  py              0.0       0.1       1.2       9.4       0.5       3.2
 6 C  dz2             0.2       0.1       0.0       0.0       0.0       0.0
 6 C  dx2y2           0.0       0.0       0.2       0.1       0.2       0.0
 6 C  dxy             0.0       0.0       0.0       0.2       0.1       0.1
 7 C  s               8.3       0.9       5.1      12.7       3.4       0.6
 7 C  px              0.1       1.3       1.6       0.1       3.8       0.5
 7 C  py              3.0       0.8       0.0       1.1       0.9       0.7
 7 C  dz2             0.1       0.0       0.1       0.1       0.0       0.0
 7 C  dx2y2           0.0       0.0       0.0       0.0       0.2       0.0
 8 C  s               0.3       0.1       0.2       1.6       1.0       1.1
 8 C  pz              0.0       0.0       0.0       0.1       0.1       0.2
 8 C  px              0.5       0.1       0.7       2.3       0.5       0.2
 8 C  py              1.5       0.5       0.4       3.5       1.7       1.3
 9 O  s               0.1       0.0       0.2       0.9       0.3       0.3
 9 O  py              0.0       0.0       0.0       0.2       0.1       0.1
 9 O  dyz             0.0       0.0       0.0       0.1       0.1       0.1
 9 O  dx2y2           0.0       0.0       0.0       0.1       0.0       0.0
 9 O  dxy             0.0       0.0       0.0       0.1       0.0       0.0
10 O  s               0.1       0.1       0.0       0.4       0.2       0.2
10 O  pz              0.0       0.0       0.0       0.3       0.3       0.7
10 O  px              0.1       0.0       0.1       1.1       1.2       1.9
10 O  py              0.1       0.0       0.0       0.5       0.4       0.8
10 O  dxz             0.0       0.0       0.0       0.2       0.1       0.1
11 Cl s              13.1      18.0      24.9       0.1      11.1       1.9
11 Cl px              1.5       1.0       0.2       0.0       1.1       0.6
11 Cl py              0.1       0.1       0.0       0.1       0.1       0.0
11 Cl dz2             0.1       0.1       0.0       0.0       0.1       0.0
11 Cl dx2y2           0.2       0.2       0.0       0.0       0.1       0.1
12 Cl s               6.2      27.8      20.5       1.4      10.8       3.3
12 Cl px              0.8       1.6       0.2       0.0       1.2       0.7
12 Cl py              0.1       0.1       0.0       0.0       0.0       0.1
12 Cl dz2             0.1       0.1       0.0       0.0       0.1       0.0
12 Cl dx2y2           0.1       0.3       0.0       0.0       0.1       0.0
13 H  s               0.0       0.0       0.1       0.3       1.1       3.8
13 H  px              0.0       0.0       0.0       0.0       0.0       0.2
14 H  s               0.0       0.0       0.0       0.3       1.1       3.8
14 H  pz              0.0       0.0       0.0       0.0       0.0       0.1
14 H  px              0.0       0.0       0.0       0.0       0.1       0.2
15 H  s               0.1       0.0       0.1       0.5       1.5       4.5
15 H  py              0.0       0.0       0.0       0.0       0.1       0.3
16 H  s               0.7       0.3       0.3       2.0       0.1       0.7
16 H  px              0.0       0.0       0.0       0.1       0.0       0.0
17 H  s               0.8       0.0       0.2       2.1       0.6       1.6
17 H  py              0.0       0.0       0.0       0.2       0.1       0.1
18 H  s               0.1       0.0       0.0       0.5       0.5       0.9

                     30        31        32        33        34        35   
                  -0.65401  -0.59358  -0.58315  -0.51497  -0.49881  -0.49178
                   2.00000   2.00000   2.00000   2.00000   2.00000   2.00000
                  --------  --------  --------  --------  --------  --------
 0 C  s               6.4       0.5       3.5       0.5       0.1       1.4
 0 C  pz              0.4       0.3       3.3       3.6       1.0      10.9
 0 C  px              0.1       0.3       0.0       0.2       1.7       0.0
 0 C  py              0.1       0.0       0.3       0.1       0.5       0.1
 0 C  dz2             0.0       0.0       0.1       0.1       0.0       0.2
 1 O  s               1.6       0.5       3.4       1.0       0.2       0.6
 1 O  pz              1.7       0.1       0.7       0.1       0.0       0.6
 1 O  px              0.6       1.0       1.1       0.1       2.9       4.7
 1 O  py              0.7       0.6       1.3       5.9       4.8      12.2
 1 O  dz2             0.1       0.0       0.0       0.1       0.0       0.4
 1 O  dxz             0.1       0.1       0.0       0.0       0.1       0.0
 1 O  dyz             0.1       0.0       0.1       0.0       0.0       0.1
 1 O  dx2y2           0.4       0.4       0.0       0.0       0.1       0.0
 1 O  dxy             0.0       0.2       0.6       0.1       0.3       0.2
 2 C  s               1.4       0.7       3.8       0.0       0.2       0.6
 2 C  pz              0.4       0.0       0.1       0.1       0.0       0.4
 2 C  px              0.1       9.1       4.2       3.3       6.5       1.4
 2 C  py              4.7       1.3       0.2       2.7       0.0       5.9
 2 C  dx2y2           0.1       0.0       0.2       0.0       0.0       0.1
 2 C  dxy             0.0       0.2       0.0       0.1       0.0       0.2
 3 C  s               0.4       1.8       2.4       1.4       1.2       1.0
 3 C  px              1.1       0.8       0.2       3.7       0.8       0.4
 3 C  py              4.5       8.1       2.3       0.5       7.1       3.8
 4 C  s               6.4       4.4       0.0       0.1       0.7       1.0
 4 C  px              0.2       1.9       3.7       3.3       2.9       5.1
 4 C  py              1.7       0.8       4.7       0.9      10.3       0.1
 4 C  dx2y2           0.0       0.0       0.1       0.0       0.1       0.0
 5 C  s               0.6       1.6       4.3       0.3       0.0       1.4
 5 C  px              3.9       4.4       0.9       2.2      12.5       0.5
 5 C  py              1.4       0.1       4.8       4.8       0.8       2.5
 5 C  dxy             0.1       0.0       0.0       0.0       0.0       0.1
 6 C  s               2.3       0.1       5.9       0.5       0.0       1.9
 6 C  px              0.8       0.2       0.1       3.8       0.4       0.1
 6 C  py              0.1       6.0       3.8       0.7      13.4       0.1
 6 C  dxy             0.0       0.1       0.0       0.1       0.0       0.0
 7 C  s               0.0       4.2       0.2       0.0       0.0       0.4
 7 C  pz              0.3       0.2       0.0       0.2       0.1       0.5
 7 C  px              4.1       0.1       6.6       7.1       2.9       2.5
 7 C  py              5.4       0.0      10.4       2.9       7.1       1.5
 7 C  dx2y2           0.0       0.0       0.3       0.0       0.0       0.0
 7 C  dxy             0.1       0.1       0.0       0.0       0.1       0.4
 8 C  s               4.6       1.5       0.1       0.3       0.3       0.8
 8 C  pz              1.6       2.9       0.0       1.9       0.5       2.4
 8 C  px              0.4       2.7       1.5       3.6       3.2       2.6
 8 C  py              2.9       0.0       0.0       2.3       0.8       2.6
 8 C  dz2             0.0       0.1       0.0       0.0       0.0       0.0
 9 O  s               1.4       0.1       0.2       0.2       0.6       0.7
 9 O  pz              0.4       0.4       0.0       0.2       1.0       0.0
 9 O  px              0.0       0.4       0.4       1.1       1.4       0.7
 9 O  py              0.7       0.0       0.0       1.3       0.1       3.4
 9 O  dz2             0.0       0.1       0.0       0.2       0.0       0.1
 9 O  dxz             0.1       0.0       0.0       0.0       0.1       0.1
 9 O  dyz             0.4       0.1       0.0       0.0       0.0       0.0
 9 O  dx2y2           0.2       0.0       0.0       0.1       0.0       0.2
 9 O  dxy             0.0       0.1       0.1       0.2       0.1       0.1
10 O  s               0.8       0.5       0.0       0.2       0.0       0.1
10 O  pz              3.9       7.4       0.2       2.9       0.5       1.6
10 O  px             10.7      13.9       0.0       3.3       0.5       2.7
10 O  py              3.4       2.7       0.1       0.0       1.0       0.1
10 O  dz2             0.1       0.2       0.0       0.0       0.1       0.0
10 O  dxz             0.3       0.1       0.0       0.1       0.0       0.1
10 O  dyz             0.1       0.0       0.0       0.2       0.0       0.2
10 O  dx2y2           0.1       0.0       0.0       0.1       0.1       0.0
10 O  dxy             0.0       0.3       0.0       0.2       0.0       0.1
11 Cl s               0.7       0.4       4.0       3.2       0.0       0.6
11 Cl px              0.3       0.4       3.1       6.6       0.5       2.9
11 Cl py              0.0       0.1       1.1       0.3       2.3       0.0
11 Cl dz2             0.0       0.0       0.1       0.1       0.0       0.0
11 Cl dx2y2           0.1       0.0       0.1       0.2       0.1       0.2
11 Cl dxy             0.0       0.0       0.3       0.0       0.3       0.0
12 Cl s               0.1       1.2       2.3       3.9       0.3       0.1
12 Cl px              0.1       1.3       1.8       8.4       0.8       1.1
12 Cl py              0.1       0.3       0.4       0.3       2.4       0.4
12 Cl dz2             0.0       0.0       0.1       0.1       0.0       0.0
12 Cl dx2y2           0.0       0.2       0.1       0.3       0.0       0.1
12 Cl dxy             0.0       0.0       0.1       0.0       0.4       0.0
13 H  s               1.9       0.4       1.9       1.2       1.3       2.2
14 H  s               1.7       0.1       2.0       0.7       0.0       3.0
14 H  px              0.1       0.0       0.1       0.0       0.0       0.2
15 H  s               1.8       0.1       1.0       0.0       0.0       0.2
15 H  py              0.1       0.0       0.0       0.0       0.0       0.0
16 H  s               2.6       3.2       0.0       1.0       1.3       2.6
16 H  px              0.1       0.1       0.0       0.0       0.1       0.0
16 H  py              0.1       0.1       0.0       0.0       0.0       0.1
17 H  s               0.3       0.9       3.7       2.5       0.0       2.3
17 H  py              0.0       0.1       0.2       0.1       0.0       0.1
18 H  s               4.7       5.8       0.1       1.1       0.0       0.7
18 H  px              0.2       0.1       0.0       0.0       0.0       0.0
18 H  py              0.3       0.4       0.0       0.1       0.0       0.1

                     36        37        38        39        40        41   
                  -0.46154  -0.45732  -0.44511  -0.43608  -0.42549  -0.41416
                   2.00000   2.00000   2.00000   2.00000   2.00000   2.00000
                  --------  --------  --------  --------  --------  --------
 0 C  s               0.0       0.1       0.7       0.0       0.1       0.0
 0 C  pz              0.5       3.9       0.4       0.6       0.0       1.0
 0 C  px              0.7       0.0       4.9       0.2       0.3      28.9
 0 C  py              0.7       0.3      15.6       0.3       3.2       3.7
 0 C  dxz             0.0       0.0       0.0       0.0       0.0       0.1
 0 C  dyz             0.0       0.0       0.2       0.0       0.0       0.0
 1 O  s               0.1       0.0       1.2       0.0       0.2       0.0
 1 O  pz              0.3       0.1      26.5       0.1       1.6       0.1
 1 O  px              0.0       0.4       0.3       0.3       1.3      12.4
 1 O  py              1.5       4.9       0.3       0.4       0.1       0.7
 1 O  dz2             0.1       0.3       0.6       0.1       0.0       0.1
 1 O  dxz             0.0       0.0       0.2       0.0       0.0       1.2
 1 O  dyz             0.1       0.0       1.5       0.0       0.1       0.3
 1 O  dx2y2           0.0       0.2       0.1       0.0       0.2       0.3
 1 O  dxy             0.0       0.1       0.1       0.0       0.2       0.5
 2 C  s               0.0       0.8       0.1       0.5       0.3       0.0
 2 C  pz              0.6       0.1      14.1       0.0       0.2       0.0
 2 C  px              0.2       1.7       0.2       0.6       1.0       0.5
 2 C  py              0.5       3.0       0.1       1.7       0.0       0.0
 2 C  dx2y2           0.0       0.2       0.0       0.0       0.0       0.1
 2 C  dxy             0.0       0.0       0.0       0.1       0.0       0.2
 3 C  s               0.1       0.0       0.0       0.1       0.0       0.4
 3 C  pz              0.3       0.0       5.4       0.0       0.1       0.2
 3 C  px              0.2       0.5       0.1      13.6       0.2       0.0
[...]
12 Cl px              0.0       0.1       0.0       0.0       0.1       0.0
13 H  s               0.0       0.0       0.3       0.0       0.0       0.0
13 H  px              0.0       0.0       0.2       0.0       0.0       0.0
13 H  py              0.0       0.0       0.3       0.0       0.1       0.0
14 H  s               0.0       0.0       0.3       0.0       0.0       0.0
14 H  px              0.0       0.0       0.6       0.1       0.1       0.0
15 H  s               0.0       0.0       0.2       0.0       0.2       0.0
15 H  pz              0.0       0.0       0.7       0.0       0.2       0.0
15 H  py              0.0       0.0       0.2       0.0       0.1       0.0
16 H  s               0.3       5.1       0.1       0.0       0.1       0.0
16 H  px              0.4       5.3       0.1       0.0       0.1       0.0
16 H  py              0.4       6.7       0.1       0.0       0.1       0.0
17 H  s               0.2       5.6       0.1       0.0       0.1       0.0
17 H  px              0.0       0.9       0.0       0.0       0.0       0.0
17 H  py              0.5      12.5       0.2       0.0       0.1       0.0
18 H  s               0.0       0.0       0.0       2.2       0.1       1.1
18 H  pz              1.5       0.0       0.0       0.0       0.0       0.0
18 H  px              0.0       0.0       0.0       2.0       0.1       0.8
18 H  py              0.6       0.0       0.0       2.1       0.1       0.8

                    294       295       296       297       298       299   
                   4.57592  21.33499  21.82902  21.93898  22.03299  22.10287
                   0.00000   0.00000   0.00000   0.00000   0.00000   0.00000
                  --------  --------  --------  --------  --------  --------
 0 C  s               0.0       0.0       0.3       4.1      90.6       3.3
 2 C  s               0.0      10.2       0.9      23.0       0.0       5.3
 2 C  px              0.0       0.0       0.2       0.0       0.0       0.0
 3 C  s               0.0      19.7      44.1       2.9       0.8      21.0
 4 C  s               0.0      13.0      12.2      12.2       1.7      19.8
 5 C  s               0.0      13.2       0.8      30.2       4.4       5.7
 6 C  s               0.0      24.6      25.2       4.7       1.0      31.0
 6 C  py              0.0       0.0       0.0       0.1       0.0       0.0
 7 C  s               0.0      18.8      14.5      21.7       0.9      13.4
 7 C  dxy             0.1       0.0       0.0       0.0       0.0       0.0
 8 C  s               0.3       0.1       1.2       0.5       0.0       0.0
 8 C  pz              3.1       0.0       0.0       0.0       0.0       0.0
 8 C  px              0.4       0.0       0.0       0.0       0.0       0.0
 8 C  py              1.0       0.0       0.0       0.0       0.0       0.0
 8 C  dz2             0.3       0.0       0.0       0.0       0.0       0.0
 8 C  dxz             1.4       0.0       0.0       0.0       0.0       0.0
 8 C  dyz             1.0       0.0       0.0       0.0       0.0       0.0
 8 C  dx2y2           1.2       0.0       0.0       0.0       0.0       0.0
 8 C  dxy             0.3       0.0       0.0       0.0       0.0       0.0
 9 O  s               3.2       0.0       0.0       0.0       0.0       0.0
 9 O  pz              2.1       0.0       0.0       0.0       0.0       0.0
 9 O  py              1.8       0.0       0.0       0.0       0.0       0.0
 9 O  dz2             0.9       0.0       0.0       0.0       0.0       0.0
 9 O  dyz             4.3       0.0       0.0       0.0       0.0       0.0
 9 O  dx2y2           0.8       0.0       0.0       0.0       0.0       0.0
 9 O  dxy             0.2       0.0       0.0       0.0       0.0       0.0
10 O  s               3.3       0.0       0.0       0.0       0.0       0.0
10 O  pz              1.5       0.0       0.0       0.0       0.0       0.0
10 O  px             10.7       0.0       0.0       0.0       0.0       0.0
10 O  py              7.0       0.0       0.0       0.0       0.0       0.0
10 O  dz2             9.9       0.0       0.0       0.0       0.0       0.0
10 O  dxz             1.6       0.0       0.0       0.0       0.0       0.0
10 O  dx2y2           1.3       0.0       0.0       0.0       0.0       0.0
10 O  dxy            19.8       0.0       0.0       0.0       0.0       0.0
18 H  s              10.2       0.0       0.0       0.0       0.0       0.0
18 H  px              5.4       0.0       0.0       0.0       0.0       0.0
18 H  py              6.6       0.0       0.0       0.0       0.0       0.0

                    300       301       302       303       304       305   
                  22.17810  22.28760  22.31664  25.41246  25.47969  43.65360
                   0.00000   0.00000   0.00000   0.00000   0.00000   0.00000
                  --------  --------  --------  --------  --------  --------
 0 C  s               1.0       0.2       0.0       0.0       0.0       0.0
 1 O  s               0.0       0.0       0.0       0.0       0.0       0.4
 2 C  s              28.4       6.4      25.4       0.0       0.0       0.0
 3 C  s               0.0       1.2       9.6       0.0       0.0       0.0
 3 C  px              0.0       0.0       0.0       0.3       0.1       0.0
 4 C  s              28.1       3.4       9.1       0.0       0.0       0.0
 5 C  s              32.1       1.9      11.1       0.0       0.0       0.0
 6 C  s               1.5       1.2      10.2       0.0       0.0       0.0
 6 C  px              0.0       0.0       0.0       0.1       0.3       0.0
 7 C  s               8.4       9.5      12.5       0.0       0.0       0.0
 8 C  s               0.2      75.4      21.4       0.1       0.0       0.1
 9 O  s               0.0       0.2       0.1       0.0       0.0      15.1
10 O  s               0.0       0.1       0.0       0.0       0.0      84.3
11 Cl s               0.0       0.0       0.0      24.7      74.4       0.0
12 Cl s               0.0       0.0       0.0      74.4      24.7       0.0

                    306       307   
                  43.68890  43.80961
                   0.00000   0.00000
                  --------  --------
 1 O  s               7.7      91.7
 9 O  s              76.9       7.9
10 O  s              15.3       0.2


                      *****************************
                      * MAYER POPULATION ANALYSIS *
                      *****************************

  NA   - Mulliken gross atomic population
  ZA   - Total nuclear charge
  QA   - Mulliken gross atomic charge
  VA   - Mayer's total valence
  BVA  - Mayer's bonded valence
  FA   - Mayer's free valence

  ATOM       NA         ZA         QA         VA         BVA        FA
  0 C      6.2730     6.0000    -0.2730     3.7153     3.7153     0.0000
  1 O      8.2260     8.0000    -0.2260     1.9616     1.9616    -0.0000
  2 C      5.8284     6.0000     0.1716     3.8519     3.8519    -0.0000
  3 C      5.9501     6.0000     0.0499     3.6110     3.6110     0.0000
  4 C      6.1679     6.0000    -0.1679     3.7134     3.7134     0.0000
  5 C      6.2465     6.0000    -0.2465     3.7848     3.7848    -0.0000
  6 C      5.8899     6.0000     0.1101     3.6056     3.6056    -0.0000
  7 C      5.9440     6.0000     0.0560     3.3905     3.3905     0.0000
  8 C      5.6982     6.0000     0.3018     4.0481     4.0481    -0.0000
  9 O      8.3697     8.0000    -0.3697     1.9918     1.9918    -0.0000
 10 O      8.3296     8.0000    -0.3296     1.9740     1.9740    -0.0000
 11 Cl    17.1089    17.0000    -0.1089     1.1793     1.1793     0.0000
 12 Cl    17.1122    17.0000    -0.1122     1.1717     1.1717    -0.0000
 13 H      0.8539     1.0000     0.1461     0.9583     0.9583     0.0000
 14 H      0.8237     1.0000     0.1763     0.9524     0.9524     0.0000
 15 H      0.8476     1.0000     0.1524     0.9582     0.9582    -0.0000
 16 H      0.8340     1.0000     0.1660     0.9645     0.9645     0.0000
 17 H      0.8349     1.0000     0.1651     0.9647     0.9647    -0.0000
 18 H      0.6616     1.0000     0.3384     0.8915     0.8915    -0.0000

  Mayer bond orders larger than 0.100000
B(  0-C ,  1-O ) :   0.8364 B(  0-C , 13-H ) :   0.9551 B(  0-C , 14-H ) :   0.9562 
B(  0-C , 15-H ) :   0.9724 B(  1-O ,  2-C ) :   1.1881 B(  2-C ,  3-C ) :   1.2724 
B(  2-C ,  7-C ) :   1.3604 B(  3-C ,  4-C ) :   1.2960 B(  3-C , 12-Cl) :   1.0513 
B(  4-C ,  5-C ) :   1.3324 B(  4-C , 16-H ) :   0.9423 B(  5-C ,  6-C ) :   1.3204 
B(  5-C , 17-H ) :   0.9345 B(  6-C ,  7-C ) :   1.2196 B(  6-C , 11-Cl) :   1.0059 
B(  7-C ,  8-C ) :   0.9179 B(  8-C ,  9-O ) :   1.9333 B(  8-C , 10-O ) :   1.0747 
B( 10-O , 18-H ) :   0.8529 

-------
TIMINGS
-------

Total SCF time: 0 days 0 hours 0 min 48 sec 

Total time                  ....      48.748 sec
Sum of individual times     ....      47.907 sec  ( 98.3%)

SCF preparation             ....       0.247 sec  (  0.5%)
Fock matrix formation       ....      45.969 sec  ( 94.3%)
  Startup                   ....       0.104 sec  (  0.2% of F)
  Split-RI-J                ....      12.314 sec  ( 26.8% of F)
  XC integration            ....      32.754 sec  ( 71.3% of F)
    XC Preparation          ....       0.000 sec  (  0.0% of XC)
    Basis function eval.    ....       5.552 sec  ( 17.0% of XC)
    Density eval.           ....      11.184 sec  ( 34.1% of XC)
    XC-Functional eval.     ....       3.066 sec  (  9.4% of XC)
    XC-Potential eval.      ....      11.631 sec  ( 35.5% of XC)
Diagonalization             ....       0.000 sec  (  0.0%)
Density matrix formation    ....       0.402 sec  (  0.8%)
Total Energy calculation    ....       0.051 sec  (  0.1%)
Population analysis         ....       0.204 sec  (  0.4%)
Orbital Transformation      ....       0.095 sec  (  0.2%)
Orbital Orthonormalization  ....       0.000 sec  (  0.0%)
DIIS solution               ....       0.781 sec  (  1.6%)
  MO trafo                  ....       0.000 sec  (  0.0 % of DIIS)
  Orb grad                  ....       0.000 sec  (  0.0 % of DIIS)
  Energy W gradient         ....       0.000 sec  (  0.0 % of DIIS)
  DIIS error                ....       0.053 sec  (  6.8 % of DIIS)
  DIIS work                 ....       0.647 sec  ( 82.8 % of DIIS)
  Form Q                    ....       0.000 sec  (  0.0 % of DIIS)
  Form QpQm                 ....       0.000 sec  (  0.0 % of DIIS)
  Exp/Cayley                ....       0.000 sec  (  0.0 % of DIIS)
  Orb update                ....       0.000 sec  (  0.0 % of DIIS)
  Wake-sleep                ....       0.034 sec  (  4.3 % of DIIS)
SOSCF solution              ....       0.157 sec  (  0.3%)
  MO trafo                  ....       0.092 sec  ( 58.6 % of SOSCF)
  Orb grad                  ....       0.001 sec  (  0.9 % of SOSCF)
  Rot update                ....       0.017 sec  ( 10.8 % of SOSCF)
  Step                      ....       0.046 sec  ( 29.6 % of SOSCF)
Finished LeanSCF after  48.9 sec

Maximum memory used throughout the entire LEANSCF-calculation: 35.3 MB


-------------------------------------------------------------------------------
                          DFT DISPERSION CORRECTION                            
                                                                               
                                DFTD4 V3.4.0                                   
-------------------------------------------------------------------------------
The R2SCAN3C composite method is recognized
Using three-body term ABC
Active option DFTDOPT                   ...         5   

-------------------------   ----------------
Dispersion correction           -0.008720986
-------------------------   ----------------

------------------   -----------------
gCP correction             0.012628817
------------------   -----------------

-------------------------   --------------------
FINAL SINGLE POINT ENERGY     -1454.389087775093
-------------------------   --------------------


------------------------------------------------------------------------------
                              ORCA PROPERTY CALCULATIONS
------------------------------------------------------------------------------

GBWName                                 ... sp_gas.gbw
Number of atoms                         ...     19
Number of basis functions               ...    308
Max core memory                         ...   1024 MB

Electric properties:
Dipole moment                           ... YES
Quadrupole moment                       ...  NO
Static polarizability (Dipole/Dipole)   ...  NO
Static polarizability (Dipole/Quad.)    ...  NO
Static polarizability (Quad./Quad.)     ...  NO
Static polarizability (Velocity)        ...  NO

Atomic electric properties:
Dipole moment                           ...  NO
Quadrupole moment                       ...  NO
Static polarizability                   ...  NO

Choice of electric origin               ... Center of mass
Position of electric origin             ...     0.000013     0.000014    -0.000005

General magnetic properties:
Magnetizability                         ...  NO

EPR properties:
g-Tensor (aka g-matrix)                 ...  NO
Zero-Field splitting spin-orbit         ...  NO
Zero-field splitting spin-spin          ...  NO
Hyperfine couplings                     ...  NO (   0 nuclei)
Quadrupole couplings                    ...  NO (   0 nuclei)
Contact density                         ...  NO (   0 nuclei)

NMR properties:
Chemical shifts                         ...  NO (   0 nuclei)
Spin-rotation constants                 ...  NO (   0 nuclei)
Spin-spin couplings                     ...  NO (   0 nuclei,    0 pairs)

Choice of magnetic origin               ... GIAO
Position of magnetic origin             ...     0.000000     0.000000     0.000000

Properties with geometric perturbations:
SCF Hessian                             ...  NO
IR spectrum                             ...  NO
VCD spectrum                            ...  NO
X-ray spectroscopy properties:
SCF XES/XAS/RIXS spectra                ...  NO


-------------
DIPOLE MOMENT
-------------

Method             : SCF
Type of density    : Electron Density
Multiplicity       :   1
Irrep              :   0
Energy             : -1454.3929956062706879 Eh
Relativity type    : 
Basis              : AO
                                X                 Y                 Z
Electronic contribution:     -2.126975452       6.370615085       2.747105437
Nuclear contribution   :      2.109670948      -6.067604663      -2.673586583
                        -----------------------------------------
Total Dipole Moment    :     -0.017304505       0.303010422       0.073518854
                        -----------------------------------------
Magnitude (a.u.)       :      0.312281578
Magnitude (Debye)      :      0.793756690



--------------------
Rotational spectrum 
--------------------
 
Rotational constants in cm-1:             0.031448             0.016367             0.011456 
Rotational constants in MHz :           942.785880           490.659514           343.444858 

Dipole components along the rotational axes: 
x,y,z [a.u.] :     0.060843     0.300753     0.058014 
x,y,z [Debye]:     0.154650     0.764453     0.147460 

 

Dipole moment calculation done in   0.1 sec 

Maximum memory used throughout the entire PROP-calculation: 22.9 MB

--------------------------------
SUGGESTED CITATIONS FOR THIS RUN
--------------------------------

Below you find a list of papers that are relevant to this ORCA run
We neither can nor want to force you to cite these papers, but we appreciate if you do
You receive ORCA, which is the product of decades of hard work by many enthusiastic individuals, for free
The only thing we kindly ask in return is that you cite our papers,
We deeply appreciate it, if you show your appreciation for ORCA by not just citing the generic ORCA reference.

Please note that relegating all ORCA citations to the supporting information does *not* help us.
SI sections are not indexed - citations you put there will not count into any citation statistics
But we need these citations in order to attract the funding resources that allow us to do what we are doing

Therefore, if you are a happy ORCA user, please consider citing a few of the papers listed below in the main body of your paper

In addition to the list printed below, the program has created the file sp_gas.bibtex that contains the list in bibtex format
You can import this file easily into all common literature databanks and citation aid programs


List of essential papers. We consider these as the minimum necessary citations

  1. Neese,F.
     Software update: the ORCA program system, version 5.0
     WIRES Comput. Molec. Sci., 2022 12(1)e1606
     doi.org/10.1002/wcms.1606
  2. Grimme,S.; Hansen,A.; Ehlert,S.; Mewes,J.
     r2SCAN-3c: A 'Swiss army knife' composite electronic-structure method
     J. Chem. Phys., 2021 154 064103
     doi.org/10.1063/5.0040021

List of papers to cite with high priority. The work reported in these papers was absolutely
necessary for this run to complete.
Our perspective: the developers of density functionals and basis sets usually get cited in chemistry papers
Good! But without the algorithms to do something with them, the functionals or basis sets would not do anything.
Hence, in our opinion, the algorithm design and method developments papers are equally worthy of getting cited

  1. Neese,F.
     An improvement of the resolution of the identity approximation for the formation of the Coulomb matrix
     J. Comp. Chem., 2003 24(14)1740-1747
     doi.org/10.1002/jcc.10318
  2. Neese,F.
     The SHARK Integral Generation and Digestion System
     J. Comp. Chem., 2022  1-16
     doi.org/10.1002/jcc.26942
  3. Lehtola,S.; Steigemann,C.; Oliveira,M.; Marques,M.
     Recent developments in Libxc - A comprehensive library of functionals for density functional theory
     Software X, 2018 7 
     doi.org/10.1016/j.softx.2017.11.002
  4. Caldeweyher,E.; Bannwarth,C.; Grimme,S.
     Extension of the D3 dispersion coefficient model
     J. Chem. Phys., 2017 147 034112-XXXX
     doi.org/10.1063/1.4993215
  5. Caldeweyher,E.; Ehlert,S.; Hansen,A.; Neugebauer,H.; Spicher,S.; Bannwarth,C.; Grimme,S.
     A generally applicable atomic-charge dependent London dispersion correction
     J. Chem. Phys., 2019 150 154122-XXXX
     doi.org/10.1063/1.5090222
  6. Caldeweyher,E.; Mewes,J.; Ehlert,S.; Grimme,S.
     Extension and evaluation of the D4 London-dispersion model for periodic systems
     Phys. Chem. Chem. Phys., 2020 22(16)8499-8512
     doi.org/10.1039/D0CP00502A

List of suggested additional citations. These are papers that are important in the 'surrounding' of 
of this run, or papers that preceded the highly important papers. If you like your results we are grateful for a citation.

  1. Neese,F.
     The ORCA program system
     WIRES Comput. Molec. Sci., 2012 2(1)73-78
     doi.org/10.1002/wcms.81
  2. Neese,F.
     Software update: the ORCA program system, version 4.0
     WIRES Comput. Molec. Sci., 2018 8(1)1-6
     doi.org/10.1002/wcms.1327
  3. Neese,F.; Wennmohs,F.; Becker,U.; Riplinger,C.
     The ORCA quantum chemistry program package
     J. Chem. Phys., 2020 152 Art. No. L224108
     doi.org/10.1063/5.0004608

List of optional additional citations

  1. Neese,F.
     Approximate second-order SCF convergence for spin unrestricted wavefunctions
     Chem. Phys. Lett., 2000 325(1-3)93-98
     doi.org/10.1016/s0009-2614(00)00662-x

Timings for individual modules:

Sum of individual times          ...       51.563 sec (=   0.859 min)
Startup calculation              ...        1.850 sec (=   0.031 min)   3.6 %
SCF iterations                   ...       49.527 sec (=   0.825 min)  96.1 %
Property calculations            ...        0.186 sec (=   0.003 min)   0.4 %
                             ****ORCA TERMINATED NORMALLY****
TOTAL RUN TIME: 0 days 0 hours 0 minutes 52 seconds 583 msec
