
                                 *****************
                                 * O   R   C   A *
                                 *****************

                                            #,                                       
                                            ###                                      
                                            ####                                     
                                            #####                                    
                                            ######                                   
                                           ########,                                 
                                     ,,################,,,,,                         
                               ,,#################################,,                 
                          ,,##########################################,,             
                       ,#########################################, ''#####,          
                    ,#############################################,,   '####,        
                  ,##################################################,,,,####,       
                ,###########''''           ''''###############################       
              ,#####''   ,,,,##########,,,,          '''####'''          '####       
            ,##' ,,,,###########################,,,                        '##       
           ' ,,###''''                  '''############,,,                           
         ,,##''                                '''############,,,,        ,,,,,,###''
      ,#''                                            '''#######################'''  
     '                                                          ''''####''''         
             ,#######,   #######,   ,#######,      ##                                
            ,#'     '#,  ##    ##  ,#'     '#,    #''#        ,####,   ,####,        
            ##       ##  ##   ,#'  ##            #'  '#       #'       #'  '#        
            ##       ##  #######   ##           ,######,      #####,   #    #        
            '#,     ,#'  ##    ##  '#,     ,#' ,#      #,     #,   #   #,  ,#        
             '#######'   ##     ##  '#######'  #'      '#     '####' # '####'        



                #########################################################
                #                        -***-                          #
                #          Department of theory and spectroscopy        #
                #                                                       #
                #                      Frank Neese                      #
                #                                                       #
                #     Directorship, Architecture, Infrastructure        #
                #                    SHARK, DRIVERS                     #
                #        Core code/Algorithms in most modules           #
                #                                                       #
                #        Max Planck Institute fuer Kohlenforschung      #
                #                Kaiser Wilhelm Platz 1                 #
                #                 D-45470 Muelheim/Ruhr                 #
                #                      Germany                          #
                #                                                       #
                #                  All rights reserved                  #
                #                        -***-                          #
                #########################################################


                         Program Version 6.0.0  -   RELEASE  -


 With contributions from (in alphabetic order):
   Daniel Aravena         : Magnetic Suceptibility
   Michael Atanasov       : Ab Initio Ligand Field Theory (pilot matlab implementation)
   Alexander A. Auer      : GIAO ZORA, VPT2 properties, NMR spectrum
   Ute Becker             : All parallelization in ORCA, NUMFREQ, NUMCALC
   Giovanni Bistoni       : ED, misc. LED, open-shell LED, HFLD
   Martin Brehm           : Molecular dynamics
   Dmytro Bykov           : pre 5.0 version of the SCF Hessian
   Marcos Casanova-Páez   : Triplet and SCS-CIS(D). UHF-(DLPNO)-IP/EA/STEOM-CCSD. UHF-CVS-IP/STEOM-CCSD
   Vijay G. Chilkuri      : MRCI spin determinant printing, contributions to CSF-ICE
   Pauline Colinet        : FMM embedding
   Dipayan Datta          : RHF DLPNO-CCSD density
   Achintya Kumar Dutta   : EOM-CC, STEOM-CC
   Nicolas Foglia         : Exact transition moments, OPA infrastructure, MCD improvements
   Dmitry Ganyushin       : Spin-Orbit,Spin-Spin,Magnetic field MRCI
   Miquel Garcia          : C-PCM and meta-GGA Hessian, CCSD/C-PCM, Gaussian charge scheme
   Tiago L. C. Gouveia    : GS-ROHF, GS-ROCIS
   Yang Guo               : DLPNO-NEVPT2, F12-NEVPT2, CIM, IAO-localization
   Andreas Hansen         : Spin unrestricted coupled pair/coupled cluster methods
   Ingolf Harden          : AUTO-CI MPn and infrastructure 
   Benjamin Helmich-Paris : MC-RPA, TRAH-(SCF,CASSCF), AVAS, COSX integrals, SCF dyn. polar.
   Lee Huntington         : MR-EOM, pCC
   Robert Izsak           : Overlap fitted RIJCOSX, COSX-SCS-MP3, EOM
   Riya Kayal             : Wick's Theorem for AUTO-CI, AUTO-CI UHF-CCSDT
   Emily Kempfer          : AUTO-CI, RHF CISDT and CCSDT
   Christian Kollmar      : KDIIS, OOCD, Brueckner-CCSD(T), CCSD density, CASPT2, CASPT2-K, improved NEVPT2
   Axel Koslowski         : Symmetry handling
   Simone Kossmann        : Meta GGA functionals, TD-DFT gradient, OOMP2, (MP2 Hessian; deprecated post 5.0)
   Lucas Lang             : DCDCAS
   Marvin Lechner         : AUTO-CI (C++ implementation), FIC-MRCC
   Spencer Leger          : CASSCF response
   Dagmar Lenk            : GEPOL surface, SMD, ORCA-2-JSON
   Dimitrios Liakos       : Extrapolation schemes; Compound Job, initial MDCI parallelization
   Dimitrios Manganas     : Further ROCIS development; embedding schemes. LFT, Crystal Embedding
   Dimitrios Pantazis     : SARC Basis sets
   Anastasios Papadopoulos: AUTO-CI, single reference methods and gradients
   Taras Petrenko         : pre 6.0 DFT Hessian and TD-DFT gradient, (ASA, deprecated), ECA, 1-Electron XAS/XES, NRVS
   Peter Pinski           : DLPNO-MP2, DLPNO-MP2 Gradient
   Christoph Reimann      : Effective Core Potentials
   Marius Retegan         : Local ZFS, SOC
   Christoph Riplinger    : Optimizer, TS searches, QM/MM, DLPNO-CCSD(T), (RO)-DLPNO pert. Triples
   Michael Roemelt        : Original ROCIS implementation
   Masaaki Saitow         : Open-shell DLPNO-CCSD energy and density
   Barbara Sandhoefer     : DKH picture change effects
   Kantharuban Sivalingam : CASSCF convergence/infrastructure, NEVPT2 and variants, FIC-MRCI
   Bernardo de Souza      : ESD, SOC TD-DFT
   Georgi Stoychev        : AutoAux, RI-MP2 NMR, DLPNO-MP2 response, X2C
   Van Anh Tran           : RI-MP2 g-tensors
   Willem Van den Heuvel  : Paramagnetic NMR
   Zikuan Wang            : NOTCH, Electric field optimization 
   Frank Wennmohs         : Technical directorship and infrastructure
   Hang Xu                : AUTO-CI-Response properties 


 We gratefully acknowledge several colleagues who have allowed us to
 interface, adapt or use parts of their codes:
   Stefan Grimme, W. Hujo, H. Kruse, P. Pracht,  : VdW corrections, initial TS optimization,
                  C. Bannwarth, S. Ehlert,         DFT functionals, gCP, sTDA/sTD-DF
                  L. Wittmann, M. Mueller
   Ed Valeev, F. Pavosevic, A. Kumar             : LibInt (2-el integral package), F12 methods
   Garnet Chan, S. Sharma, J. Yang, R. Olivares  : DMRG
   Ulf Ekstrom                                   : XCFun DFT Library
   Mihaly Kallay                                 : mrcc  (arbitrary order and MRCC methods)
   Frank Weinhold                                : gennbo (NPA and NBO analysis)
   Simon Mueller                                 : openCOSMO-RS
   Christopher J. Cramer and Donald G. Truhlar   : smd solvation model
   Lars Goerigk                                  : TD-DFT with DH, B97 family of functionals
   V. Asgeirsson, H. Jonsson                     : NEB implementation
   FAccTs GmbH                                   : IRC, NEB, NEB-TS, DLPNO-Multilevel, CI-OPT
                                                   MM, QMMM, 2- and 3-layer-ONIOM, Crystal-QMMM,
                                                   LR-CPCM, SF, NACMEs, symmetry and pop. for TD-DFT,
                                                   nearIR, NL-DFT gradient (VV10), updates on ESD,
                                                   ML-optimized integration grids, MBIS, APM,
                                                   GOAT, DOCKER, SOLVATOR, interface openCOSMO-RS
   S Lehtola, MJT Oliveira, MAL Marques          : LibXC Library
   Liviu Ungur et al                             : ANISO software


 Your calculation uses the libint2 library for the computation of 2-el integrals
 For citations please refer to: http://libint.valeyev.net

 Your ORCA version has been built with support for libXC version: 6.2.2
 For citations please refer to: https://libxc.gitlab.io

 This ORCA versions uses:
   CBLAS   interface :  Fast vector & matrix operations
   LAPACKE interface :  Fast linear algebra routines
   SCALAPACK package :  Parallel linear algebra routines
   Shared memory     :  Shared parallel matrices
   BLAS/LAPACK       :  OpenBLAS 0.3.27  USE64BITINT DYNAMIC_ARCH NO_AFFINITY SkylakeX SINGLE_THREADED
        Core in use  :  SkylakeX
   Copyright (c) 2011-2014, The OpenBLAS Project


Your calculation utilizes the geometrical counterpoise correction gCP
Please cite in your paper:
H.Kruse, S. Grimme J.Chem.Phys., 136, (2012), 154101 
   

Your calculation utilizes the atom-pairwise dispersion correction
based on EEQ partial charges (D4)


================================================================================

----- Orbital basis set information -----
Your calculation utilizes the basis: def2-mTZVPP
   Stefan Grimme, Andreas Hansen, Sebastian Ehlert, and Jan-Michael Mewes 
   J. Chem. Phys. 154, 064103 (2021). DOI: 10.1063/5.0040021

----- AuxJ basis set information -----
Your calculation utilizes the auxiliary basis: def2/J
   F. Weigend, Phys. Chem. Chem. Phys. 8, 1057 (2006).

================================================================================
                                        WARNINGS
                       Please study these warnings very carefully!
================================================================================

Using LibXC functional ID 497 : Re-regularized SCAN exchange by Furness et al
[ 1]  J. W. Furness, A. D. Kaplan, J. Ning, J. P. Perdew, and J. Sun.,  J. Phys. Chem. Lett. 11, 8208-8215 (2020)
[ 2]  J. W. Furness, A. D. Kaplan, J. Ning, J. P. Perdew, and J. Sun.,  J. Phys. Chem. Lett. 11, 9248-9248 (2020)
Using LibXC functional ID 498 : Re-regularized SCAN correlation by Furness et al
[ 1]  J. W. Furness, A. D. Kaplan, J. Ning, J. P. Perdew, and J. Sun.,  J. Phys. Chem. Lett. 11, 8208-8215 (2020)
[ 2]  J. W. Furness, A. D. Kaplan, J. Ning, J. P. Perdew, and J. Sun.,  J. Phys. Chem. Lett. 11, 9248-9248 (2020)
Using LibXC functional ID 497 : Re-regularized SCAN exchange by Furness et al
[ 1]  J. W. Furness, A. D. Kaplan, J. Ning, J. P. Perdew, and J. Sun.,  J. Phys. Chem. Lett. 11, 8208-8215 (2020)
[ 2]  J. W. Furness, A. D. Kaplan, J. Ning, J. P. Perdew, and J. Sun.,  J. Phys. Chem. Lett. 11, 9248-9248 (2020)
Using LibXC functional ID 498 : Re-regularized SCAN correlation by Furness et al
[ 1]  J. W. Furness, A. D. Kaplan, J. Ning, J. P. Perdew, and J. Sun.,  J. Phys. Chem. Lett. 11, 8208-8215 (2020)
[ 2]  J. W. Furness, A. D. Kaplan, J. Ning, J. P. Perdew, and J. Sun.,  J. Phys. Chem. Lett. 11, 9248-9248 (2020)

================================================================================
                                       INPUT FILE
================================================================================
NAME = sp_gas.inp
|  1> ! r2scan-3c def2/J RI DEFGRID2 scfconv6 printgap
|  2> %output
|  3>     printlevel normal
|  4> end
|  5> * xyz 0 1
|  6> C -3.3052580118 1.1374201931 -0.7396280768
|  7> C -1.9335616281 1.3209836458 -0.1758708877
|  8> O -1.6196442677 2.1275345438 0.6697526142
|  9> O -1.0732701658 0.4446164705 -0.716654187
| 10> C 0.2616538979 0.4370356846 -0.3390363831
| 11> C 1.0314765145 1.5827161332 -0.4712627537
| 12> C 2.3791936372 1.5548328749 -0.1565629871
| 13> C 2.971092157 0.3796094598 0.2793556303
| 14> C 2.2082804624 -0.7633784812 0.4070179984
| 15> C 0.844314602 -0.7536142657 0.1116168076
| 16> C 0.0965320012 -2.0167998875 0.3032968704
| 17> O 0.6453321256 -3.0789428356 0.5324019065
| 18> O -1.220368956 -1.9123160282 0.2283514271
| 19> H -3.7850545633 2.1052566213 -0.8496333014
| 20> H -3.886399561 0.5485872465 -0.0329506241
| 21> H -3.2523871127 0.6097766957 -1.6855381868
| 22> H 0.5650796254 2.4915508173 -0.8177588681
| 23> H 2.9653183729 2.45390691 -0.2591967077
| 24> H 4.0216849157 0.3558731439 0.5184559379
| 25> H 2.6394155709 -1.6935882246 0.7441790778
| 26> H -1.6582863768 -2.7767675332 0.3587075093
| 27> *
| 28> 
| 29>                          ****END OF INPUT****
================================================================================

                       ****************************
                       * Single Point Calculation *
                       ****************************

---------------------------------
CARTESIAN COORDINATES (ANGSTROEM)
---------------------------------
  C     -3.305258    1.137420   -0.739628
  C     -1.933562    1.320984   -0.175871
  O     -1.619644    2.127535    0.669753
  O     -1.073270    0.444616   -0.716654
  C      0.261654    0.437036   -0.339036
  C      1.031477    1.582716   -0.471263
  C      2.379194    1.554833   -0.156563
  C      2.971092    0.379609    0.279356
  C      2.208280   -0.763378    0.407018
  C      0.844315   -0.753614    0.111617
  C      0.096532   -2.016800    0.303297
  O      0.645332   -3.078943    0.532402
  O     -1.220369   -1.912316    0.228351
  H     -3.785055    2.105257   -0.849633
  H     -3.886400    0.548587   -0.032951
  H     -3.252387    0.609777   -1.685538
  H      0.565080    2.491551   -0.817759
  H      2.965318    2.453907   -0.259197
  H      4.021685    0.355873    0.518456
  H      2.639416   -1.693588    0.744179
  H     -1.658286   -2.776768    0.358708

----------------------------
CARTESIAN COORDINATES (A.U.)
----------------------------
  NO LB      ZA    FRAG     MASS         X           Y           Z
   0 C     6.0000    0    12.011   -6.246032    2.149413   -1.397695
   1 C     6.0000    0    12.011   -3.653902    2.496297   -0.332348
   2 O     8.0000    0    15.999   -3.060684    4.020458    1.265649
   3 O     8.0000    0    15.999   -2.028187    0.840203   -1.354280
   4 C     6.0000    0    12.011    0.494454    0.825878   -0.640686
   5 C     6.0000    0    12.011    1.949208    2.990900   -0.890558
   6 C     6.0000    0    12.011    4.496024    2.938208   -0.295861
   7 C     6.0000    0    12.011    5.614550    0.717358    0.527906
   8 C     6.0000    0    12.011    4.173045   -1.442576    0.769153
   9 C     6.0000    0    12.011    1.595523   -1.424125    0.210925
  10 C     6.0000    0    12.011    0.182419   -3.811199    0.573148
  11 O     8.0000    0    15.999    1.219501   -5.818359    1.006094
  12 O     8.0000    0    15.999   -2.306163   -3.613754    0.431522
  13 H     1.0000    0     1.008   -7.152717    3.978358   -1.605574
  14 H     1.0000    0     1.008   -7.344231    1.036680   -0.062268
  15 H     1.0000    0     1.008   -6.146121    1.152311   -3.185206
  16 H     1.0000    0     1.008    1.067846    4.708349   -1.545340
  17 H     1.0000    0     1.008    5.603640    4.637212   -0.489811
  18 H     1.0000    0     1.008    7.599883    0.672503    0.979740
  19 H     1.0000    0     1.008    4.987773   -3.200418    1.406295
  20 H     1.0000    0     1.008   -3.133707   -5.247330    0.677859

--------------------------------
INTERNAL COORDINATES (ANGSTROEM)
--------------------------------
 C      0   0   0     0.000000000000     0.00000000     0.00000000
 C      1   0   0     1.494345568630     0.00000000     0.00000000
 O      2   1   0     1.210019655704   125.70885683     0.00000000
 O      2   1   3     1.341852228396   110.86915487   178.85847683
 C      4   2   1     1.387326540502   120.71567060   179.89374351
 C      5   4   2     1.386612550216   120.24780745   302.82226440
 C      6   5   4     1.384252456025   120.14609171   183.21617874
 C      7   6   5     1.386188650270   120.28475069     0.66120283
 C      8   7   6     1.380072749865   119.68540392   359.58622059
 C      9   8   7     1.395621750965   120.98553314   359.58871266
 C     10   9   8     1.480391157653   117.40594215   181.24656257
 O     11  10   9     1.217299608275   122.76271566   350.19740750
 O     11  10   9     1.323163567893   115.34203918   169.23572895
 H      1   2   3     1.085823757348   109.53215820    37.90302951
 H      1   2   3     1.088045385709   108.16339851   280.19388805
 H      1   2   3     1.084411789184   110.12640104   160.90006313
 H      6   5   4     1.078687210678   119.12565102     3.44061103
 H      7   6   5     1.078151198578   119.39652947   180.30105462
 H      8   7   6     1.077718661998   120.31081462   179.60788817
 H      9   8   7     1.079279964587   121.46087962   180.02326548
 H     13  11  10     0.977773378705   111.61621426   179.75303979

---------------------------
INTERNAL COORDINATES (A.U.)
---------------------------
 C      0   0   0     0.000000000000     0.00000000     0.00000000
 C      1   0   0     2.823903874150     0.00000000     0.00000000
 O      2   1   0     2.286605765943   125.70885683     0.00000000
 O      2   1   3     2.535733223860   110.86915487   178.85847683
 C      4   2   1     2.621667219870   120.71567060   179.89374351
 C      5   4   2     2.620317973765   120.24780745   302.82226440
 C      6   5   4     2.615858042094   120.14609171   183.21617874
 C      7   6   5     2.619516918960   120.28475069     0.66120283
 C      8   7   6     2.607959542132   119.68540392   359.58622059
 C      9   8   7     2.637342895868   120.98553314   359.58871266
 C     10   9   8     2.797533859042   117.40594215   181.24656257
 O     11  10   9     2.300362882569   122.76271566   350.19740750
 O     11  10   9     2.500416773700   115.34203918   169.23572895
 H      1   2   3     2.051909531093   109.53215820    37.90302951
 H      1   2   3     2.056107800267   108.16339851   280.19388805
 H      1   2   3     2.049241297953   110.12640104   160.90006313
 H      6   5   4     2.038423412344   119.12565102     3.44061103
 H      7   6   5     2.037410496271   119.39652947   180.30105462
 H      8   7   6     2.036593120593   120.31081462   179.60788817
 H      9   8   7     2.039543554898   121.46087962   180.02326548
 H     13  11  10     1.847723906791   111.61621426   179.75303979

---------------------
BASIS SET INFORMATION
---------------------
There are 3 groups of distinct atoms

 Group   1 Type C   : 11s6p1d contracted to 5s3p1d pattern {62111/411/1}
 Group   2 Type O   : 11s6p2d contracted to 5s3p2d pattern {62111/411/11}
 Group   3 Type H   : 4s1p contracted to 2s1p pattern {31/1}

Atom   0C    basis set group =>   1
Atom   1C    basis set group =>   1
Atom   2O    basis set group =>   2
Atom   3O    basis set group =>   2
Atom   4C    basis set group =>   1
Atom   5C    basis set group =>   1
Atom   6C    basis set group =>   1
Atom   7C    basis set group =>   1
Atom   8C    basis set group =>   1
Atom   9C    basis set group =>   1
Atom  10C    basis set group =>   1
Atom  11O    basis set group =>   2
Atom  12O    basis set group =>   2
Atom  13H    basis set group =>   3
Atom  14H    basis set group =>   3
Atom  15H    basis set group =>   3
Atom  16H    basis set group =>   3
Atom  17H    basis set group =>   3
Atom  18H    basis set group =>   3
Atom  19H    basis set group =>   3
Atom  20H    basis set group =>   3
---------------------------------
AUXILIARY/J BASIS SET INFORMATION
---------------------------------
There are 3 groups of distinct atoms

 Group   1 Type C   : 12s5p4d2f1g contracted to 6s4p3d1f1g pattern {711111/2111/211/2/1}
 Group   2 Type O   : 12s5p4d2f1g contracted to 6s4p3d1f1g pattern {711111/2111/211/2/1}
 Group   3 Type H   : 5s2p1d contracted to 3s1p1d pattern {311/2/1}

Atom   0C    basis set group =>   1
Atom   1C    basis set group =>   1
Atom   2O    basis set group =>   2
Atom   3O    basis set group =>   2
Atom   4C    basis set group =>   1
Atom   5C    basis set group =>   1
Atom   6C    basis set group =>   1
Atom   7C    basis set group =>   1
Atom   8C    basis set group =>   1
Atom   9C    basis set group =>   1
Atom  10C    basis set group =>   1
Atom  11O    basis set group =>   2
Atom  12O    basis set group =>   2
Atom  13H    basis set group =>   3
Atom  14H    basis set group =>   3
Atom  15H    basis set group =>   3
Atom  16H    basis set group =>   3
Atom  17H    basis set group =>   3
Atom  18H    basis set group =>   3
Atom  19H    basis set group =>   3
Atom  20H    basis set group =>   3

Checking for AutoStart:
The File: sp_gas.gbw exists
Trying to determine its content:
     ... Fine, the file contains calculation information
     ... Fine, the calculation information was read
     ... Fine, the file contains a basis set
     ... Fine, the basis set was read
     ... Fine, the file contains a geometry
     ... Fine, the geometry was read
     ... Fine, the file contains a set of orbitals
     ... Fine, the orbitals can be read
     => possible old guess file was deleted
     => GBW file was renamed to GES file
     => GES file is set as startup file
     => Guess is set to MORead
     ... now leaving AutoStart

------------------------------------------------------------------------------
                             ORCA STARTUP CALCULATIONS
                           -- RI-GTO INTEGRALS CHOSEN --
------------------------------------------------------------------------------
------------------------------------------------------------------------------
                   ___                                                        
                  /   \      - P O W E R E D   B Y -                         
                 /     \                                                     
                 |  |  |   _    _      __       _____    __    __             
                 |  |  |  | |  | |    /  \     |  _  \  |  |  /  |          
                  \  \/   | |  | |   /    \    | | | |  |  | /  /          
                 / \  \   | |__| |  /  /\  \   | |_| |  |  |/  /          
                |  |  |   |  __  | /  /__\  \  |    /   |      \           
                |  |  |   | |  | | |   __   |  |    \   |  |\   \          
                \     /   | |  | | |  |  |  |  | |\  \  |  | \   \       
                 \___/    |_|  |_| |__|  |__|  |_| \__\ |__|  \__/        
                                                                              
                      - O R C A' S   B I G   F R I E N D -                    
                                      &                                       
                       - I N T E G R A L  F E E D E R -                       
                                                                              
 v1 FN, 2020, v2 2021, v3 2022-2024                                           
------------------------------------------------------------------------------


----------------------
SHARK INTEGRAL PACKAGE
----------------------

Number of atoms                             ...     21
Number of basis functions                   ...    307
Number of shells                            ...    145
Maximum angular momentum                    ...      2
Integral batch strategy                     ... SHARK/LIBINT Hybrid
RI-J (if used) integral strategy            ... SPLIT-RIJ (Revised 2003 algorithm where possible)
Printlevel                                  ...      1
Contraction scheme used                     ... SEGMENTED contraction
Prescreening option                         ... SCHWARTZ
   Thresh                                   ... 1.000e-10
   Tcut                                     ... 1.000e-11
   Tpresel                                  ... 1.000e-11 
Coulomb Range Separation                    ... NOT USED
Exchange Range Separation                   ... NOT USED
Multipole approximations                    ... NOT USED
Finite Nucleus Model                        ... NOT USED
CABS basis                                  ... NOT available
Auxiliary Coulomb fitting basis             ... AVAILABLE
   # of basis functions in Aux-J            ...    725
   # of shells in Aux-J                     ...    235
   Maximum angular momentum in Aux-J        ...      4
Auxiliary J/K fitting basis                 ... NOT available
Auxiliary Correlation fitting basis         ... NOT available
Auxiliary 'external' fitting basis          ... NOT available

Checking pre-screening integrals            ... done (  0.0 sec) Dimension = 145
Check shell pair data                       ... done (  0.0 sec)
Shell pair information
Shell pair cut-off parameter TPreSel        ...   1.0e-11
Total number of shell pairs                 ...     10585
Shell pairs after pre-screening             ...      8751
Total number of primitive shell pairs       ...     39091
Primitive shell pairs kept                  ...     21608
          la=0 lb=0:   2587 shell pairs
          la=1 lb=0:   3191 shell pairs
          la=1 lb=1:    995 shell pairs
          la=2 lb=0:   1141 shell pairs
          la=2 lb=1:    701 shell pairs
          la=2 lb=2:    136 shell pairs

Calculating one electron integrals          ... done (  0.1 sec)
Calculating RI/J V-Matrix + Cholesky decomp.... done (  0.1 sec)
Calculating Nuclear repulsion               ... done (  0.0 sec) ENN=    779.906204272004 Eh

Diagonalization of the overlap matrix:
Smallest eigenvalue                        ... 2.409e-05
Time for diagonalization                   ...    0.013 sec
Threshold for overlap eigenvalues          ... 1.000e-07
Number of eigenvalues below threshold      ... 0
Time for construction of square roots      ...    0.022 sec
Total time needed                          ...    0.044 sec

-------------------
DFT GRID GENERATION
-------------------

General Integration Accuracy     IntAcc      ... 4.388
Radial Grid Type                 RadialGrid  ... OptM3 with GC (2021)
Angular Grid (max. ang.)         AngularGrid ... 4 (Lebedev-302)
Angular grid pruning method      GridPruning ... 4 (adaptive)
Weight generation scheme         WeightScheme... mBecke (2022)
Basis function cutoff            BFCut       ... 1.0000e-10
Integration weight cutoff        WCut        ... 1.0000e-14
Partially contracted basis set               ... off
Rotationally invariant grid construction     ... off
Angular grids for H and He will be reduced by one unit
Diffuse basis detected: some atoms will have their outermost
                        angular grid increased by 1.

Total number of grid points                  ...   105241
Total number of batches                      ...     1658
Average number of points per batch           ...       63
Average number of grid points per atom       ...     5011
Initializing property integral containers    ... done (  0.0 sec)

SHARK setup successfully completed in   1.6 seconds

Maximum memory used throughout the entire STARTUP-calculation: 51.4 MB
-------------------------------------------------------------------------------
                                 ORCA GUESS
                   Start orbitals & Density for SCF / CASSCF
-------------------------------------------------------------------------------

------------
SCF SETTINGS
------------
Hamiltonian:
 Density Functional     Method          .... DFT(GTOs)
  Functional kind                       .... Exchange
  Functional name                       .... Re-regularized SCAN exchange by Furness et al
  Functional family                     .... MGGA
  Functional refs                              
    [ 0] J. W. Furness, A. D. Kaplan, J. Ning, J. P. Perdew, and J. Sun.,  J. Phys. Chem. Lett. 11, 8208-8215 (2020), doi: 10.1021/acs.jpclett.0c02405
    [ 1] J. W. Furness, A. D. Kaplan, J. Ning, J. P. Perdew, and J. Sun.,  J. Phys. Chem. Lett. 11, 9248-9248 (2020), doi: 10.1021/acs.jpclett.0c03077
  Functional external parameters        .... 6
    Parameter  0 _c1        =  6.670000e-01 : c1 parameter        
    Parameter  1 _c2        =  8.000000e-01 : c2 parameter        
    Parameter  2 _d         =  1.240000e+00 : d parameter         
    Parameter  3 _k1        =  6.500000e-02 : k1 parameter        
    Parameter  4 _eta       =  1.000000e-03 : eta parameter       
    Parameter  5 _dp2       =  3.610000e-01 : dp2 parameter       
  Functional kind                       .... Correlation
  Functional name                       .... Re-regularized SCAN correlation by Furness et al
  Functional family                     .... MGGA
  Functional refs                              
    [ 0] J. W. Furness, A. D. Kaplan, J. Ning, J. P. Perdew, and J. Sun.,  J. Phys. Chem. Lett. 11, 8208-8215 (2020), doi: 10.1021/acs.jpclett.0c02405
    [ 1] J. W. Furness, A. D. Kaplan, J. Ning, J. P. Perdew, and J. Sun.,  J. Phys. Chem. Lett. 11, 9248-9248 (2020), doi: 10.1021/acs.jpclett.0c03077
  Functional external parameters        .... 1
    Parameter  0 _eta       =  1.000000e-03 : Regularization parameter
 Gradients option       PostSCFGGA      .... off
 RI-approximation to the Coulomb term is turned on
   Number of AuxJ basis functions       .... 725


General Settings:
 Integral files         IntName         .... sp_gas
 Hartree-Fock type      HFTyp           .... RHF
 Total Charge           Charge          ....    0
 Multiplicity           Mult            ....    1
 Number of Electrons    NEL             ....   94
 Basis Dimension        Dim             ....  307
 Nuclear Repulsion      ENuc            ....    779.9062042720 Eh

Convergence Acceleration:
 AO-DIIS                CNVDIIS         .... on
   Start iteration      DIISMaxIt       ....    12
   Startup error        DIISStart       ....  0.200000
   # of expansion vecs  DIISMaxEq       ....     5
   Bias factor          DIISBfac        ....   1.050
   Max. coefficient     DIISMaxC        ....  10.000
 MO-DIIS                CNVKDIIS        .... off
 Trust-Rad. Augm. Hess. CNVTRAH         .... auto
   Auto Start mean grad. ratio tolernc. ....  1.125000
   Auto Start start iteration           ....     1
   Auto Start num. interpolation iter.  ....    10
   Max. Number of Micro iterations      ....    24
   Max. Number of Macro iterations      .... Maxiter - #DIIS iter
   Number of Davidson start vectors     ....     2
   Converg. threshold    (grad. norm)   ....   3.330e-04
   Grad. Scal. Fac. for Micro threshold ....   0.100
   Minimum threshold for Micro iter.    ....   1.000e-02
   NR start threshold (gradient norm)   ....   1.000e-04
   Initial trust radius                 ....   0.400
   Minimum AH scaling param. (alpha)    ....   1.000
   Maximum AH scaling param. (alpha)    .... 1000.000
   Quad. conv. algorithm                .... NR
   White noise on init. David. guess    .... on
   Maximum white noise                  ....   0.010
   Pseudo random numbers                .... off
   Inactive MOs                         .... canonical
   Orbital update algorithm             .... Taylor
   Preconditioner                       .... Diag
   Full preconditioner red. dimension   ....   250
   COSX micro iterations for RIJONX calc.... off
 SOSCF                  CNVSOSCF        .... on
   Start iteration      SOSCFMaxIt      ....   150
   Startup grad/error   SOSCFStart      ....  0.003300
   Hessian update       SOSCFHessUp     .... L-BFGS
 Level Shifting         CNVShift        .... on
   Level shift para.    LevelShift      ....    0.2500
   Turn off err/grad.   ShiftErr        ....    0.0010
 Zerner damping         CNVZerner       .... off
 Static damping         CNVDamp         .... on
   Fraction old density DampFac         ....    0.7000
   Max. Damping (<1)    DampMax         ....    0.9800
   Min. Damping (>=0)   DampMin         ....    0.0000
   Turn off err/grad.   DampErr         ....    0.1000

SCF Procedure:
 Maximum # iterations   MaxIter         ....   125
 SCF integral mode      SCFMode         .... Direct
   Integral package                     .... SHARK and LIBINT hybrid scheme
 Reset frequency        DirectResetFreq ....    20
 Integral Threshold     Thresh          ....  1.000e-10 Eh
 Primitive CutOff       TCut            ....  1.000e-11 Eh

Convergence Tolerance:
 Convergence Check Mode ConvCheckMode   .... Total+1el-Energy
 Convergence forced     ConvForced      .... 0
 Energy Change          TolE            ....  1.000e-06 Eh
 1-El. energy change                    ....  1.000e-03 Eh
 Orbital Gradient       TolG            ....  3.330e-04
 Orbital Rotation angle TolX            ....  3.330e-04
 DIIS Error             TolErr          ....  1.000e-06

---------------------
INITIAL GUESS: MOREAD
---------------------
Guess MOs are being read from file: sp_gas.ges
Input Geometry matches current geometry (good)
Atom 0: N(Shells)= 9 and 6 - projection required
Input basis set needs projection
NBasis(read)= 198
NBasis(calc)= 307
Basis set overlap was calculated
Using GuessMode=FMatrix for the initial guess
C*T matrix was formed
Effective Fockian was calculated
Effective Fockian was diagonalized
Initial density was built
                      ------------------
                      INITIAL GUESS DONE (   0.1 sec)
                      ------------------
             **** ENERGY FILE WAS UPDATED (sp_gas.en.tmp) ****
Finished Guess after   0.3 sec
Maximum memory used throughout the entire GUESS-calculation: 25.0 MB

-------------------------------------------------------------------------------------------
                                      ORCA LEAN-SCF
                              memory conserving SCF solver
-------------------------------------------------------------------------------------------

----------------------------------------D-I-I-S--------------------------------------------
Iteration    Energy (Eh)           Delta-E    RMSDP     MaxDP     DIISErr   Damp  Time(sec)
-------------------------------------------------------------------------------------------
               ***  Starting incremental Fock matrix formation  ***
    1    -648.2773052871566506     0.00e+00  9.86e-03  5.26e-01  6.26e-01  0.700   4.7
    2    -648.3688670535514120    -9.16e-02  7.33e-03  3.77e-01  4.40e-01  0.700   4.1
    3    -648.4334746575143527    -6.46e-02  5.20e-03  2.62e-01  3.08e-01  0.700   4.0
    4    -648.4788186616210623    -4.53e-02  3.65e-03  1.83e-01  2.16e-01  0.700   4.2
                               ***Turning on AO-DIIS***
    5    -648.5106183867580967    -3.18e-02  2.56e-03  1.27e-01  1.51e-01  0.700   3.9
    6    -648.5329032017023110    -2.23e-02  1.80e-03  8.84e-02  1.06e-01  0.700   3.9
    7    -648.5485251249046996    -1.56e-02  1.26e-03  6.18e-02  7.40e-02  0.700   3.8
    8    -648.5594691141488966    -1.09e-02  2.93e-03  1.44e-01  5.19e-02  0.000   3.7
                              *** Initializing SOSCF ***
---------------------------------------S-O-S-C-F--------------------------------------
Iteration    Energy (Eh)           Delta-E    RMSDP     MaxDP     MaxGrad    Time(sec)
--------------------------------------------------------------------------------------
    9    -648.5850345132198527    -2.56e-02  9.05e-06  3.07e-04  2.05e-04     4.0
               *** Restarting incremental Fock matrix formation ***
   10    -648.5850346005679512    -8.73e-08  1.75e-05  8.25e-04  9.62e-05     4.9
   11    -648.5850335265186004     1.07e-06  1.03e-05  4.19e-04  2.84e-04     3.6
   12    -648.5850347707205401    -1.24e-06  4.47e-06  1.65e-04  1.84e-05     3.5
                  *** Gradient check signals convergence ***

               *****************************************************
               *                     SUCCESS                       *
               *           SCF CONVERGED AFTER  12 CYCLES          *
               *****************************************************

             **** ENERGY FILE WAS UPDATED (sp_gas.en.tmp) ****

----------------
TOTAL SCF ENERGY
----------------

Total Energy       :       -648.58503477072054 Eh          -17648.89605 eV

Components:
Nuclear Repulsion  :        779.90620427200406 Eh           21222.32674 eV
Electronic Energy  :      -1428.49123904272460 Eh          -38871.22279 eV
One Electron Energy:      -2431.81069159942081 Eh          -66172.93309 eV
Two Electron Energy:       1003.31945255669621 Eh           27301.71030 eV

Virial components:
Potential Energy   :      -1294.75324965057916 Eh          -35232.02708 eV
Kinetic Energy     :        646.16821487985874 Eh           17583.13104 eV
Virial Ratio       :          2.00374023332502

DFT components:
N(Alpha)           :       47.000000799323 electrons
N(Beta)            :       47.000000799323 electrons
N(Total)           :       94.000001598646 electrons
E(X)               :      -82.887609063908 Eh       
E(C)               :       -3.110276396022 Eh       
E(XC)              :      -85.997885459931 Eh       

---------------
SCF CONVERGENCE
---------------

  Last Energy change         ...    1.2442e-06  Tolerance :   1.0000e-06
  Last MAX-Density change    ...    1.6475e-04  Tolerance :   1.0000e-05
  Last RMS-Density change    ...    4.4709e-06  Tolerance :   1.0000e-06
  Last DIIS Error            ...    2.0469e-04  Tolerance :   1.0000e-06
  Last Orbital Gradient      ...    1.8418e-05  Tolerance :   3.3300e-04
  Last Orbital Rotation      ...    7.9781e-05  Tolerance :   3.3300e-04


----------------
ORBITAL ENERGIES
----------------

  NO   OCC          E(Eh)            E(eV) 
   0   2.0000     -19.019862      -517.5567 
   1   2.0000     -19.008636      -517.2513 
   2   2.0000     -18.942399      -515.4489 
   3   2.0000     -18.937098      -515.3046 
   4   2.0000     -10.172891      -276.8184 
   5   2.0000     -10.171460      -276.7795 
   6   2.0000     -10.123293      -275.4688 
   7   2.0000     -10.068964      -273.9904 
   8   2.0000     -10.058092      -273.6946 
   9   2.0000     -10.055560      -273.6257 
  10   2.0000     -10.054079      -273.5854 
  11   2.0000     -10.050373      -273.4846 
  12   2.0000     -10.049479      -273.4602 
  13   2.0000      -1.096409       -29.8348 
  14   2.0000      -1.082987       -29.4696 
  15   2.0000      -0.996106       -27.1054 
  16   2.0000      -0.982494       -26.7350 
  17   2.0000      -0.849444       -23.1145 
  18   2.0000      -0.762498       -20.7486 
  19   2.0000      -0.750473       -20.4214 
  20   2.0000      -0.717434       -19.5224 
  21   2.0000      -0.650228       -17.6936 
  22   2.0000      -0.630356       -17.1528 
  23   2.0000      -0.580407       -15.7937 
  24   2.0000      -0.560766       -15.2592 
  25   2.0000      -0.504122       -13.7179 
  26   2.0000      -0.476355       -12.9623 
  27   2.0000      -0.467756       -12.7283 
  28   2.0000      -0.463750       -12.6193 
  29   2.0000      -0.449199       -12.2233 
  30   2.0000      -0.443044       -12.0558 
  31   2.0000      -0.429767       -11.6946 
  32   2.0000      -0.427937       -11.6448 
  33   2.0000      -0.414282       -11.2732 
  34   2.0000      -0.390111       -10.6155 
  35   2.0000      -0.383206       -10.4276 
  36   2.0000      -0.372997       -10.1498 
  37   2.0000      -0.370717       -10.0877 
  38   2.0000      -0.353691        -9.6244 
  39   2.0000      -0.341797        -9.3008 
  40   2.0000      -0.335952        -9.1417 
  41   2.0000      -0.298858        -8.1323 
  42   2.0000      -0.294670        -8.0184 
  43   2.0000      -0.260509        -7.0888 
  44   2.0000      -0.250633        -6.8201 
  45   2.0000      -0.245654        -6.6846 
  46   2.0000      -0.244156        -6.6438 
  47   0.0000      -0.084607        -2.3023 
  48   0.0000      -0.051027        -1.3885 
  49   0.0000      -0.023213        -0.6316 
  50   0.0000       0.017132         0.4662 
  51   0.0000       0.052310         1.4234 
  52   0.0000       0.070933         1.9302 
  53   0.0000       0.082505         2.2451 
  54   0.0000       0.106243         2.8910 
  55   0.0000       0.117427         3.1954 
  56   0.0000       0.120494         3.2788 
  57   0.0000       0.128402         3.4940 
*Only the first 10 virtual orbitals were printed.

                    ********************************
                    * MULLIKEN POPULATION ANALYSIS *
                    ********************************

-----------------------
MULLIKEN ATOMIC CHARGES
-----------------------
   0 C :   -0.525662
   1 C :    0.398701
   2 O :   -0.400266
   3 O :   -0.112806
   4 C :    0.226600
   5 C :   -0.192207
   6 C :   -0.112956
   7 C :   -0.151797
   8 C :   -0.212856
   9 C :    0.004464
  10 C :    0.288836
  11 O :   -0.403414
  12 O :   -0.320977
  13 H :    0.175250
  14 H :    0.180462
  15 H :    0.173814
  16 H :    0.160812
  17 H :    0.151857
  18 H :    0.150724
  19 H :    0.187587
  20 H :    0.333833
Sum of atomic charges:   -0.0000000

--------------------------------
MULLIKEN REDUCED ORBITAL CHARGES
--------------------------------
  0 C s       :     3.341609  s :     3.341609
      pz      :     1.074113  p :     3.159430
      px      :     0.974275
      py      :     1.111042
      dz2     :     0.004204  d :     0.024622
      dxz     :     0.005399
      dyz     :     0.004638
      dx2y2   :     0.005918
      dxy     :     0.004463

  1 C s       :     3.129344  s :     3.129344
      pz      :     0.753962  p :     2.347852
      px      :     0.828108
      py      :     0.765782
      dz2     :     0.022721  d :     0.124104
      dxz     :     0.029119
      dyz     :     0.017753
      dx2y2   :     0.025253
      dxy     :     0.029257

  2 O s       :     3.847000  s :     3.847000
      pz      :     1.371918  p :     4.531670
      px      :     1.749270
      py      :     1.410481
      dz2     :     0.009734  d :     0.021597
      dxz     :     0.000052
      dyz     :     0.008477
      dx2y2   :     0.002153
      dxy     :     0.001180

  3 O s       :     3.668275  s :     3.668275
      pz      :     1.668930  p :     4.396453
      px      :     1.111718
      py      :     1.615805
      dz2     :     0.004134  d :     0.048078
      dxz     :     0.008451
      dyz     :     0.013036
      dx2y2   :     0.011317
      dxy     :     0.011140

  4 C s       :     3.137948  s :     3.137948
      pz      :     0.949705  p :     2.567096
      px      :     0.767356
      py      :     0.850035
      dz2     :     0.006518  d :     0.068356
      dxz     :     0.012643
      dyz     :     0.008256
      dx2y2   :     0.021306
      dxy     :     0.019634

  5 C s       :     3.196540  s :     3.196540
      pz      :     1.007147  p :     2.959800
      px      :     0.953575
      py      :     0.999078
      dz2     :     0.003465  d :     0.035867
      dxz     :     0.006110
      dyz     :     0.004172
      dx2y2   :     0.009571
      dxy     :     0.012549

  6 C s       :     3.186131  s :     3.186131
      pz      :     0.954138  p :     2.888861
      px      :     0.942694
      py      :     0.992029
      dz2     :     0.004202  d :     0.037963
      dxz     :     0.006159
      dyz     :     0.004232
      dx2y2   :     0.011202
      dxy     :     0.012169

  7 C s       :     3.197559  s :     3.197559
      pz      :     0.987442  p :     2.916920
      px      :     1.023567
      py      :     0.905910
      dz2     :     0.003686  d :     0.037318
      dxz     :     0.003442
      dyz     :     0.006547
      dx2y2   :     0.012516
      dxy     :     0.011127

  8 C s       :     3.233939  s :     3.233939
      pz      :     0.959543  p :     2.941652
      px      :     0.947321
      py      :     1.034788
      dz2     :     0.003329  d :     0.037265
      dxz     :     0.006420
      dyz     :     0.004389
      dx2y2   :     0.012498
      dxy     :     0.010628

  9 C s       :     3.206465  s :     3.206465
      pz      :     1.050851  p :     2.745938
      px      :     0.881259
      py      :     0.813828
      dz2     :     0.004873  d :     0.043134
      dxz     :     0.006271
      dyz     :     0.005570
      dx2y2   :     0.011703
      dxy     :     0.014717

 10 C s       :     3.070400  s :     3.070400
      pz      :     0.787770  p :     2.514230
      px      :     0.840478
      py      :     0.885982
      dz2     :     0.007539  d :     0.126533
      dxz     :     0.020452
      dyz     :     0.016448
      dx2y2   :     0.046721
      dxy     :     0.035372

 11 O s       :     3.843789  s :     3.843789
      pz      :     1.442918  p :     4.534179
      px      :     1.701328
      py      :     1.389933
      dz2     :     0.004753  d :     0.025446
      dxz     :     0.002343
      dyz     :     0.008225
      dx2y2   :     0.002717
      dxy     :     0.007409

 12 O s       :     3.729170  s :     3.729170
      pz      :     1.766363  p :     4.558211
      px      :     1.246558
      py      :     1.545290
      dz2     :     0.003375  d :     0.033596
      dxz     :     0.002651
      dyz     :     0.006308
      dx2y2   :     0.013638
      dxy     :     0.007625

 13 H s       :     0.806503  s :     0.806503
      pz      :     0.003560  p :     0.018247
      px      :     0.004987
      py      :     0.009699

 14 H s       :     0.800928  s :     0.800928
      pz      :     0.006710  p :     0.018611
      px      :     0.005934
      py      :     0.005967

 15 H s       :     0.807977  s :     0.807977
      pz      :     0.009474  p :     0.018209
      px      :     0.003317
      py      :     0.005417

 16 H s       :     0.819363  s :     0.819363
      pz      :     0.004815  p :     0.019825
      px      :     0.004978
      py      :     0.010032

 17 H s       :     0.828618  s :     0.828618
      pz      :     0.003953  p :     0.019525
      px      :     0.005921
      py      :     0.009651

 18 H s       :     0.829654  s :     0.829654
      pz      :     0.004509  p :     0.019622
      px      :     0.011958
      py      :     0.003155

 19 H s       :     0.792442  s :     0.792442
      pz      :     0.004557  p :     0.019971
      px      :     0.004407
      py      :     0.011007

 20 H s       :     0.625767  s :     0.625767
      pz      :     0.010591  p :     0.040401
      px      :     0.009983
      py      :     0.019826


------------------------
MULLIKEN OVERLAP CHARGES
------------------------
B(  0-C ,  1-C ) :   0.5110 B(  0-C ,  2-O ) :  -0.1101 B(  0-C ,  3-O ) :  -0.0912 
B(  0-C , 13-H ) :   0.8357 B(  0-C , 14-H ) :   0.7677 B(  0-C , 15-H ) :   0.8392 
B(  1-C ,  2-O ) :   1.0116 B(  1-C ,  3-O ) :   0.3185 B(  1-C ,  4-C ) :  -0.3067 
B(  1-C ,  5-C ) :  -0.0758 B(  1-C , 13-H ) :  -0.0774 B(  1-C , 15-H ) :  -0.1194 
B(  2-O ,  3-O ) :  -0.2210 B(  2-O ,  5-C ) :   0.0541 B(  3-O ,  4-C ) :   0.4562 
B(  3-O ,  5-C ) :  -0.1059 B(  3-O ,  9-C ) :  -0.1194 B(  4-C ,  5-C ) :   0.5399 
B(  4-C ,  6-C ) :   0.1270 B(  4-C ,  7-C ) :  -0.3075 B(  4-C ,  8-C ) :   0.1336 
B(  4-C ,  9-C ) :   0.2025 B(  4-C , 10-C ) :  -0.2082 B(  5-C ,  6-C ) :   0.6147 
B(  5-C ,  8-C ) :  -0.3423 B(  5-C , 10-C ) :   0.0645 B(  5-C , 16-H ) :   0.7632 
B(  5-C , 17-H ) :  -0.0529 B(  6-C ,  7-C ) :   0.7379 B(  6-C ,  8-C ) :   0.0630 
B(  6-C ,  9-C ) :  -0.2364 B(  6-C , 17-H ) :   0.7958 B(  6-C , 18-H ) :  -0.0632 
B(  7-C ,  8-C ) :   0.4749 B(  7-C ,  9-C ) :   0.0672 B(  7-C , 10-C ) :   0.0942 
B(  7-C , 17-H ) :  -0.0544 B(  7-C , 18-H ) :   0.8079 B(  7-C , 19-H ) :  -0.0961 
B(  8-C ,  9-C ) :   0.4651 B(  8-C , 10-C ) :  -0.3551 B(  8-C , 11-O ) :   0.0674 
B(  8-C , 18-H ) :  -0.0572 B(  8-C , 19-H ) :   0.8225 B(  9-C , 10-C ) :   0.3086 
B(  9-C , 11-O ) :  -0.3776 B(  9-C , 12-O ) :  -0.3124 B( 10-C , 11-O ) :   1.2531 
B( 10-C , 12-O ) :   0.5143 B( 11-O , 12-O ) :  -0.2193 B( 12-O , 20-H ) :   0.5811 



                     *******************************
                     * LOEWDIN POPULATION ANALYSIS *
                     *******************************

----------------------
LOEWDIN ATOMIC CHARGES
----------------------
   0 C :   -0.328615
   1 C :    0.378610
   2 O :   -0.401340
   3 O :   -0.528510
   4 C :    0.234329
   5 C :   -0.105832
   6 C :   -0.131280
   7 C :   -0.160902
   8 C :   -0.093672
   9 C :   -0.008162
  10 C :    0.377446
  11 O :   -0.431222
  12 O :   -0.374113
  13 H :    0.179102
  14 H :    0.185718
  15 H :    0.177439
  16 H :    0.188553
  17 H :    0.172277
  18 H :    0.171723
  19 H :    0.195075
  20 H :    0.303373

-------------------------------
LOEWDIN REDUCED ORBITAL CHARGES
-------------------------------
  0 C s       :     2.955009  s :     2.955009
      pz      :     1.128225  p :     3.316632
      px      :     1.038819
      py      :     1.149588
      dz2     :     0.010327  d :     0.056975
      dxz     :     0.011544
      dyz     :     0.011760
      dx2y2   :     0.012277
      dxy     :     0.011066

  1 C s       :     2.734862  s :     2.734862
      pz      :     0.844822  p :     2.617020
      px      :     0.934585
      py      :     0.837613
      dz2     :     0.043468  d :     0.269508
      dxz     :     0.061668
      dyz     :     0.047657
      dx2y2   :     0.052953
      dxy     :     0.063761

  2 O s       :     3.548676  s :     3.548676
      pz      :     1.447314  p :     4.641061
      px      :     1.717635
      py      :     1.476113
      dz2     :     0.037638  d :     0.211603
      dxz     :     0.045150
      dyz     :     0.058045
      dx2y2   :     0.033925
      dxy     :     0.036846

  3 O s       :     3.434242  s :     3.434242
      pz      :     1.653892  p :     4.607432
      px      :     1.345705
      py      :     1.607836
      dz2     :     0.067758  d :     0.486835
      dxz     :     0.104796
      dyz     :     0.060854
      dx2y2   :     0.133992
      dxy     :     0.119435

  4 C s       :     2.771656  s :     2.771656
      pz      :     0.917160  p :     2.843486
      px      :     0.864651
      py      :     1.061675
      dz2     :     0.013188  d :     0.150529
      dxz     :     0.027477
      dyz     :     0.015652
      dx2y2   :     0.047870
      dxy     :     0.046342

  5 C s       :     2.891850  s :     2.891850
      pz      :     0.993628  p :     3.135457
      px      :     1.071403
      py      :     1.070426
      dz2     :     0.005846  d :     0.078525
      dxz     :     0.011570
      dyz     :     0.008006
      dx2y2   :     0.023988
      dxy     :     0.029115

  6 C s       :     2.904000  s :     2.904000
      pz      :     0.961564  p :     3.144724
      px      :     1.088122
      py      :     1.095039
      dz2     :     0.007410  d :     0.082556
      dxz     :     0.011999
      dyz     :     0.007788
      dx2y2   :     0.026252
      dxy     :     0.029107

  7 C s       :     2.900499  s :     2.900499
      pz      :     0.992675  p :     3.178472
      px      :     1.097657
      py      :     1.088140
      dz2     :     0.006386  d :     0.081931
      dxz     :     0.006181
      dyz     :     0.012888
      dx2y2   :     0.030256
      dxy     :     0.026220

  8 C s       :     2.895078  s :     2.895078
      pz      :     0.950465  p :     3.117540
      px      :     1.065525
      py      :     1.101550
      dz2     :     0.005706  d :     0.081054
      dxz     :     0.012466
      dyz     :     0.007993
      dx2y2   :     0.029212
      dxy     :     0.025676

  9 C s       :     2.843912  s :     2.843912
      pz      :     1.015595  p :     3.074490
      px      :     1.056115
      py      :     1.002780
      dz2     :     0.008726  d :     0.089759
      dxz     :     0.011489
      dyz     :     0.010393
      dx2y2   :     0.027871
      dxy     :     0.031279

 10 C s       :     2.729278  s :     2.729278
      pz      :     0.733837  p :     2.619412
      px      :     0.901822
      py      :     0.983754
      dz2     :     0.019438  d :     0.273864
      dxz     :     0.039359
      dyz     :     0.029966
      dx2y2   :     0.104828
      dxy     :     0.080273

 11 O s       :     3.551915  s :     3.551915
      pz      :     1.438450  p :     4.661901
      px      :     1.692484
      py      :     1.530967
      dz2     :     0.028529  d :     0.217406
      dxz     :     0.019312
      dyz     :     0.039858
      dx2y2   :     0.068678
      dxy     :     0.061030

 12 O s       :     3.467899  s :     3.467899
      pz      :     1.723038  p :     4.645994
      px      :     1.392391
      py      :     1.530565
      dz2     :     0.035986  d :     0.260220
      dxz     :     0.045549
      dyz     :     0.019271
      dx2y2   :     0.075765
      dxy     :     0.083649

 13 H s       :     0.776972  s :     0.776972
      pz      :     0.007800  p :     0.043926
      px      :     0.011529
      py      :     0.024597

 14 H s       :     0.769619  s :     0.769619
      pz      :     0.016667  p :     0.044663
      px      :     0.013918
      py      :     0.014078

 15 H s       :     0.778171  s :     0.778171
      pz      :     0.023804  p :     0.044390
      px      :     0.007387
      py      :     0.013198

 16 H s       :     0.766156  s :     0.766156
      pz      :     0.010778  p :     0.045290
      px      :     0.011287
      py      :     0.023225

 17 H s       :     0.782889  s :     0.782889
      pz      :     0.008595  p :     0.044834
      px      :     0.013543
      py      :     0.022695

 18 H s       :     0.783204  s :     0.783204
      pz      :     0.009959  p :     0.045073
      px      :     0.028020
      py      :     0.007094

 19 H s       :     0.758114  s :     0.758114
      pz      :     0.010360  p :     0.046811
      px      :     0.009868
      py      :     0.026583

 20 H s       :     0.581221  s :     0.581221
      pz      :     0.027430  p :     0.115405
      px      :     0.026880
      py      :     0.061096


---------------------------------
LOEWDIN BOND ORDERS (THRESH 0.050000)
---------------------------------
B(  0-C ,  1-C ) :   0.9777 B(  0-C ,  2-O ) :   0.1853 B(  0-C ,  3-O ) :   0.1865 
B(  0-C , 13-H ) :   0.9033 B(  0-C , 14-H ) :   0.8927 B(  0-C , 15-H ) :   0.8995 
B(  1-C ,  2-O ) :   2.2038 B(  1-C ,  3-O ) :   1.3638 B(  1-C ,  4-C ) :   0.0765 
B(  1-C , 14-H ) :   0.0501 B(  2-O ,  3-O ) :   0.4448 B(  3-O ,  4-C ) :   1.3160 
B(  3-O ,  5-C ) :   0.1892 B(  3-O ,  9-C ) :   0.1811 B(  3-O , 12-O ) :   0.1440 
B(  4-C ,  5-C ) :   1.3350 B(  4-C ,  6-C ) :   0.0958 B(  4-C ,  7-C ) :   0.1061 
B(  4-C ,  8-C ) :   0.0889 B(  4-C ,  9-C ) :   1.2548 B(  4-C , 10-C ) :   0.0762 
B(  4-C , 16-H ) :   0.0532 B(  5-C ,  6-C ) :   1.5043 B(  5-C ,  7-C ) :   0.0890 
B(  5-C ,  8-C ) :   0.1233 B(  5-C ,  9-C ) :   0.0851 B(  5-C , 16-H ) :   0.8509 
B(  5-C , 17-H ) :   0.0557 B(  6-C ,  7-C ) :   1.4808 B(  6-C ,  8-C ) :   0.0927 
B(  6-C ,  9-C ) :   0.1133 B(  6-C , 16-H ) :   0.0522 B(  6-C , 17-H ) :   0.8712 
B(  6-C , 18-H ) :   0.0534 B(  7-C ,  8-C ) :   1.5275 B(  7-C ,  9-C ) :   0.0897 
B(  7-C , 17-H ) :   0.0534 B(  7-C , 18-H ) :   0.8717 B(  7-C , 19-H ) :   0.0523 
B(  8-C ,  9-C ) :   1.3836 B(  8-C , 10-C ) :   0.0904 B(  8-C , 11-O ) :   0.0741 
B(  8-C , 18-H ) :   0.0559 B(  8-C , 19-H ) :   0.8459 B(  9-C , 10-C ) :   0.9084 
B(  9-C , 11-O ) :   0.1842 B(  9-C , 12-O ) :   0.1575 B(  9-C , 19-H ) :   0.0509 
B( 10-C , 11-O ) :   2.1540 B( 10-C , 12-O ) :   1.4711 B( 10-C , 20-H ) :   0.0565 
B( 11-O , 12-O ) :   0.4692 B( 12-O , 20-H ) :   0.9064 

------------------------------------------
LOEWDIN REDUCED ORBITAL POPULATIONS PER MO
-------------------------------------------
THRESHOLD FOR PRINTING IS 0.1%%
                      0         1         2         3         4         5   
                 -19.01986 -19.00864 -18.94240 -18.93710 -10.17289 -10.17146
                   2.00000   2.00000   2.00000   2.00000   2.00000   2.00000
                  --------  --------  --------  --------  --------  --------
 1 C  s               0.0       0.0       0.0       0.0      98.9       0.0
 2 O  s               0.0       0.0      99.9       0.0       0.0       0.0
 2 O  pz              0.0       0.0       0.0       0.0       0.1       0.0
 2 O  dyz             0.0       0.0       0.0       0.0       0.2       0.0
 3 O  s              99.9       0.0       0.0       0.0       0.0       0.0
 3 O  dxy             0.0       0.0       0.0       0.0       0.2       0.0
10 C  s               0.0       0.0       0.0       0.0       0.0      98.9
11 O  s               0.0       0.0       0.0      99.9       0.0       0.0
11 O  py              0.0       0.0       0.0       0.0       0.0       0.2
11 O  dxy             0.0       0.0       0.0       0.0       0.0       0.2
12 O  s               0.0      99.9       0.0       0.0       0.0       0.0
12 O  px              0.0       0.0       0.0       0.0       0.0       0.1
12 O  dx2y2           0.0       0.0       0.0       0.0       0.0       0.2

                      6         7         8         9        10        11   
                 -10.12329 -10.06896 -10.05809 -10.05556 -10.05408 -10.05037
                   2.00000   2.00000   2.00000   2.00000   2.00000   2.00000
                  --------  --------  --------  --------  --------  --------
 3 O  px              0.1       0.0       0.0       0.0       0.0       0.0
 3 O  dx2y2           0.2       0.0       0.0       0.0       0.0       0.0
 4 C  s              99.2       0.0       0.0       0.0       0.0       0.0
 5 C  s               0.0       0.0       0.4       0.0      99.2       0.0
 5 C  px              0.0       0.0       0.1       0.0       0.0       0.0
 6 C  s               0.0       0.0      99.2       0.0       0.4       0.1
 6 C  px              0.0       0.0       0.0       0.0       0.1       0.0
 7 C  s               0.0       0.0       0.1       0.2       0.0      99.3
 8 C  s               0.0       0.0       0.0      99.3       0.0       0.2
 8 C  px              0.0       0.1       0.0       0.0       0.0       0.0
 9 C  s               0.0      99.5       0.0       0.0       0.0       0.0
 9 C  px              0.0       0.0       0.0       0.1       0.0       0.0

                     12        13        14        15        16        17   
                 -10.04948  -1.09641  -1.08299  -0.99611  -0.98249  -0.84944
                   2.00000   2.00000   2.00000   2.00000   2.00000   2.00000
                  --------  --------  --------  --------  --------  --------
 0 C  s              99.7       0.8       0.1       0.4       0.0       0.2
 0 C  pz              0.0       0.1       0.0       0.3       0.0       0.0
 0 C  px              0.0       1.4       0.2       0.2       0.0       0.1
 0 C  py              0.0       0.0       0.0       0.2       0.0       0.0
 1 C  s               0.0      12.5       1.6       5.9       0.0       0.3
 1 C  pz              0.0       0.0       0.0       9.5       0.1       0.5
 1 C  px              0.1       3.9       0.4       0.1       0.0       0.2
 1 C  py              0.0       0.7       0.0      11.6       0.1       0.6
 1 C  dz2             0.0       0.0       0.0       0.2       0.0       0.0
 1 C  dxz             0.0       0.0       0.0       0.4       0.0       0.0
 1 C  dyz             0.0       0.6       0.1       0.7       0.0       0.0
 1 C  dx2y2           0.0       0.0       0.0       0.2       0.0       0.0
 1 C  dxy             0.0       0.2       0.0       0.5       0.0       0.0
 2 O  s               0.0       7.9       1.3      44.4       0.2       0.3
 2 O  pz              0.0       1.1       0.2       2.1       0.0       0.0
 2 O  px              0.0       0.0       0.0       0.4       0.0       0.0
 2 O  py              0.0       1.1       0.2       1.7       0.0       0.0
 2 O  dxz             0.0       0.0       0.0       0.1       0.0       0.0
 2 O  dyz             0.0       1.0       0.1       0.1       0.0       0.0
 2 O  dx2y2           0.0       0.2       0.0       0.0       0.0       0.0
 2 O  dxy             0.0       0.0       0.0       0.1       0.0       0.0
 3 O  s               0.0      40.2       4.3      12.1       0.2       1.1
 3 O  pz              0.0       1.1       0.1       0.2       0.0       0.0
 3 O  px              0.0       0.0       0.0       0.9       0.0       2.6
 3 O  py              0.0       1.2       0.4       0.4       0.0       0.2
 3 O  dz2             0.0       0.1       0.0       0.0       0.0       0.1
 3 O  dxz             0.0       0.0       0.0       0.3       0.0       0.2
 3 O  dyz             0.0       0.2       0.2       0.7       0.0       0.0
 3 O  dx2y2           0.0       0.0       0.1       0.4       0.0       0.3
 3 O  dxy             0.0       0.2       0.0       0.2       0.0       0.0
 4 C  s               0.0       5.2       0.2       1.9       0.1       9.6
 4 C  pz              0.0       0.2       0.1       0.3       0.0       0.2
 4 C  px              0.0       5.6       0.6       1.2       0.0       4.6
 4 C  py              0.0       0.0       0.4       0.1       0.0       0.1
 4 C  dz2             0.0       0.1       0.0       0.1       0.0       0.1
 4 C  dx2y2           0.0       0.3       0.0       0.1       0.0       0.1
 5 C  s               0.0       0.5       0.0       0.1       0.0      10.5
 5 C  pz              0.0       0.0       0.0       0.0       0.0       0.3
 5 C  px              0.0       0.7       0.1       0.0       0.0       0.6
 5 C  py              0.0       0.3       0.0       0.2       0.0       1.8
 6 C  s               0.0       0.0       0.0       0.0       0.0      10.4
 6 C  px              0.0       0.1       0.0       0.0       0.0       0.8
 6 C  py              0.0       0.0       0.0       0.0       0.0       1.8
 7 C  s               0.0       0.0       0.0       0.0       0.0      10.4
 7 C  pz              0.0       0.0       0.0       0.0       0.0       0.1
 7 C  px              0.0       0.0       0.0       0.0       0.0       2.5
 8 C  s               0.0       0.1       0.1       0.0       0.1      11.3
 8 C  pz              0.0       0.0       0.0       0.0       0.0       0.3
 8 C  px              0.0       0.1       0.1       0.0       0.1       0.7
 8 C  py              0.0       0.0       0.1       0.0       0.1       1.8
 9 C  s               0.0       0.8       0.6       0.2       0.4      12.7
 9 C  px              0.0       0.7       0.4       0.1       0.0       0.9
 9 C  py              0.0       0.1       1.8       0.2       0.5       1.6
10 C  s               0.0       2.0      15.1       0.0       3.7       0.5
10 C  pz              0.0       0.0       0.0       0.0       0.6       0.1
10 C  px              0.0       0.4       3.6       0.0      13.8       0.5
10 C  py              0.0       0.1       1.5       0.3       9.4       2.5
10 C  dz2             0.0       0.1       0.6       0.0       0.1       0.0
10 C  dyz             0.0       0.0       0.0       0.0       0.1       0.0
10 C  dx2y2           0.0       0.0       0.2       0.0       1.2       0.0
10 C  dxy             0.0       0.0       0.2       0.0       0.5       0.1
11 O  s               0.0       1.0      11.1       0.4      41.6       0.5
11 O  pz              0.0       0.0       0.1       0.0       0.1       0.0
11 O  px              0.0       0.1       1.0       0.0       0.5       0.0
11 O  py              0.0       0.2       1.9       0.0       3.0       0.1
11 O  dz2             0.0       0.0       0.4       0.0       0.0       0.0
11 O  dx2y2           0.0       0.0       0.0       0.0       0.3       0.1
11 O  dxy             0.0       0.1       0.9       0.0       0.1       0.0
12 O  s               0.0       4.5      38.3       0.0      17.4       0.1
12 O  px              0.0       0.3       2.0       0.0       0.7       0.1
12 O  py              0.0       0.1       1.0       0.0       0.2       0.1
12 O  dz2             0.0       0.1       0.3       0.0       0.2       0.0
12 O  dx2y2           0.0       0.0       0.4       0.0       0.3       0.0
12 O  dxy             0.0       0.0       0.1       0.0       0.7       0.1
16 H  s               0.0       0.0       0.0       0.0       0.0       0.9
17 H  s               0.0       0.0       0.0       0.0       0.0       0.9
18 H  s               0.0       0.0       0.0       0.0       0.0       0.9
19 H  s               0.0       0.0       0.0       0.0       0.0       1.0
20 H  s               0.0       0.6       5.8       0.0       2.5       0.0
20 H  px              0.0       0.0       0.3       0.0       0.2       0.0
20 H  py              0.0       0.1       0.9       0.0       0.6       0.0

                     18        19        20        21        22        23   
                  -0.76250  -0.75047  -0.71743  -0.65023  -0.63036  -0.58041
                   2.00000   2.00000   2.00000   2.00000   2.00000   2.00000
                  --------  --------  --------  --------  --------  --------
 0 C  s               8.9       5.0      21.5       1.6       5.1       0.1
 0 C  px              0.7       0.2       0.1       0.3       1.6       0.1
 1 C  s               3.6       1.4       1.8       0.2       1.6       0.0
 1 C  pz              2.8       0.7       1.0       0.1       1.0       0.1
 1 C  px              2.3       1.9       7.7       0.6       3.0       0.0
 1 C  py              1.8       0.5       0.0       0.4       1.9       0.2
 1 C  dx2y2           0.0       0.0       0.1       0.0       0.0       0.0
 2 O  s               1.4       0.3       0.7       0.0       0.4       0.0
 2 O  pz              0.2       0.1       0.1       0.0       0.2       0.0
 2 O  px              0.1       0.1       0.3       0.0       0.3       0.1
 2 O  py              0.2       0.1       0.1       0.0       0.3       0.0
 2 O  dxz             0.1       0.1       0.3       0.0       0.1       0.0
 2 O  dyz             0.2       0.1       0.0       0.0       0.2       0.0
 2 O  dx2y2           0.0       0.0       0.1       0.0       0.1       0.0
 2 O  dxy             0.1       0.1       0.2       0.0       0.0       0.0
 3 O  s               0.0       0.0       1.8       0.1       0.1       0.1
 3 O  pz              0.0       0.0       0.1       0.1       0.2       0.1
 3 O  px             10.2       3.0       0.0       3.7      16.3       0.6
 3 O  py              1.3       0.0       0.1       0.1       5.7       1.0
 3 O  dz2             0.0       0.0       0.6       0.0       0.0       0.0
 3 O  dxz             0.3       0.0       0.1       0.0       0.1       0.0
 3 O  dx2y2           0.0       0.0       1.2       0.5       0.2       0.0
 3 O  dxy             0.1       0.8       0.1       0.1       0.1       0.5
 4 C  s               6.2       1.3       3.9       2.9       1.1       0.0
 4 C  pz              0.0       0.7       0.1       0.2       0.5       1.0
 4 C  px              0.3       0.0       2.6       0.0       6.4       0.1
 4 C  py              1.9       8.0       0.4       0.7       2.4      10.9
 4 C  dx2y2           0.0       0.0       0.1       0.0       0.1       0.0
 4 C  dxy             0.0       0.2       0.0       0.0       0.0       0.1
 5 C  s               0.4      12.8       6.3       0.1       4.7       3.9
 5 C  pz              0.1       0.0       0.0       0.0       0.0       0.5
 5 C  px              4.3       0.2       0.5       4.7       0.1       5.3
 5 C  py              0.6       0.2       0.4       1.6       0.2       0.3
 6 C  s              10.2       6.8       0.1       7.4       0.6       4.2
 6 C  pz              0.1       0.3       0.6       0.0       0.6       0.0
 6 C  px              0.4       2.1       3.8       0.1       5.9       1.5
 6 C  py              0.9       0.5       1.3       0.8       1.0       0.3
 6 C  dx2y2           0.0       0.1       0.1       0.0       0.1       0.0
 7 C  s              10.8       0.3       9.0       0.1       6.3       0.8
 7 C  pz              0.1       0.3       0.1       0.3       0.0       0.7
 7 C  px              0.3       0.0       0.1       0.1       1.3       0.2
 7 C  py              0.7       5.1       0.7       5.9       1.3       7.8
 7 C  dxy             0.0       0.1       0.0       0.1       0.0       0.1
 8 C  s               1.0      10.8       4.9       4.0       1.8       3.0
 8 C  pz              0.0       0.0       0.0       0.0       0.0       0.4
 8 C  px              3.2       1.3       2.3       0.4       3.2       6.3
 8 C  py              1.7       0.3       0.7       0.2       1.7       0.1
 9 C  s               4.9      10.9       0.9       0.6       1.1       4.4
 9 C  pz              0.2       0.4       0.3       0.1       0.5       0.3
 9 C  px              2.4       1.3       2.2       4.4       4.7       0.3
 9 C  py              0.1       1.5       0.5       5.1       0.2       1.4
 9 C  dx2y2           0.0       0.1       0.1       0.0       0.0       0.0
 9 C  dxy             0.0       0.0       0.0       0.2       0.0       0.1
10 C  s               0.7       1.3       0.2       6.4       0.1       1.6
10 C  pz              0.1       0.1       0.0       0.2       0.0       0.0
10 C  px              0.2       0.9       0.0       0.3       0.6       4.0
10 C  py              2.3       4.5       0.4       6.5       0.0       0.0
10 C  dx2y2           0.0       0.0       0.0       0.0       0.0       0.2
10 C  dxy             0.0       0.1       0.0       0.0       0.0       0.1
11 O  s               0.3       1.1       0.0       1.8       0.0       0.5
11 O  px              0.0       0.1       0.0       0.1       0.1       0.5
11 O  py              0.1       0.4       0.0       1.2       0.0       0.2
11 O  dx2y2           0.1       0.3       0.0       0.6       0.0       0.0
11 O  dxy             0.0       0.0       0.0       0.3       0.1       0.2
12 O  s               0.2       0.2       0.1       1.0       0.1       0.3
12 O  px              0.6       0.7       0.3      15.2       1.6      17.3
12 O  py              0.4       0.5       0.1       5.8       0.7       3.0
12 O  dx2y2           0.1       0.1       0.0       0.9       0.0       0.3
12 O  dxy             0.1       0.1       0.0       0.0       0.0       0.3
13 H  s               1.3       0.8       4.3       0.6       2.1       0.1
13 H  py              0.1       0.1       0.3       0.0       0.1       0.0
14 H  s               1.4       0.9       4.5       0.5       1.8       0.0
14 H  pz              0.1       0.0       0.2       0.0       0.1       0.0
14 H  px              0.0       0.0       0.1       0.0       0.0       0.0
14 H  py              0.0       0.0       0.1       0.0       0.1       0.0
15 H  s               1.7       0.9       4.1       0.3       1.1       0.0
15 H  pz              0.1       0.1       0.3       0.0       0.1       0.0
16 H  s               0.0       2.1       1.1       0.0       1.5       3.0
16 H  py              0.0       0.1       0.1       0.0       0.1       0.2
17 H  s               1.5       1.1       0.0       2.6       0.3       2.3
17 H  py              0.1       0.1       0.0       0.2       0.0       0.1
18 H  s               1.5       0.0       1.8       0.0       2.5       0.6
18 H  px              0.1       0.0       0.2       0.0       0.2       0.0
19 H  s               0.1       1.7       0.9       0.9       0.6       2.0
19 H  py              0.0       0.1       0.1       0.1       0.0       0.2
20 H  s               0.3       0.3       0.1       5.4       0.7       4.6
20 H  py              0.0       0.0       0.0       0.6       0.1       0.4

                     24        25        26        27        28        29   
                  -0.56077  -0.50412  -0.47636  -0.46776  -0.46375  -0.44920
                   2.00000   2.00000   2.00000   2.00000   2.00000   2.00000
                  --------  --------  --------  --------  --------  --------
 0 C  s               1.1       0.0       0.7       1.4       0.0       0.0
 0 C  pz              0.1       0.0       4.0       1.1       2.6       6.8
 0 C  px              1.6       0.2       3.9      13.0       0.5       0.1
 0 C  py              0.0       0.1       0.1       6.5       0.8       0.1
 0 C  dxz             0.0       0.0       0.1       0.2       0.0       0.0
 0 C  dx2y2           0.0       0.0       0.1       0.1       0.0       0.0
 1 C  s               1.6       0.5       1.3       2.3       1.6       0.2
 1 C  pz              0.3       0.3       1.2       3.2       2.0       4.3
 1 C  px              0.2       0.3       4.2       8.1       0.3       1.3
 1 C  py              0.9       0.1       1.2       5.7       0.1       1.0
 1 C  dyz             0.0       0.0       0.0       0.0       0.2       0.0
 1 C  dx2y2           0.0       0.0       0.0       0.0       0.2       0.0
 2 O  s               0.6       0.9       0.9       2.0       8.1       1.3
 2 O  pz              0.3       1.0       0.0       6.3       6.0       0.0
 2 O  px              0.0       0.2       2.6       7.6       0.3       2.0
 2 O  py              0.6       0.3       1.6       0.1      10.9       4.3
 2 O  dz2             0.0       0.0       0.1       0.4       0.0       0.2
 2 O  dxz             0.0       0.0       0.2       0.6       0.0       0.0
 2 O  dyz             0.1       0.1       0.0       0.0       0.3       0.0
 2 O  dx2y2           0.1       0.0       0.0       0.2       0.1       0.0
 2 O  dxy             0.0       0.0       0.3       0.3       0.0       0.1
 3 O  s               1.3       1.8       0.1       0.3       2.4       0.0
 3 O  pz              1.1       0.4       2.0      13.3      14.0       2.6
 3 O  px              6.1       0.1       0.7       1.7       4.7       0.8
 3 O  py              1.6       5.5       7.0       0.2       4.4       1.7
 3 O  dz2             0.0       0.1       0.0       0.5       0.1       0.1
 3 O  dxz             0.1       0.0       0.1       0.2       0.0       0.4
 3 O  dyz             0.0       0.0       0.1       0.0       0.2       0.0
 3 O  dx2y2           0.3       0.0       0.1       0.0       0.0       0.0
 3 O  dxy             0.3       0.1       0.4       0.6       0.0       0.1
 4 C  s               2.3       0.5       0.2       0.0       0.7       0.6
 4 C  pz              1.9       0.0       0.6       5.0       2.0       0.1
 4 C  px              7.5       0.0       0.1       0.0       1.8       1.2
 4 C  py              0.3       2.9       4.0       0.0       0.4       1.8
 4 C  dx2y2           0.2       0.3       0.1       0.0       0.1       0.1
 4 C  dxy             0.0       0.0       0.0       0.0       0.1       0.3
 5 C  s               0.9       0.3       1.1       0.1       0.9       0.4
 5 C  pz              0.4       0.4       0.2       0.7       0.4       0.4
 5 C  px              1.4       9.0       0.4       0.0       0.2       1.2
 5 C  py              8.1       0.1       4.0       0.4       0.1       1.3
 5 C  dx2y2           0.2       0.1       0.0       0.0       0.0       0.1
 6 C  s               2.3       0.6       0.2       0.0       0.9       0.3
 6 C  pz              0.7       0.4       0.6       0.1       0.0       0.1
 6 C  px              0.3       5.0       1.1       0.2       2.5       6.2
 6 C  py              6.5       0.2       4.1       0.1       2.9      11.6
 7 C  s               1.8       3.3       0.2       0.0       0.8       0.4
 7 C  pz              0.0       0.3       1.0       0.2       0.0       0.3
 7 C  px              0.1      12.4       3.6       0.2       0.1       6.4
 7 C  py              0.1       1.5       4.8       0.1       0.5       0.0
 8 C  s               3.3       2.1       0.2       0.0       0.8       0.4
 8 C  pz              0.3       0.1       0.5       0.2       0.4       0.0
 8 C  px              0.3       0.2       6.7       0.2       0.4       0.1
 8 C  py              7.3       0.6       0.3       0.0       1.7       1.7
 8 C  dxy             0.0       0.1       0.0       0.0       0.1       0.1
 9 C  s               0.0       0.7       0.0       0.0       0.0       0.8
 9 C  pz              0.9       0.1       0.5       0.7       1.2       0.5
 9 C  px              2.1       3.1       4.8       0.7       1.0       0.2
 9 C  py             10.1       5.4       1.0       0.2       0.8       5.0
 9 C  dx2y2           0.1       0.2       0.0       0.0       0.1       0.0
 9 C  dxy             0.0       0.0       0.1       0.0       0.1       0.2
10 C  s               0.1       0.8       0.8       0.1       0.1       0.7
10 C  pz              0.0       0.0       0.2       0.4       1.5       0.0
10 C  px              2.8       7.4       0.0       0.0       1.8       3.5
10 C  py              0.7       2.8       0.5       0.4       0.6       0.8
10 C  dxy             0.1       0.1       0.1       0.0       0.0       0.0
11 O  s               0.3       0.7       2.9       0.6       0.0       0.9
11 O  pz              0.0       0.1       0.1       0.3       0.5       0.1
11 O  px              0.7       0.8       1.8       0.5       0.7       0.3
11 O  py              0.7       2.8       3.5       0.5       0.1       4.6
11 O  dx2y2           0.1       0.5       0.0       0.0       0.1       0.3
11 O  dxy             0.2       0.1       0.1       0.0       0.0       0.0
12 O  s               0.1       0.1       0.6       0.2       0.2       0.2
12 O  pz              0.0       0.1       0.4       0.2       1.6       0.0
12 O  px              3.2       6.9       1.4       0.5       2.1       2.4
12 O  py              0.2       0.9       4.0       1.7       0.5       0.6
12 O  dx2y2           0.0       0.3       0.1       0.0       0.0       0.1
12 O  dxy             0.1       0.5       0.1       0.0       0.1       0.1
13 H  s               0.8       0.0       1.4       0.2       0.3       0.1
14 H  s               0.6       0.1       0.1       4.9       0.3       1.3
14 H  pz              0.0       0.0       0.0       0.2       0.0       0.0
15 H  s               0.4       0.0       1.9       3.2       1.4       2.0
15 H  pz              0.0       0.0       0.0       0.1       0.0       0.0
16 H  s               2.0       1.4       2.0       0.1       0.6       0.6
16 H  py              0.1       0.1       0.0       0.0       0.0       0.0
17 H  s               2.7       0.0       0.2       0.0       3.8       8.1
17 H  px              0.1       0.0       0.0       0.0       0.0       0.1
17 H  py              0.1       0.0       0.0       0.0       0.1       0.2
18 H  s               0.6       8.3       1.9       0.2       0.5       1.8
18 H  px              0.0       0.4       0.1       0.0       0.0       0.0
19 H  s               3.9       0.1       1.4       0.0       1.3       0.9
19 H  py              0.2       0.0       0.1       0.0       0.0       0.0
20 H  s               0.8       1.9       0.1       0.0       0.0       0.1
20 H  py              0.1       0.1       0.0       0.0       0.0       0.0

                     30        31        32        33        34        35   
                  -0.44304  -0.42977  -0.42794  -0.41428  -0.39011  -0.38321
                   2.00000   2.00000   2.00000   2.00000   2.00000   2.00000
[...]
 9 C  dz2             0.2       0.0       0.0       0.0       0.0       0.0
 9 C  dx2y2           0.4       0.0       0.1       0.2       0.0       0.0
 9 C  dxy             0.5       0.9       0.6       0.3       0.1       0.2
10 C  s               1.4       0.4       0.2       6.7       0.0       0.2
10 C  pz              0.0       0.0       0.0       0.2       0.0       0.1
10 C  px              1.8       4.9       0.3       0.2       0.0       3.3
10 C  py              0.4       0.3       0.0       4.5       0.0       1.5
10 C  dz2             0.8       0.5       0.0       1.7       0.0       0.0
10 C  dxz             0.0       0.0       0.0       0.3       0.0       0.0
10 C  dyz             0.0       0.1       0.0       0.2       0.0       0.2
10 C  dx2y2           1.4       5.8       0.3       0.1       0.0       4.2
10 C  dxy             0.2       0.0       0.0       3.9       0.0       0.1
11 O  s               0.1       0.7       0.4      16.1       0.0       2.9
11 O  pz              0.0       0.0       0.0       0.7       0.0       0.1
11 O  px              0.0       0.3       0.1       2.7       0.0       1.1
11 O  py              0.1       0.5       0.3      15.1       0.0       2.5
11 O  dz2             0.1       0.0       0.1       5.9       0.0       0.7
11 O  dxz             0.0       0.1       0.0       0.5       0.0       0.2
11 O  dyz             0.0       0.1       0.1       2.4       0.0       0.3
11 O  dx2y2           0.2       0.2       0.1       8.6       0.0       0.4
11 O  dxy             0.3       2.6       0.4       9.6       0.0       4.2
12 O  s               8.9      19.9       0.7       1.2       0.1       3.2
12 O  pz              0.1       0.1       0.0       0.0       0.0       0.2
12 O  px              4.8       6.4       0.0       5.5       0.0       9.4
12 O  py              0.8       3.0       0.3       1.5       0.2      10.1
12 O  dz2             5.2      10.9       0.4       0.4       0.1       2.2
12 O  dxz             0.0       0.0       0.0       0.1       0.0       0.4
12 O  dyz             0.1       0.4       0.0       0.0       0.0       1.1
12 O  dx2y2           2.3       2.5       0.0       5.0       0.0      17.6
12 O  dxy             0.1       1.8       0.2       0.9       0.1      11.0
16 H  s               0.7       0.1       0.4       0.0       0.0       0.0
16 H  pz              0.1       0.0       0.0       0.0       0.0       0.0
16 H  px              0.2       0.0       0.1       0.0       0.0       0.0
16 H  py              0.9       0.2       0.5       0.0       0.1       0.0
17 H  s               0.7       0.1       0.2       0.0       0.0       0.0
17 H  px              0.3       0.0       0.1       0.0       0.0       0.0
17 H  py              0.9       0.2       0.3       0.0       0.0       0.0
18 H  s               0.7       0.1       0.1       0.0       0.0       0.0
18 H  px              1.1       0.1       0.2       0.0       0.0       0.0
19 H  s               0.6       0.1       0.1       0.1       0.0       0.0
19 H  pz              0.1       0.0       0.0       0.0       0.0       0.0
19 H  px              0.2       0.0       0.0       0.0       0.0       0.0
19 H  py              0.9       0.1       0.2       0.1       0.0       0.0
20 H  s               0.3       1.8       0.2       1.2       0.1      10.1
20 H  pz              0.0       0.1       0.0       0.0       0.0       0.2
20 H  px              0.2       1.0       0.0       0.4       0.0       2.3
20 H  py              0.6       2.4       0.3       1.0       0.1       9.1

                    294       295       296       297       298       299   
                  21.41814  21.90917  21.95424  21.99521  22.16204  22.18307
                   0.00000   0.00000   0.00000   0.00000   0.00000   0.00000
                  --------  --------  --------  --------  --------  --------
 0 C  s               0.1      37.5      60.3       0.8       0.1       0.1
 1 C  s               0.0       0.4       0.2       0.3       7.0      12.1
 4 C  s              10.1       6.7       0.9      16.2       0.0      33.2
 5 C  s              15.6       2.4       1.7      32.0      24.0       2.8
 6 C  s              18.4      15.5       9.9       2.3      24.0      10.9
 7 C  s              17.6      10.0       4.0      22.7       1.2      20.2
 8 C  s              17.5       0.7       2.3      24.4      27.9       2.3
 9 C  s              19.9      23.4      19.5       0.0      10.7       3.3
10 C  s               0.3       2.9       0.6       0.6       4.6      14.3

                    300       301       302       303       304       305   
                  22.25073  22.28981  22.34705  43.65406  43.68443  43.72279
                   0.00000   0.00000   0.00000   0.00000   0.00000   0.00000
                  --------  --------  --------  --------  --------  --------
 0 C  s               0.1       0.2       0.4       0.0       0.0       0.0
 1 C  s              63.3      12.0       3.6       0.0       0.0       0.0
 2 O  s               0.1       0.0       0.0      14.0      56.9      27.8
 3 O  s               0.0       0.0       0.0       5.8       0.9       5.5
 4 C  s               3.2       0.0      29.0       0.0       0.0       0.0
 5 C  s               0.0       6.3      14.7       0.0       0.0       0.0
 6 C  s               3.7       5.7       9.2       0.0       0.0       0.0
 7 C  s              11.0       4.2       8.6       0.0       0.0       0.0
 8 C  s              12.9       0.3      11.1       0.0       0.0       0.0
 9 C  s               0.8       5.9      16.0       0.0       0.0       0.0
10 C  s               4.2      64.4       7.0       0.0       0.0       0.0
11 O  s               0.0       0.1       0.0      19.6      42.0      38.2
12 O  s               0.0       0.1       0.0      60.5       0.1      28.3

                    306   
                  43.83365
                   0.00000
                  --------
 2 O  s               1.3
 3 O  s              87.6
12 O  s              11.0


                      *****************************
                      * MAYER POPULATION ANALYSIS *
                      *****************************

  NA   - Mulliken gross atomic population
  ZA   - Total nuclear charge
  QA   - Mulliken gross atomic charge
  VA   - Mayer's total valence
  BVA  - Mayer's bonded valence
  FA   - Mayer's free valence

  ATOM       NA         ZA         QA         VA         BVA        FA
  0 C      6.5257     6.0000    -0.5257     3.8673     3.8673    -0.0000
  1 C      5.6013     6.0000     0.3987     3.7396     3.7396     0.0000
  2 O      8.4003     8.0000    -0.4003     1.9769     1.9769    -0.0000
  3 O      8.1128     8.0000    -0.1128     2.0615     2.0615     0.0000
  4 C      5.7734     6.0000     0.2266     3.8834     3.8834    -0.0000
  5 C      6.1922     6.0000    -0.1922     3.8042     3.8042    -0.0000
  6 C      6.1130     6.0000    -0.1130     3.7928     3.7928    -0.0000
  7 C      6.1518     6.0000    -0.1518     3.7544     3.7544     0.0000
  8 C      6.2129     6.0000    -0.2129     3.8444     3.8444     0.0000
  9 C      5.9955     6.0000     0.0045     3.7417     3.7417     0.0000
 10 C      5.7112     6.0000     0.2888     4.0662     4.0662     0.0000
 11 O      8.4034     8.0000    -0.4034     2.0145     2.0145     0.0000
 12 O      8.3210     8.0000    -0.3210     1.9965     1.9965    -0.0000
 13 H      0.8247     1.0000     0.1753     0.9575     0.9575    -0.0000
 14 H      0.8195     1.0000     0.1805     0.9550     0.9550     0.0000
 15 H      0.8262     1.0000     0.1738     0.9589     0.9589    -0.0000
 16 H      0.8392     1.0000     0.1608     0.9638     0.9638    -0.0000
 17 H      0.8481     1.0000     0.1519     0.9666     0.9666    -0.0000
 18 H      0.8493     1.0000     0.1507     0.9678     0.9678     0.0000
 19 H      0.8124     1.0000     0.1876     0.9534     0.9534     0.0000
 20 H      0.6662     1.0000     0.3338     0.8956     0.8956    -0.0000

  Mayer bond orders larger than 0.100000
B(  0-C ,  1-C ) :   0.9489 B(  0-C , 13-H ) :   0.9682 B(  0-C , 14-H ) :   0.9371 
B(  0-C , 15-H ) :   0.9791 B(  1-C ,  2-O ) :   1.8880 B(  1-C ,  3-O ) :   0.9646 
B(  3-O ,  4-C ) :   0.9285 B(  4-C ,  5-C ) :   1.3886 B(  4-C ,  9-C ) :   1.4516 
B(  5-C ,  6-C ) :   1.3813 B(  5-C , 16-H ) :   0.9282 B(  6-C ,  7-C ) :   1.3728 
B(  6-C , 17-H ) :   0.9487 B(  7-C ,  8-C ) :   1.3817 B(  7-C , 18-H ) :   0.9514 
B(  8-C ,  9-C ) :   1.3418 B(  8-C , 19-H ) :   0.9482 B(  9-C , 10-C ) :   1.0238 
B(  9-C , 11-O ) :  -0.1035 B( 10-C , 11-O ) :   1.9455 B( 10-C , 12-O ) :   1.0759 
B( 12-O , 20-H ) :   0.8578 

-------
TIMINGS
-------

Total SCF time: 0 days 0 hours 0 min 48 sec 

Total time                  ....      48.909 sec
Sum of individual times     ....      48.213 sec  ( 98.6%)

SCF preparation             ....       0.238 sec  (  0.5%)
Fock matrix formation       ....      46.363 sec  ( 94.8%)
  Startup                   ....       0.091 sec  (  0.2% of F)
  Split-RI-J                ....      12.734 sec  ( 27.5% of F)
  XC integration            ....      32.765 sec  ( 70.7% of F)
    XC Preparation          ....       0.000 sec  (  0.0% of XC)
    Basis function eval.    ....       5.737 sec  ( 17.5% of XC)
    Density eval.           ....      11.008 sec  ( 33.6% of XC)
    XC-Functional eval.     ....       3.280 sec  ( 10.0% of XC)
    XC-Potential eval.      ....      11.575 sec  ( 35.3% of XC)
Diagonalization             ....       0.000 sec  (  0.0%)
Density matrix formation    ....       0.367 sec  (  0.8%)
Total Energy calculation    ....       0.070 sec  (  0.1%)
Population analysis         ....       0.207 sec  (  0.4%)
Orbital Transformation      ....       0.093 sec  (  0.2%)
Orbital Orthonormalization  ....       0.000 sec  (  0.0%)
DIIS solution               ....       0.673 sec  (  1.4%)
  MO trafo                  ....       0.000 sec  (  0.0 % of DIIS)
  Orb grad                  ....       0.000 sec  (  0.0 % of DIIS)
  Energy W gradient         ....       0.000 sec  (  0.0 % of DIIS)
  DIIS error                ....       0.061 sec  (  9.1 % of DIIS)
  DIIS work                 ....       0.540 sec  ( 80.3 % of DIIS)
  Form Q                    ....       0.000 sec  (  0.0 % of DIIS)
  Form QpQm                 ....       0.000 sec  (  0.0 % of DIIS)
  Exp/Cayley                ....       0.000 sec  (  0.0 % of DIIS)
  Orb update                ....       0.000 sec  (  0.0 % of DIIS)
  Wake-sleep                ....       0.026 sec  (  3.9 % of DIIS)
SOSCF solution              ....       0.203 sec  (  0.4%)
  MO trafo                  ....       0.092 sec  ( 45.2 % of SOSCF)
  Orb grad                  ....       0.003 sec  (  1.3 % of SOSCF)
  Rot update                ....       0.037 sec  ( 18.3 % of SOSCF)
  Step                      ....       0.071 sec  ( 35.0 % of SOSCF)
Finished LeanSCF after  49.0 sec

Maximum memory used throughout the entire LEANSCF-calculation: 35.2 MB


-------------------------------------------------------------------------------
                          DFT DISPERSION CORRECTION                            
                                                                               
                                DFTD4 V3.4.0                                   
-------------------------------------------------------------------------------
The R2SCAN3C composite method is recognized
Using three-body term ABC
Active option DFTDOPT                   ...         5   

-------------------------   ----------------
Dispersion correction           -0.007890974
-------------------------   ----------------

------------------   -----------------
gCP correction             0.010298101
------------------   -----------------

-------------------------   --------------------
FINAL SINGLE POINT ENERGY      -648.582627643194
-------------------------   --------------------


------------------------------------------------------------------------------
                              ORCA PROPERTY CALCULATIONS
------------------------------------------------------------------------------

GBWName                                 ... sp_gas.gbw
Number of atoms                         ...     21
Number of basis functions               ...    307
Max core memory                         ...   1024 MB

Electric properties:
Dipole moment                           ... YES
Quadrupole moment                       ...  NO
Static polarizability (Dipole/Dipole)   ...  NO
Static polarizability (Dipole/Quad.)    ...  NO
Static polarizability (Quad./Quad.)     ...  NO
Static polarizability (Velocity)        ...  NO

Atomic electric properties:
Dipole moment                           ...  NO
Quadrupole moment                       ...  NO
Static polarizability                   ...  NO

Choice of electric origin               ... Center of mass
Position of electric origin             ...     0.000011     0.000014    -0.000005

General magnetic properties:
Magnetizability                         ...  NO

EPR properties:
g-Tensor (aka g-matrix)                 ...  NO
Zero-Field splitting spin-orbit         ...  NO
Zero-field splitting spin-spin          ...  NO
Hyperfine couplings                     ...  NO (   0 nuclei)
Quadrupole couplings                    ...  NO (   0 nuclei)
Contact density                         ...  NO (   0 nuclei)

NMR properties:
Chemical shifts                         ...  NO (   0 nuclei)
Spin-rotation constants                 ...  NO (   0 nuclei)
Spin-spin couplings                     ...  NO (   0 nuclei,    0 pairs)

Choice of magnetic origin               ... GIAO
Position of magnetic origin             ...     0.000000     0.000000     0.000000

Properties with geometric perturbations:
SCF Hessian                             ...  NO
IR spectrum                             ...  NO
VCD spectrum                            ...  NO
X-ray spectroscopy properties:
SCF XES/XAS/RIXS spectra                ...  NO


-------------
DIPOLE MOMENT
-------------

Method             : SCF
Type of density    : Electron Density
Multiplicity       :   1
Irrep              :   0
Energy             :  -648.5850347707205401 Eh
Relativity type    : 
Basis              : AO
                                X                 Y                 Z
Electronic contribution:      1.851664544      -3.525862227       1.232206172
Nuclear contribution   :     -2.291207422       3.805618370      -1.888042750
                        -----------------------------------------
Total Dipole Moment    :     -0.439542878       0.279756143      -0.655836578
                        -----------------------------------------
Magnitude (a.u.)       :      0.837605550
Magnitude (Debye)      :      2.129024112



--------------------
Rotational spectrum 
--------------------
 
Rotational constants in cm-1:             0.036317             0.024732             0.015538 
Rotational constants in MHz :          1088.764357           741.450469           465.824357 

Dipole components along the rotational axes: 
x,y,z [a.u.] :     0.594978     0.079352    -0.584198 
x,y,z [Debye]:     1.512315     0.201697    -1.484913 

 

Dipole moment calculation done in   0.0 sec 

Maximum memory used throughout the entire PROP-calculation: 22.5 MB

--------------------------------
SUGGESTED CITATIONS FOR THIS RUN
--------------------------------

Below you find a list of papers that are relevant to this ORCA run
We neither can nor want to force you to cite these papers, but we appreciate if you do
You receive ORCA, which is the product of decades of hard work by many enthusiastic individuals, for free
The only thing we kindly ask in return is that you cite our papers,
We deeply appreciate it, if you show your appreciation for ORCA by not just citing the generic ORCA reference.

Please note that relegating all ORCA citations to the supporting information does *not* help us.
SI sections are not indexed - citations you put there will not count into any citation statistics
But we need these citations in order to attract the funding resources that allow us to do what we are doing

Therefore, if you are a happy ORCA user, please consider citing a few of the papers listed below in the main body of your paper

In addition to the list printed below, the program has created the file sp_gas.bibtex that contains the list in bibtex format
You can import this file easily into all common literature databanks and citation aid programs


List of essential papers. We consider these as the minimum necessary citations

  1. Neese,F.
     Software update: the ORCA program system, version 5.0
     WIRES Comput. Molec. Sci., 2022 12(1)e1606
     doi.org/10.1002/wcms.1606
  2. Grimme,S.; Hansen,A.; Ehlert,S.; Mewes,J.
     r2SCAN-3c: A 'Swiss army knife' composite electronic-structure method
     J. Chem. Phys., 2021 154 064103
     doi.org/10.1063/5.0040021

List of papers to cite with high priority. The work reported in these papers was absolutely
necessary for this run to complete.
Our perspective: the developers of density functionals and basis sets usually get cited in chemistry papers
Good! But without the algorithms to do something with them, the functionals or basis sets would not do anything.
Hence, in our opinion, the algorithm design and method developments papers are equally worthy of getting cited

  1. Neese,F.
     An improvement of the resolution of the identity approximation for the formation of the Coulomb matrix
     J. Comp. Chem., 2003 24(14)1740-1747
     doi.org/10.1002/jcc.10318
  2. Neese,F.
     The SHARK Integral Generation and Digestion System
     J. Comp. Chem., 2022  1-16
     doi.org/10.1002/jcc.26942
  3. Lehtola,S.; Steigemann,C.; Oliveira,M.; Marques,M.
     Recent developments in Libxc - A comprehensive library of functionals for density functional theory
     Software X, 2018 7 
     doi.org/10.1016/j.softx.2017.11.002
  4. Caldeweyher,E.; Bannwarth,C.; Grimme,S.
     Extension of the D3 dispersion coefficient model
     J. Chem. Phys., 2017 147 034112-XXXX
     doi.org/10.1063/1.4993215
  5. Caldeweyher,E.; Ehlert,S.; Hansen,A.; Neugebauer,H.; Spicher,S.; Bannwarth,C.; Grimme,S.
     A generally applicable atomic-charge dependent London dispersion correction
     J. Chem. Phys., 2019 150 154122-XXXX
     doi.org/10.1063/1.5090222
  6. Caldeweyher,E.; Mewes,J.; Ehlert,S.; Grimme,S.
     Extension and evaluation of the D4 London-dispersion model for periodic systems
     Phys. Chem. Chem. Phys., 2020 22(16)8499-8512
     doi.org/10.1039/D0CP00502A

List of suggested additional citations. These are papers that are important in the 'surrounding' of 
of this run, or papers that preceded the highly important papers. If you like your results we are grateful for a citation.

  1. Neese,F.
     The ORCA program system
     WIRES Comput. Molec. Sci., 2012 2(1)73-78
     doi.org/10.1002/wcms.81
  2. Neese,F.
     Software update: the ORCA program system, version 4.0
     WIRES Comput. Molec. Sci., 2018 8(1)1-6
     doi.org/10.1002/wcms.1327
  3. Neese,F.; Wennmohs,F.; Becker,U.; Riplinger,C.
     The ORCA quantum chemistry program package
     J. Chem. Phys., 2020 152 Art. No. L224108
     doi.org/10.1063/5.0004608

List of optional additional citations

  1. Neese,F.
     Approximate second-order SCF convergence for spin unrestricted wavefunctions
     Chem. Phys. Lett., 2000 325(1-3)93-98
     doi.org/10.1016/s0009-2614(00)00662-x

Timings for individual modules:

Sum of individual times          ...       51.186 sec (=   0.853 min)
Startup calculation              ...        1.646 sec (=   0.027 min)   3.2 %
SCF iterations                   ...       49.405 sec (=   0.823 min)  96.5 %
Property calculations            ...        0.135 sec (=   0.002 min)   0.3 %
                             ****ORCA TERMINATED NORMALLY****
TOTAL RUN TIME: 0 days 0 hours 0 minutes 52 seconds 5 msec
