14
 energy: -307.657632777974 gnorm: 0.037661650075 xtb: 6.7.1 (edcfbbe)
C           -2.76262775312419        0.30373680353459       -0.00559394170248
C           -1.34616923339652        0.03819375591692        0.48712725101586
C           -0.33571599034876        0.11032124354889       -0.66832353289615
C            1.04327540496230       -0.16644687177376       -0.14044134036223
O            1.60257013951014       -1.24235087115052       -0.18926663008387
O            1.59168840680532        0.89443715099635        0.42947922399031
H           -2.83142798035468        1.29232734667266       -0.45199796890029
H           -3.46315313873461        0.24894748121032        0.82320138296478
H           -3.05171315045229       -0.43286949739182       -0.75087774143273
H           -1.07357635317573        0.77665589934416        1.24316591475088
H           -1.29303118107298       -0.95204930472188        0.94459332491857
H           -0.58097321245744       -0.63560947158166       -1.42360453303084
H           -0.35430954605700        1.10868585949129       -1.10428081998934
H            2.47410469629634        0.71078704671497        0.80614811075723
14
 energy: -307.658679637179 gnorm: 0.016993616373 xtb: 6.7.1 (edcfbbe)
C           -2.76603119548831        0.30275323016615       -0.00425154860109
C           -1.34727264452343        0.04033388176777        0.48951669911670
C           -0.32987444863319        0.11300152234288       -0.66373249348195
C            1.05309213598731       -0.16485609911838       -0.15220811337023
O            1.60929188070722       -1.25196779558356       -0.19168415126680
O            1.60052352101482        0.90725082534769        0.42953096682733
H           -2.84081595365857        1.29581826663734       -0.45525850842266
H           -3.47802156778212        0.24892015530326        0.82272166536203
H           -3.05948181885552       -0.43543630388828       -0.75535421955626
H           -1.07581283653722        0.77620348613894        1.25260328828615
H           -1.28966598355497       -0.95022420931426        0.95289126136445
H           -0.57138557158549       -0.63474179703841       -1.42154675958912
H           -0.35821119327066        1.10994275144977       -1.11160349072770
H            2.47260664244105        0.69776855325285        0.80770418526736
14
 energy: -307.658952791625 gnorm: 0.008942566098 xtb: 6.7.1 (edcfbbe)
C           -2.76682569733574        0.30141294084100       -0.00627004770863
C           -1.34967669255789        0.04035678902669        0.49316146087329
C           -0.32808066719325        0.11513111292610       -0.65886876499374
C            1.04905359298719       -0.16605894491068       -0.14078105038963
O            1.61299184365898       -1.25072002849110       -0.19462006609108
O            1.60987388210287        0.91984546114675        0.43064276557089
H           -2.84631901141957        1.29684506218132       -0.45986991230608
H           -3.48643309759019        0.24798525992955        0.81848304367259
H           -3.06272079965267       -0.43744431700501       -0.76070854477378
H           -1.08058276791640        0.77465730511544        1.26123288551492
H           -1.28985871108584       -0.95043986406790        0.95996152967376
H           -0.56507098283947       -0.63185128137875       -1.42119249924852
H           -0.35916053576298        1.11161199748264       -1.11292351536649
H            2.48175009219819        0.68343503668424        0.79108101719640
14
 energy: -307.659032830569 gnorm: 0.003680614736 xtb: 6.7.1 (edcfbbe)
C           -2.76716259836144        0.30040116440638       -0.00653699487198
C           -1.35093642311118        0.04122486339360        0.49418058984029
C           -0.32813725979481        0.11572247657921       -0.65709575583636
C            1.05197466971862       -0.16170249942955       -0.14860301838704
O            1.61296622301677       -1.24597557861994       -0.19242660582802
O            1.61473478607054        0.92443758349137        0.43040936830751
H           -2.84711473972706        1.29512420162635       -0.46083374554842
H           -3.48803922704633        0.24687806608645        0.81666403619709
H           -3.06131381936453       -0.43879808150465       -0.76085413764147
H           -1.08309903061204        0.77606247459307        1.26204543379462
H           -1.29061557847631       -0.94925420493161        0.96136108562273
H           -0.56673890858956       -0.63205163156188       -1.41807001611799
H           -0.36013100755988        1.11133747210942       -1.11232482309458
H            2.48255334829629        0.67136013388275        0.79141292592921
14
 energy: -307.659052031525 gnorm: 0.001337880307 xtb: 6.7.1 (edcfbbe)
C           -2.76708971037360        0.29967530644954       -0.00718894301820
C           -1.35145220512359        0.04190524505360        0.49458157261333
C           -0.32903868468452        0.11676264641650       -0.65655774178694
C            1.05049371639036       -0.16122380064461       -0.14763802341596
O            1.61244515751226       -1.24367271758280       -0.19041676422603
O            1.61662432283449        0.92476040665337        0.42997708458534
H           -2.84648059184439        1.29344770626404       -0.46132879890774
H           -3.48729230414937        0.24553211017053        0.81534358271628
H           -3.05869906656190       -0.43993906426504       -0.76077567215019
H           -1.08471765142544        0.77741731357583        1.26148193287055
H           -1.29114768436144       -0.94845786969398        0.96087425831309
H           -0.56833791859918       -0.63084510141440       -1.41700704783571
H           -0.36044374362554        1.11262368171624       -1.10982523998436
H            2.48407675109938        0.66678051457223        0.78780801559558
14
 energy: -307.659055060062 gnorm: 0.001133313328 xtb: 6.7.1 (edcfbbe)
C           -2.76733399247944        0.29871553447959       -0.00803936860708
C           -1.35192777588900        0.04268857583468        0.49541813946932
C           -0.32969060559926        0.11834363966076       -0.65560509460514
C            1.04890906384917       -0.16194124965751       -0.14622913276726
O            1.61194208280950       -1.24294627086264       -0.18837859087817
O            1.61861282198475        0.92449701679829        0.42902104360222
H           -2.84679335350672        1.29169914994849       -0.46259719087856
H           -3.48765134588963        0.24389012659804        0.81367491386240
H           -3.05614711573733       -0.44175801189633       -0.76110987333599
H           -1.08655086302228        0.77911415360166        1.26151969983810
H           -1.29110522888574       -0.94737166916866        0.96153988021778
H           -0.56968548068118       -0.62822253079851       -1.41646743354431
H           -0.35994240659442        1.11500427950182       -1.10643181543071
H            2.48630450984383        0.66305353977182        0.78301284683081
14
 energy: -307.659056494333 gnorm: 0.000311155685 xtb: 6.7.1 (edcfbbe)
C           -2.76749247584574        0.29824533458146       -0.00813911347878
C           -1.35188018278738        0.04301971184678        0.49564131176288
C           -0.32957304198161        0.11900856296613       -0.65539667223248
C            1.04909365309306       -0.16199231975398       -0.14643849231274
O            1.61081993794960       -1.24415381632401       -0.18767733853903
O            1.61941711289283        0.92409101288472        0.42833956132388
H           -2.84744605139917        1.29123177021343       -0.46300978776777
H           -3.48820135642708        0.24324595558951        0.81342771040313
H           -3.05589161524006       -0.44255237116633       -0.76129001405796
H           -1.08691506228286        0.77966225040321        1.26178106131545
H           -1.29069072842491       -0.94696758763557        0.96207614226556
H           -0.57003307790255       -0.62700094485626       -1.41680238447394
H           -0.35932173810485        1.11591792354068       -1.10585862835818
H            2.48705493091296        0.66301075237002        0.78267460340333
14
 energy: -307.659056494333 gnorm: 0.000311155685 xtb: 6.7.1 (edcfbbe)
C           -2.76749247584574        0.29824533458146       -0.00813911347878
C           -1.35188018278738        0.04301971184678        0.49564131176288
C           -0.32957304198161        0.11900856296613       -0.65539667223248
C            1.04909365309306       -0.16199231975398       -0.14643849231274
O            1.61081993794960       -1.24415381632401       -0.18767733853903
O            1.61941711289283        0.92409101288472        0.42833956132388
H           -2.84744605139917        1.29123177021343       -0.46300978776777
H           -3.48820135642708        0.24324595558951        0.81342771040313
H           -3.05589161524006       -0.44255237116633       -0.76129001405796
H           -1.08691506228286        0.77966225040321        1.26178106131545
H           -1.29069072842491       -0.94696758763557        0.96207614226556
H           -0.57003307790255       -0.62700094485626       -1.41680238447394
H           -0.35932173810485        1.11591792354068       -1.10585862835818
H            2.48705493091296        0.66301075237002        0.78267460340333
