14
 energy: -17.975527519839 gnorm: 0.024070537428 xtb: 6.7.1 (edcfbbe)
C            2.04021262806430       -0.28901108333709       -0.47188424953217
O            1.28768575986816        0.50895025532854        0.44524914810761
C           -0.01581161477365       -0.02270485595229        0.70550242593487
C           -0.96606805908586        0.10533928262504       -0.47825287848059
N           -2.31525607683833       -0.30622771885705       -0.05248069054280
H            3.05770536145779        0.10982378457758       -0.48179063834490
H            1.63330053065760       -0.24087383532993       -1.49024466802891
H            2.06816926375253       -1.33907145981595       -0.14681506402717
H            0.06401072909238       -1.07599041654620        1.01738973071283
H           -0.40709660965522        0.55610295483969        1.55097698441371
H           -0.91790336660554        1.13991342293135       -0.85471070693338
H           -0.64753771049073       -0.55453078144360       -1.29144274235245
H           -2.92813968233772       -0.28140291015527       -0.86036285448424
H           -2.67770031393191        0.39939161746865        0.58157543147638
14
 energy: -17.976399424934 gnorm: 0.010975166379 xtb: 6.7.1 (edcfbbe)
C            2.04633562463301       -0.29237229891870       -0.47054994722931
O            1.28686309724918        0.49364925121481        0.43472030583689
C           -0.01093502159861       -0.02425561933972        0.69939633719458
C           -0.97280447956783        0.10500861484641       -0.48107491808500
N           -2.31592380704194       -0.29683739922086       -0.06035546523178
H            3.05355513582210        0.12168254351917       -0.46187926101834
H            1.64052226879505       -0.23744311268842       -1.48489747176050
H            2.07206980253927       -1.33726979060478       -0.14315105844785
H            0.06120053093506       -1.07468462023404        1.01088274736247
H           -0.38353181913257        0.56424906559227        1.54299671930883
H           -0.92425231908870        1.13976395226396       -0.85668346826341
H           -0.66683753460535       -0.56444901497037       -1.28928679453055
H           -2.93488468180221       -0.27676588229417       -0.86463657263951
H           -2.67580595796265        0.38943256716793        0.59722807542227
14
 energy: -17.976602240525 gnorm: 0.003611416163 xtb: 6.7.1 (edcfbbe)
C            2.05014854972684       -0.29355604109464       -0.46831261122407
O            1.28263482307111        0.48641145258945        0.42711688000102
C           -0.00968416343976       -0.02380490297220        0.69404660746418
C           -0.97966246627159        0.10572824353430       -0.48552222292232
N           -2.31650916174281       -0.29107953306125       -0.06425675569166
H            3.05122246507965        0.12971791675175       -0.44616013598081
H            1.65351252616980       -0.24066032219669       -1.48499056167203
H            2.07970150600536       -1.33706145994504       -0.14232200609446
H            0.05271197654787       -1.07409721718694        1.00479676914987
H           -0.37370416271037        0.57174425425081        1.53460797149375
H           -0.92349454780331        1.14054010603559       -0.86216501232276
H           -0.67707248654318       -0.56930284704240       -1.28949413294977
H           -2.94241180331298       -0.26870625210042       -0.86216280278092
H           -2.67182221560280        0.37383485877116        0.61752724144878
14
 energy: -17.976633230331 gnorm: 0.001722350223 xtb: 6.7.1 (edcfbbe)
C            2.05244512724064       -0.29344076930151       -0.46695785572939
O            1.28032226824018        0.48643454594417        0.42414694520989
C           -0.01028904295019       -0.02296073984137        0.69149620842226
C           -0.98279172304357        0.10586701282581       -0.48818778585465
N           -2.31716409074587       -0.29047731612067       -0.06493942471601
H            3.05276113206366        0.13149417972353       -0.44096296254667
H            1.66145503992985       -0.24389640120990       -1.48659091665428
H            2.08366939844354       -1.33733620656478       -0.14074539828041
H            0.04864458542533       -1.07361218060541        1.00294470752188
H           -0.37492168546684        0.57357944002618        1.53102342426293
H           -0.92404415133322        1.14066081789063       -0.86631675585749
H           -0.67957229696476       -0.56942689821896       -1.29179907100801
H           -2.94751459803334       -0.26151480738302       -0.85840305528965
H           -2.66742912363160        0.36433757916879        0.62800116843840
14
 energy: -17.976655212295 gnorm: 0.002123126032 xtb: 6.7.1 (edcfbbe)
C            2.05592368242702       -0.29333464426562       -0.46415135555708
O            1.27706677870145        0.48979114027849        0.41907754548978
C           -0.01167873710275       -0.02084849852150        0.68634406519748
C           -0.98681304961312        0.10569542109311       -0.49329547618535
N           -2.31788841193031       -0.29253796239825       -0.06641121908950
H            3.05648020924900        0.13191262242322       -0.43425582165098
H            1.67298710710359       -0.25015990268475       -1.48827813142212
H            2.08745507258559       -1.33721400698192       -0.13453715749491
H            0.04519780824148       -1.07187520640293        0.99932355843948
H           -0.37984487514131        0.57539113319841        1.52514521048238
H           -0.92778181337868        1.14077278556080       -0.87317650287305
H           -0.68177879579317       -0.56814408267839       -1.29800328386958
H           -2.95698207431064       -0.24492525406380       -0.85144380063762
H           -2.65677206186433        0.34518471177663        0.64637159708986
14
 energy: -17.976663306663 gnorm: 0.001571326489 xtb: 6.7.1 (edcfbbe)
C            2.05627239384034       -0.29371759396146       -0.46333397964665
O            1.27677484327810        0.49160828218000        0.41751266187465
C           -0.01196846135116       -0.01998179925380        0.68469246243110
C           -0.98697547197335        0.10582482590414       -0.49453367774056
N           -2.31771902635467       -0.29469873657220       -0.06747382763721
H            3.05705575933100        0.13106494133373       -0.43368005305058
H            1.67377896873661       -0.25236780525860       -1.48752593122469
H            2.08668892544336       -1.33665894015932       -0.13096551139182
H            0.04651265293036       -1.07084697154097        0.99776849542114
H           -0.38071059111850        0.57583039597300        1.52375786893559
H           -0.93025396953911        1.14121076326807       -0.87375801813982
H           -0.68160261465286       -0.56706203699818       -1.30002672948709
H           -2.95884564052791       -0.23902129887288       -0.85041412481986
H           -2.65343692886840        0.33852423029197        0.65068959239461
14
 energy: -17.976672860056 gnorm: 0.001254118145 xtb: 6.7.1 (edcfbbe)
C            2.05754415813124       -0.29589136323234       -0.46049264688655
O            1.27555234584062        0.49810208871715        0.41060263337331
C           -0.01325532901525       -0.01601864591015        0.67863256402622
C           -0.98760657655131        0.10715680829201       -0.49895573143196
N           -2.31712178819105       -0.30399175107765       -0.07285816259288
H            3.05846935847436        0.12836324395204       -0.43197558392061
H            1.67668052580319       -0.26313542459681       -1.48487762774694
H            2.08489653865789       -1.33462218288608       -0.11655976628161
H            0.05066361607160       -1.06614105451322        0.99213271771779
H           -0.38230518311205        0.57929458846680        1.51831148962383
H           -0.94047003062433        1.14392326152008       -0.87450176504404
H           -0.68031231042444       -0.56156213957516       -1.30737753443592
H           -2.96530477335505       -0.21469875186353       -0.84796577453048
H           -2.64185971253160        0.30892957904036        0.66859441604865
14
 energy: -17.976675728241 gnorm: 0.000425962868 xtb: 6.7.1 (edcfbbe)
C            2.05751265145678       -0.29611798460385       -0.46128532846991
O            1.27605073119462        0.49632270584424        0.41145171169329
C           -0.01296594705456       -0.01643344836942        0.68013113643251
C           -0.98776339163094        0.10797150300775       -0.49745596293545
N           -2.31747393052064       -0.30272582242910       -0.07223961871750
H            3.05788669327462        0.12940630745656       -0.43347005371317
H            1.67579341891856       -0.26322717318181       -1.48547586825653
H            2.08684416680152       -1.33526165130385       -0.11873412383397
H            0.04911061423537       -1.06675024147083        0.99340156402908
H           -0.38064763174242        0.57942661153612        1.51973274346412
H           -0.93951566271096        1.14476556117968       -0.87254275044729
H           -0.68019833082849       -0.56053293089555       -1.30578615761970
H           -2.96316572803758       -0.22021112142498       -0.84888986930104
H           -2.64589681418206        0.31307594098853        0.66387180559439
14
 energy: -17.976677093257 gnorm: 0.000290097185 xtb: 6.7.1 (edcfbbe)
C            2.05783234065146       -0.29697283900113       -0.46125228515008
O            1.27608191122872        0.49597160004611        0.41063478252190
C           -0.01299020896165       -0.01576491236589        0.68009719311811
C           -0.98819864579142        0.10929985185118       -0.49745576562021
N           -2.31733145729322       -0.30355195578382       -0.07317383200014
H            3.05760564613572        0.13000869623504       -0.43460832013058
H            1.67581355865154       -0.26646539507846       -1.48554695561826
H            2.08899393848232       -1.33569990175780       -0.11729252904524
H            0.04778035485385       -1.06609806662043        0.99362634910511
H           -0.37962629277202        0.58082774278589        1.51952534369224
H           -0.94070526333872        1.14675318772695       -0.87079193479490
H           -0.67962559310898       -0.55756014809330       -1.30672563457998
H           -2.96317686695126       -0.22040938151982       -0.84964803567471
H           -2.64688258261251        0.30936977790896        0.66532085209554
14
 energy: -17.976678640123 gnorm: 0.000235814381 xtb: 6.7.1 (edcfbbe)
C            2.05796391809255       -0.29843952747081       -0.46116309225522
O            1.27650091820440        0.49592507279459        0.40964590494441
C           -0.01298411008178       -0.01452339002396        0.68003966941601
C           -0.98850116394708        0.11161526712095       -0.49719049621792
N           -2.31676083599747       -0.30571985733326       -0.07450565644489
H            3.05709423258320        0.13025482390976       -0.43741111952834
H            1.67448219453639       -0.27167552400994       -1.48508053102227
H            2.09139323288933       -1.33621977826098       -0.11429646416998
H            0.04660430828514       -1.06491282677664        0.99360082902522
H           -0.37837327220048        0.58268906055613        1.51954162379259
H           -0.94330167081172        1.15023023336321       -0.86756059713218
H           -0.67810614710477       -0.55220255841322       -1.30828030989303
H           -2.96266836291897       -0.22084018233246       -0.85091844421582
H           -2.64777240235491        0.30352744321013        0.66628791162023
14
 energy: -17.976680301013 gnorm: 0.000162524174 xtb: 6.7.1 (edcfbbe)
C            2.05796570137506       -0.30040259165015       -0.46082001737352
O            1.27719962225874        0.49619675949660        0.40851005702576
C           -0.01283874062838       -0.01275701517557        0.67956367199659
C           -0.98875803612849        0.11482180791488       -0.49706682732831
N           -2.31563432789746       -0.30869860664903       -0.07608324482505
H            3.05645055118954        0.13002400367624       -0.44107458043704
H            1.67214950741228       -0.27846228386399       -1.48394294528064
H            2.09379809513959       -1.33667936602323       -0.10973134406528
H            0.04569520778813       -1.06330030899691        0.99267960957624
H           -0.37693602833596        0.58463864285614        1.51953449948030
H           -0.94715990751772        1.15499695302538       -0.86347255391828
H           -0.67608166935219       -0.54475504587388       -1.31078736134497
H           -2.96190509727264       -0.22208504311405       -0.85207787422146
H           -2.64837403885668        0.29617035071108        0.66747813863447
14
 energy: -17.976681470165 gnorm: 0.000094571365 xtb: 6.7.1 (edcfbbe)
C            2.05810740979749       -0.30228621389619       -0.46033269297999
O            1.27780637051284        0.49680180378009        0.40718034165113
C           -0.01261903698735       -0.01096099869829        0.67875329017663
C           -0.98913655263805        0.11812745515755       -0.49710037777839
N           -2.31440037265438       -0.31153948251123       -0.07726219595608
H            3.05613413805199        0.12930955154460       -0.44401802456087
H            1.67052626843865       -0.28485232945542       -1.48281784294527
H            2.09559991354407       -1.33707910796159       -0.10510275747545
H            0.04507752959138       -1.06179894897209        0.99103934651907
H           -0.37577441198728        0.58616506935428        1.51937456217283
H           -0.95113430438190        1.15977189778224       -0.85972509204991
H           -0.67455706456336       -0.53731709593583       -1.31342862851798
H           -2.96136524356405       -0.22403608607878       -0.85258543184169
H           -2.64869380398622        0.28940274222414        0.66873473150480
14
 energy: -17.976682089060 gnorm: 0.000060655647 xtb: 6.7.1 (edcfbbe)
C            2.05842953352743       -0.30362712249861       -0.45991760927420
O            1.27816411825623        0.49744700657379        0.40583516263319
C           -0.01240516768994       -0.00960887059705        0.67789342050907
C           -0.98963469732090        0.12050140518715       -0.49723541394409
N           -2.31361087057965       -0.31349640705435       -0.07785650613376
H            3.05626917074077        0.12842998158383       -0.44531842462833
H            1.67024389280366       -0.28923446849872       -1.48217671543835
H            2.09649221726861       -1.33736034582140       -0.10175230556099
H            0.04485318559433       -1.06068229792232        0.98943492309526
H           -0.37483980401597        0.58710486604141        1.51915848340623
H           -0.95432773526282        1.16318728640099       -0.85707016050517
H           -0.67384530674750       -0.53189949735381       -1.31552965497185
H           -2.96126189300978       -0.22579332819740       -0.85255534958396
H           -2.64895580439062        0.28474004848998        0.66979937831575
14
 energy: -17.976682397312 gnorm: 0.000053146029 xtb: 6.7.1 (edcfbbe)
C            2.05881450974369       -0.30438138968167       -0.45964018241452
O            1.27824775377001        0.49798019651450        0.40467477011626
C           -0.01228537161213       -0.00885915062192        0.67720056774380
C           -0.99012436737881        0.12190072087931       -0.49734767755497
N           -2.31327665737485       -0.31460138941286       -0.07800175738390
H            3.05663575306843        0.12770798257589       -0.44540895367611
H            1.67092827731497       -0.29159205470614       -1.48201289824797
H            2.09678217222142       -1.33753743432694       -0.09983491889671
H            0.04486390873784       -1.06008608815215        0.98826491533098
H           -0.37428494636024        0.58757634093584        1.51886462311708
H           -0.95638383434742        1.16515061118908       -0.85564174692649
H           -0.67379743884009       -0.52880642316307       -1.31675416879329
H           -2.96142913844134       -0.22688573728283       -0.85226146163229
H           -2.64911978132764        0.28214207158644        0.67060811713695
14
 energy: -17.976682561928 gnorm: 0.000042503946 xtb: 6.7.1 (edcfbbe)
C            2.05919343132853       -0.30484163286206       -0.45944025956127
O            1.27825558652412        0.49841002593948        0.40370458871002
C           -0.01222040818487       -0.00834137305379        0.67665028608746
C           -0.99056210068354        0.12270311896234       -0.49745855819239
N           -2.31319457882444       -0.31528715362257       -0.07799092503594
H            3.05705727772194        0.12715629698655       -0.44506572000743
H            1.67187321125311       -0.29304001249214       -1.48204578232820
H            2.09687047928633       -1.33764868212924       -0.09860983233304
H            0.04494139109051       -1.05966357237894        0.98733473187049
H           -0.37383732471389        0.58783768723273        1.51866760782882
H           -0.95783447037187        1.16632594441628       -0.85469858580153
H           -0.67395948308460       -0.52689045100442       -1.31764857695259
H           -2.96172540358554       -0.22755608657110       -0.85192443695244
H           -2.64928676858196        0.28054414691040        0.67123469058686
14
 energy: -17.976682634920 gnorm: 0.000025616350 xtb: 6.7.1 (edcfbbe)
C            2.05947715144823       -0.30514325238777       -0.45929894257681
O            1.27821828751479        0.49869206474299        0.40297989180337
C           -0.01217943471258       -0.00808309027008        0.67625329879901
C           -0.99089206181292        0.12329403403923       -0.49751974088672
N           -2.31316136478012       -0.31573485496181       -0.07796757712526
H            3.05735044872179        0.12683476329963       -0.44477275661752
H            1.67261932669289       -0.29403015870652       -1.48209534101298
H            2.09698306833776       -1.33772099216590       -0.09777586133164
H            0.04502761571163       -1.05945713358958        0.98676728576833
H           -0.37354037402016        0.58799726787958        1.51844140138520
H           -0.95885087917452        1.16714310596981       -0.85415551612149
H           -0.67412503026291       -0.52561624963992       -1.31817248660692
H           -2.96194208609324       -0.22793298170638       -0.85168143327539
H           -2.64941382839682        0.27946573383022        0.67170700571764
