      -----------------------------------------------------------      
     |                   =====================                   |     
     |                           x T B                           |     
     |                   =====================                   |     
     |                         S. Grimme                         |     
     |          Mulliken Center for Theoretical Chemistry        |     
     |                    University of Bonn                     |     
      -----------------------------------------------------------      

   * xtb version 6.7.1 (edcfbbe) compiled by 'albert@albert-system' on 2024-07-22

   xtb is free software: you can redistribute it and/or modify it under
   the terms of the GNU Lesser General Public License as published by
   the Free Software Foundation, either version 3 of the License, or
   (at your option) any later version.
   
   xtb is distributed in the hope that it will be useful,
   but WITHOUT ANY WARRANTY; without even the implied warranty of
   MERCHANTABILITY or FITNESS FOR A PARTICULAR PURPOSE.  See the
   GNU Lesser General Public License for more details.
   
   Cite this work as:
   * C. Bannwarth, E. Caldeweyher, S. Ehlert, A. Hansen, P. Pracht,
     J. Seibert, S. Spicher, S. Grimme, WIREs Comput. Mol. Sci., 2020, 11,
     e01493. DOI: 10.1002/wcms.1493
   
   for GFN2-xTB:
   * C. Bannwarth, S. Ehlert and S. Grimme., J. Chem. Theory Comput., 2019,
     15, 1652-1671. DOI: 10.1021/acs.jctc.8b01176
   for GFN1-xTB:
   * S. Grimme, C. Bannwarth, P. Shushkov, J. Chem. Theory Comput., 2017,
     13, 1989-2009. DOI: 10.1021/acs.jctc.7b00118
   for GFN0-xTB:
   * P. Pracht, E. Caldeweyher, S. Ehlert, S. Grimme, ChemRxiv, 2019, preprint.
     DOI: 10.26434/chemrxiv.8326202.v1
   for GFN-FF:
   * S. Spicher and S. Grimme, Angew. Chem. Int. Ed., 2020, 59, 15665-15673.
     DOI: 10.1002/anie.202004239
   
   for ALPB and GBSA implicit solvation:
   * S. Ehlert, M. Stahn, S. Spicher, S. Grimme, J. Chem. Theory Comput.,
     2021, 17, 4250-4261. DOI: 10.1021/acs.jctc.1c00471
   
   for ddCOSMO and CPCM-X implicit solvation:
   * M. Stahn, S. Ehlert, S. Grimme, J. Phys. Chem. A,
     2023, XX, XXXX-XXXX. DOI: 10.1021/acs.jpca.3c04382
   
   for DFT-D4:
   * E. Caldeweyher, C. Bannwarth and S. Grimme, J. Chem. Phys., 2017,
     147, 034112. DOI: 10.1063/1.4993215
   * E. Caldeweyher, S. Ehlert, A. Hansen, H. Neugebauer, S. Spicher,
     C. Bannwarth and S. Grimme, J. Chem. Phys., 2019, 150, 154122.
     DOI: 10.1063/1.5090222
   * E. Caldeweyher, J.-M. Mewes, S. Ehlert and S. Grimme, Phys. Chem. Chem. Phys.
     2020, 22, 8499-8512. DOI: 10.1039/D0CP00502A
   
   for sTDA-xTB:
   * S. Grimme and C. Bannwarth, J. Chem. Phys., 2016, 145, 054103.
     DOI: 10.1063/1.4959605
   
   in the mass-spec context:
   * V. Asgeirsson, C. Bauer and S. Grimme, Chem. Sci., 2017, 8, 4879.
     DOI: 10.1039/c7sc00601b
   * J. Koopman and S. Grimme, ACS Omega 2019, 4, 12, 15120-15133.
     DOI: 10.1021/acsomega.9b02011
   
   for metadynamics refer to:
   * S. Grimme, J. Chem. Theory Comput., 2019, 155, 2847-2862
     DOI: 10.1021/acs.jctc.9b00143
   
   for SPH calculations refer to:
   * S. Spicher and S. Grimme, J. Chem. Theory Comput., 2021, 17, 1701-1714
     DOI: 10.1021/acs.jctc.0c01306
   
   for ONIOM refer to:
   * C. Plett, A. Katbashev, S. Ehlert, S. Grimme, M. Bursch,
     Phys. Chem. Chem. Phys., 2023, 25, 17860-17868. DOI: 10.1039/D3CP02178E
   
   for DIPRO refer to:
   * J. Kohn, N. Gildemeister, S. Grimme, D. Fazzi, A. Hansen,
     J. Chem. Phys., 2023, just accepted.
   
   for PTB refer to:
   * S. Grimme, M. Mueller, A. Hansen, J. Chem. Phys., 2023, 158, 124111.
     DOI: 10.1063/5.0137838
   
   with help from (in alphabetical order)
   P. Atkinson, C. Bannwarth, F. Bohle, G. Brandenburg, E. Caldeweyher
   M. Checinski, S. Dohm, S. Ehlert, S. Ehrlich, I. Gerasimov, C. Hölzer
   A. Katbashev, J. Kohn, J. Koopman, C. Lavigne, S. Lehtola, F. März, M. Müller,
   F. Musil, H. Neugebauer, J. Pisarek, C. Plett, P. Pracht, F. Pultar,
   J. Seibert, P. Shushkov, S. Spicher, M. Stahn, M. Steiner, T. Strunk,
   J. Stückrath, T. Rose, and J. Unsleber
   
 * started run on 2025/04/11 at 12:40:56.353     
   ID    Z sym.   atoms
    1    6 C      1-3, 5, 6
    2    1 H      4, 8-18
    3    8 O      7

           -------------------------------------------------
          |                Calculation Setup                |
           -------------------------------------------------

          program call               : /srv/scratch/z5358697/.xtb/bin/xtb xtb_rrho.coord --gfn2 --ohess vtight --chrg 0 --enso --norestart -I rrho-xcontrol-inp --parallel 1 --alpb water
          hostname                   : k114
          coordinate file            : xtb_rrho.coord
          omp threads                :                     1


           -------------------------------------------------
          |                 G F N 2 - x T B                 |
           -------------------------------------------------

        Reference                      10.1021/acs.jctc.8b01176
      * Hamiltonian:
        H0-scaling (s, p, d)           1.850000    2.230000    2.230000
        zeta-weighting                 0.500000
      * Dispersion:
        s8                             2.700000
        a1                             0.520000
        a2                             5.000000
        s9                             5.000000
      * Repulsion:
        kExp                           1.500000    1.000000
        rExp                           1.000000
      * Coulomb:
        alpha                          2.000000
        third order                    shell-resolved
        anisotropic                    true
        a3                             3.000000
        a5                             4.000000
        cn-shift                       1.200000
        cn-exp                         4.000000
        max-rad                        5.000000

      * Solvation model:               ALPB
        Solvent                        water
        Parameter file                 internal GFN2-xTB/ALPB
        Dielectric constant                8.0200E+01
        Reference state                gsolv [1 M gas/solution]
        Free energy shift                  1.0808E-03 Eh       6.7819E-01 kcal/mol
        Temperature                        2.9815E+02 K
        Density                            1.0000E+00 kg/L
        Solvent mass                       1.8000E+01 g/mol
        Interaction kernel             P16
        Born radius scaling (c1)           1.4744E+00
        Born radii integrator          GBOBC
        Born offset                        0.0000E+00 a0       0.0000E+00 AA
        H-bond correction              true
        Ion screening                  false
        Surface tension                    1.0000E-05 Eh       1.5569E+01 dyn/cm
        Grid points                               974 per atom

          ...................................................
          :                      SETUP                      :
          :.................................................:
          :  # basis functions                  36          :
          :  # atomic orbitals                  36          :
          :  # shells                           24          :
          :  # electrons                        38          :
          :  max. iterations                   250          :
          :  Hamiltonian                  GFN2-xTB          :
          :  restarted?                      false          :
          :  GBSA solvation                   true          :
          :  PC potential                    false          :
          :  electronic temp.          300.0000000     K    :
          :  accuracy                    1.0000000          :
          :  -> integral cutoff          0.2500000E+02      :
          :  -> integral neglect         0.1000000E-07      :
          :  -> SCF convergence          0.1000000E-05 Eh   :
          :  -> wf. convergence          0.1000000E-03 e    :
          :  Broyden damping             0.4000000          :
          :  net charge                          0          :
          :  unpaired electrons                  0          :
          ...................................................

 iter      E             dE          RMSdq      gap      omega  full diag
   1    -21.1128925 -0.211129E+02  0.317E+00   11.83       0.0  T
   2    -21.1443326 -0.314402E-01  0.169E+00   11.61       1.0  T
   3    -21.1452111 -0.878468E-03  0.621E-01   11.60       1.0  T
   4    -21.1453780 -0.166848E-03  0.111E-01   11.61       1.0  T
   5    -21.1453888 -0.108137E-04  0.620E-02   11.62       1.0  T
   6    -21.1453909 -0.210848E-05  0.944E-03   11.62       2.5  T
   7    -21.1453911 -0.190772E-06  0.369E-03   11.62       6.4  T
   8    -21.1453911 -0.337899E-07  0.192E-03   11.62      12.2  T
   9    -21.1453911 -0.703135E-08  0.402E-04   11.62      58.7  T
  10    -21.1453911 -0.663110E-09  0.177E-04   11.62     133.1  T

   *** convergence criteria satisfied after 10 iterations ***

         #    Occupation            Energy/Eh            Energy/eV
      -------------------------------------------------------------
         1        2.0000           -0.6839948             -18.6124
       ...           ...                  ...                  ...
        13        2.0000           -0.4667206             -12.7001
        14        2.0000           -0.4553190             -12.3899
        15        2.0000           -0.4495646             -12.2333
        16        2.0000           -0.4327281             -11.7751
        17        2.0000           -0.4262811             -11.5997
        18        2.0000           -0.4237667             -11.5313
        19        2.0000           -0.4082953             -11.1103 (HOMO)
        20                          0.0187014               0.5089 (LUMO)
        21                          0.0785227               2.1367
        22                          0.0932095               2.5364
        23                          0.1119024               3.0450
        24                          0.1234256               3.3586
       ...                                ...                  ...
        36                          0.2899034               7.8887
      -------------------------------------------------------------
                  HL-Gap            0.4269967 Eh           11.6192 eV
             Fermi-level           -0.1947970 Eh           -5.3007 eV

 SCC (total)                   0 d,  0 h,  0 min,  0.023 sec
 SCC setup                      ...        0 min,  0.001 sec (  4.659%)
 Dispersion                     ...        0 min,  0.000 sec (  0.405%)
 classical contributions        ...        0 min,  0.000 sec (  0.099%)
 integral evaluation            ...        0 min,  0.001 sec (  5.149%)
 iterations                     ...        0 min,  0.017 sec ( 73.682%)
 molecular gradient             ...        0 min,  0.004 sec ( 15.262%)
 printout                       ...        0 min,  0.000 sec (  0.674%)

         :::::::::::::::::::::::::::::::::::::::::::::::::::::
         ::                     SUMMARY                     ::
         :::::::::::::::::::::::::::::::::::::::::::::::::::::
         :: total energy             -20.893677989248 Eh    ::
         :: total w/o Gsasa/hb       -20.889939749173 Eh    ::
         :: gradient norm              0.028891955561 Eh/a0 ::
         :: HOMO-LUMO gap             11.619170708727 eV    ::
         ::.................................................::
         :: SCC energy               -21.145360992183 Eh    ::
         :: -> isotropic ES            0.036288053085 Eh    ::
         :: -> anisotropic ES          0.004931278918 Eh    ::
         :: -> anisotropic XC          0.008527812741 Eh    ::
         :: -> dispersion             -0.009969455467 Eh    ::
         :: -> Gsolv                  -0.008447277440 Eh    ::
         ::    -> Gelec               -0.004709037365 Eh    ::
         ::    -> Gsasa                0.000548379607 Eh    ::
         ::    -> Ghb                 -0.005367379381 Eh    ::
         ::    -> Gshift               0.001080759698 Eh    ::
         :: repulsion energy           0.251683002934 Eh    ::
         :: add. restraining           0.000000000000 Eh    ::
         :: total charge               0.000000000000 e     ::
         :::::::::::::::::::::::::::::::::::::::::::::::::::::

      ----------------------------------------------------------- 
     |                   =====================                   |
     |                        A N C O P T                        |
     |                   =====================                   |
     |               Approximate Normal Coordinate               |
     |                Rational Function Optimizer                |
      ----------------------------------------------------------- 
      ----------------------------------------------------------- 
     |                   =====================                   |
     |                        A N C O P T                        |
     |                   =====================                   |
     |               Approximate Normal Coordinate               |
     |                Rational Function Optimizer                |
      ----------------------------------------------------------- 

          ...................................................
          :                      SETUP                      :
          :.................................................:
          :   optimization level         verytight          :
          :   max. optcycles                   360          :
          :   ANC micro-cycles                  20          :
          :   degrees of freedom                48          :
          :.................................................:
          :   RF solver                   davidson          :
          :   write xtbopt.log                true          :
          :   linear?                        false          :
          :   energy convergence         0.1000000E-06 Eh   :
          :   grad. convergence          0.2000000E-03 Eh/α :
          :   maxmium RF displ.          1.0000000          :
          :   Hlow (freq-cutoff)         0.1000000E-01      :
          :   Hmax (freq-cutoff)         5.0000000          :
          :   S6 in model hess.         20.0000000          :
          ...................................................

generating ANC from exact Hessian ...
Using Lindh-Hessian (1995)
 Shifting diagonal of input Hessian by   7.196169453059674E-003
 Lowest  eigenvalues of input Hessian
    0.000000    0.000000    0.000000    0.000000    0.000000    0.000000
    0.010000    0.011601    0.012683    0.014824    0.015830    0.017151
    0.022208    0.027041    0.030210    0.048203    0.054778    0.058414
 Highest eigenvalues
    1.140546    1.181688    1.225592    1.261207    1.281313    1.414940
 

........................................................................
.............................. CYCLE    1 ..............................
........................................................................

 iter      E             dE          RMSdq      gap      omega  full diag
   1    -21.1453911 -0.211454E+02  0.270E-05   11.62       0.0  T
   2    -21.1453911 -0.194333E-11  0.151E-05   11.62    1559.1  T
   3    -21.1453911 -0.301981E-12  0.778E-06   11.62    3028.6  T
     SCC iter.                  ...        0 min,  0.001 sec
     gradient                   ...        0 min,  0.004 sec
 * total energy  :   -20.8936780 Eh     change       -0.5617906E-10 Eh
   gradient norm :     0.0288927 Eh/α   predicted     0.0000000E+00 (-100.00%)
   displ. norm   :     0.1162730 α      lambda       -0.1494646E-02
   maximum displ.:     0.0513416 α      in ANC's #13, #5, #8, ...

........................................................................
.............................. CYCLE    2 ..............................
........................................................................

 iter      E             dE          RMSdq      gap      omega  full diag
   1    -21.1537722 -0.211538E+02  0.109E-01   11.93       0.0  T
   2    -21.1537808 -0.857814E-05  0.627E-02   11.93       1.0  T
   3    -21.1537813 -0.525897E-06  0.124E-02   11.93       1.9  T
   4    -21.1537818 -0.462532E-06  0.328E-03   11.93       7.2  T
   5    -21.1537818 -0.270042E-07  0.188E-03   11.93      12.5  T
   6    -21.1537818 -0.638653E-08  0.705E-04   11.93      33.4  T
   7    -21.1537818 -0.108052E-08  0.276E-04   11.93      85.5  T
     SCC iter.                  ...        0 min,  0.002 sec
     gradient                   ...        0 min,  0.004 sec
 * total energy  :   -20.8946344 Eh     change       -0.9564140E-03 Eh
   gradient norm :     0.0128311 Eh/α   predicted    -0.7574250E-03 ( -20.81%)
   displ. norm   :     0.0829863 α      lambda       -0.3350111E-03
   maximum displ.:     0.0518247 α      in ANC's #5, #1, #8, ...

........................................................................
.............................. CYCLE    3 ..............................
........................................................................

 iter      E             dE          RMSdq      gap      omega  full diag
   1    -21.1572955 -0.211573E+02  0.466E-02   12.11       0.0  T
   2    -21.1572998 -0.433007E-05  0.275E-02   12.11       1.0  T
   3    -21.1573000 -0.204102E-06  0.100E-02   12.12       2.3  T
   4    -21.1573002 -0.211778E-06  0.203E-03   12.11      11.6  T
   5    -21.1573002 -0.121640E-07  0.105E-03   12.11      22.4  T
   6    -21.1573002 -0.218901E-08  0.480E-04   12.11      49.1  T
   7    -21.1573002 -0.443247E-09  0.181E-04   12.11     130.3  T
     SCC iter.                  ...        0 min,  0.002 sec
     gradient                   ...        0 min,  0.004 sec
 * total energy  :   -20.8948340 Eh     change       -0.1995627E-03 Eh
   gradient norm :     0.0036903 Eh/α   predicted    -0.1686600E-03 ( -15.49%)
   displ. norm   :     0.0604776 α      lambda       -0.6341720E-04
   maximum displ.:     0.0402900 α      in ANC's #5, #1, #8, ...

........................................................................
.............................. CYCLE    4 ..............................
........................................................................

 iter      E             dE          RMSdq      gap      omega  full diag
   1    -21.1570805 -0.211571E+02  0.201E-02   12.17       0.0  T
   2    -21.1570809 -0.387471E-06  0.123E-02   12.17       1.9  T
   3    -21.1570809 -0.121458E-07  0.322E-03   12.17       7.3  T
   4    -21.1570809 -0.421578E-07  0.731E-04   12.17      32.2  T
   5    -21.1570809 -0.117590E-08  0.387E-04   12.17      60.9  T
     SCC iter.                  ...        0 min,  0.002 sec
     gradient                   ...        0 min,  0.004 sec
 * total energy  :   -20.8948793 Eh     change       -0.4538203E-04 Eh
   gradient norm :     0.0016439 Eh/α   predicted    -0.3182339E-04 ( -29.88%)
   displ. norm   :     0.1194905 α      lambda       -0.4251846E-04
   maximum displ.:     0.0760847 α      in ANC's #5, #1, #4, ...

........................................................................
.............................. CYCLE    5 ..............................
........................................................................

 iter      E             dE          RMSdq      gap      omega  full diag
   1    -21.1557935 -0.211558E+02  0.350E-02   12.20       0.0  T
   2    -21.1557938 -0.248790E-06  0.210E-02   12.20       1.1  T
   3    -21.1557938 -0.202145E-07  0.231E-03   12.20      10.2  T
   4    -21.1557938 -0.385090E-07  0.861E-04   12.20      27.4  T
   5    -21.1557938 -0.106490E-08  0.390E-04   12.20      60.4  T
     SCC iter.                  ...        0 min,  0.002 sec
     gradient                   ...        0 min,  0.004 sec
 * total energy  :   -20.8949114 Eh     change       -0.3201297E-04 Eh
   gradient norm :     0.0031033 Eh/α   predicted    -0.2139564E-04 ( -33.17%)
   displ. norm   :     0.0296207 α      lambda       -0.1421233E-04
   maximum displ.:     0.0163544 α      in ANC's #1, #4, #5, ...

........................................................................
.............................. CYCLE    6 ..............................
........................................................................

 iter      E             dE          RMSdq      gap      omega  full diag
   1    -21.1558934 -0.211559E+02  0.869E-03   12.19       0.0  T
   2    -21.1558935 -0.381369E-07  0.519E-03   12.19       4.5  T
   3    -21.1558935  0.139757E-08  0.101E-03   12.19      23.3  T
   4    -21.1558935 -0.610379E-08  0.205E-04   12.19     115.0  T
   5    -21.1558935 -0.698819E-10  0.877E-05   12.19     268.8  T
     SCC iter.                  ...        0 min,  0.002 sec
     gradient                   ...        0 min,  0.004 sec
 * total energy  :   -20.8949235 Eh     change       -0.1212513E-04 Eh
   gradient norm :     0.0022004 Eh/α   predicted    -0.7110733E-05 ( -41.36%)
   displ. norm   :     0.0834383 α      lambda       -0.2751940E-04
   maximum displ.:     0.0464801 α      in ANC's #4, #1, #5, ...

........................................................................
.............................. CYCLE    7 ..............................
........................................................................

 iter      E             dE          RMSdq      gap      omega  full diag
   1    -21.1562088 -0.211562E+02  0.236E-02   12.16       0.0  T
   2    -21.1562089 -0.163568E-06  0.142E-02   12.16       1.7  T
   3    -21.1562089  0.376839E-08  0.192E-03   12.16      12.3  T
   4    -21.1562090 -0.271288E-07  0.480E-04   12.16      49.1  T
   5    -21.1562090 -0.340702E-09  0.204E-04   12.16     115.8  T
     SCC iter.                  ...        0 min,  0.002 sec
     gradient                   ...        0 min,  0.004 sec
 * total energy  :   -20.8949391 Eh     change       -0.1564383E-04 Eh
   gradient norm :     0.0007513 Eh/α   predicted    -0.1385727E-04 ( -11.42%)
   displ. norm   :     0.0335357 α      lambda       -0.2295491E-05
   maximum displ.:     0.0205482 α      in ANC's #1, #5, #4, ...

........................................................................
.............................. CYCLE    8 ..............................
........................................................................

 iter      E             dE          RMSdq      gap      omega  full diag
   1    -21.1564530 -0.211565E+02  0.898E-03   12.16       0.0  T
   2    -21.1564530 -0.149876E-07  0.536E-03   12.16       4.4  T
   3    -21.1564530 -0.179166E-08  0.395E-04   12.16      59.6  T
   4    -21.1564530 -0.382325E-09  0.158E-04   12.16     148.8  T
     SCC iter.                  ...        0 min,  0.001 sec
     gradient                   ...        0 min,  0.004 sec
 * total energy  :   -20.8949413 Eh     change       -0.2155763E-05 Eh
   gradient norm :     0.0003874 Eh/α   predicted    -0.1147392E-05 ( -46.78%)
   displ. norm   :     0.0188753 α      lambda       -0.1163648E-05
   maximum displ.:     0.0102639 α      in ANC's #1, #4, #5, ...

........................................................................
.............................. CYCLE    9 ..............................
........................................................................

 iter      E             dE          RMSdq      gap      omega  full diag
   1    -21.1565123 -0.211565E+02  0.509E-03   12.16       0.0  T
   2    -21.1565123 -0.728380E-08  0.307E-03   12.16       7.7  T
   3    -21.1565123 -0.117481E-09  0.319E-04   12.16      73.9  T
   4    -21.1565123 -0.707669E-09  0.978E-05   12.16     241.0  T
     SCC iter.                  ...        0 min,  0.001 sec
     gradient                   ...        0 min,  0.004 sec
 * total energy  :   -20.8949425 Eh     change       -0.1255627E-05 Eh
   gradient norm :     0.0002854 Eh/α   predicted    -0.5805081E-06 ( -53.77%)
   displ. norm   :     0.0234850 α      lambda       -0.9413604E-06
   maximum displ.:     0.0116611 α      in ANC's #1, #4, #2, ...

........................................................................
.............................. CYCLE   10 ..............................
........................................................................

 iter      E             dE          RMSdq      gap      omega  full diag
   1    -21.1564539 -0.211565E+02  0.609E-03   12.17       0.0  T
   2    -21.1564539 -0.209791E-08  0.369E-03   12.17       6.4  T
   3    -21.1564539 -0.792909E-09  0.189E-04   12.17     125.0  T
   4    -21.1564539 -0.136129E-09  0.103E-04   12.17     228.2  T
     SCC iter.                  ...        0 min,  0.001 sec
     gradient                   ...        0 min,  0.004 sec
 * total energy  :   -20.8949435 Eh     change       -0.9407463E-06 Eh
   gradient norm :     0.0002863 Eh/α   predicted    -0.4721875E-06 ( -49.81%)
   displ. norm   :     0.0136114 α      lambda       -0.3743047E-06
   maximum displ.:     0.0079845 α      in ANC's #2, #1, #7, ...

........................................................................
.............................. CYCLE   11 ..............................
........................................................................

 iter      E             dE          RMSdq      gap      omega  full diag
   1    -21.1564531 -0.211565E+02  0.381E-03   12.17       0.0  T
   2    -21.1564531 -0.874820E-09  0.230E-03   12.17      10.2  T
   3    -21.1564531 -0.365333E-09  0.116E-04   12.17     202.7  T
   4    -21.1564531 -0.231779E-10  0.657E-05   12.17     358.9  T
     SCC iter.                  ...        0 min,  0.001 sec
     gradient                   ...        0 min,  0.004 sec
 * total energy  :   -20.8949438 Eh     change       -0.3578131E-06 Eh
   gradient norm :     0.0001577 Eh/α   predicted    -0.1859096E-06 ( -48.04%)
   displ. norm   :     0.0075030 α      lambda       -0.1530439E-06
   maximum displ.:     0.0049508 α      in ANC's #2, #1, #5, ...

........................................................................
.............................. CYCLE   12 ..............................
........................................................................

 iter      E             dE          RMSdq      gap      omega  full diag
   1    -21.1564117 -0.211564E+02  0.217E-03   12.17       0.0  T
   2    -21.1564117 -0.731106E-09  0.130E-03   12.17      18.1  T
   3    -21.1564117 -0.832294E-10  0.681E-05   12.17     346.3  T
   4    -21.1564117 -0.468248E-11  0.292E-05   12.17     806.2  T
     SCC iter.                  ...        0 min,  0.001 sec
     gradient                   ...        0 min,  0.004 sec
 * total energy  :   -20.8949440 Eh     change       -0.1611696E-06 Eh
   gradient norm :     0.0000631 Eh/α   predicted    -0.7802823E-07 ( -51.59%)
   displ. norm   :     0.0071103 α      lambda       -0.1228706E-06
   maximum displ.:     0.0043582 α      in ANC's #2, #5, #1, ...

........................................................................
.............................. CYCLE   13 ..............................
........................................................................

 iter      E             dE          RMSdq      gap      omega  full diag
   1    -21.1564061 -0.211564E+02  0.199E-03   12.17       0.0  T
   2    -21.1564061 -0.273925E-09  0.120E-03   12.17      19.7  T
   3    -21.1564061 -0.903349E-10  0.579E-05   12.17     407.2  T
   4    -21.1564061 -0.647660E-11  0.337E-05   12.17     699.5  T
     SCC iter.                  ...        0 min,  0.001 sec
     gradient                   ...        0 min,  0.006 sec
 * total energy  :   -20.8949441 Eh     change       -0.1434817E-06 Eh
   gradient norm :     0.0001046 Eh/α   predicted    -0.6047517E-07 ( -57.85%)
   displ. norm   :     0.0096945 α      lambda       -0.1393832E-06
   maximum displ.:     0.0054370 α      in ANC's #2, #1, #5, ...

........................................................................
.............................. CYCLE   14 ..............................
........................................................................

 iter      E             dE          RMSdq      gap      omega  full diag
   1    -21.1564128 -0.211564E+02  0.277E-03   12.17       0.0  T
   2    -21.1564128 -0.329244E-09  0.167E-03   12.17      14.1  T
   3    -21.1564128 -0.168736E-09  0.723E-05   12.17     326.1  T
   4    -21.1564128 -0.544276E-11  0.426E-05   12.17     553.7  T
     SCC iter.                  ...        0 min,  0.002 sec
     gradient                   ...        0 min,  0.004 sec
 * total energy  :   -20.8949443 Eh     change       -0.1568996E-06 Eh
   gradient norm :     0.0000983 Eh/α   predicted    -0.7032220E-07 ( -55.18%)
   displ. norm   :     0.0077175 α      lambda       -0.8013359E-07
   maximum displ.:     0.0054665 α      in ANC's #1, #2, #5, ...

........................................................................
.............................. CYCLE   15 ..............................
........................................................................

 iter      E             dE          RMSdq      gap      omega  full diag
   1    -21.1564173 -0.211564E+02  0.209E-03   12.17       0.0  T
   2    -21.1564173 -0.216527E-09  0.125E-03   12.17      18.8  T
   3    -21.1564173 -0.818972E-10  0.581E-05   12.17     405.8  T
   4    -21.1564173 -0.101927E-10  0.345E-05   12.17     683.6  T
     SCC iter.                  ...        0 min,  0.001 sec
     gradient                   ...        0 min,  0.004 sec
 * total energy  :   -20.8949444 Eh     change       -0.8810179E-07 Eh
   gradient norm :     0.0000575 Eh/α   predicted    -0.4041568E-07 ( -54.13%)
   displ. norm   :     0.0041159 α      lambda       -0.3730188E-07
   maximum displ.:     0.0035470 α      in ANC's #1, #2, #3, ...

   *** GEOMETRY OPTIMIZATION CONVERGED AFTER 15 ITERATIONS ***

------------------------------------------------------------------------
 total energy gain   :        -0.0012664 Eh       -0.7947 kcal/mol
 total RMSD          :         0.1101875 a0        0.0583 Å
 total power (kW/mol):        -0.2216622 (step)  -24.3606 (real)
------------------------------------------------------------------------

 ANCopt (total)                0 d,  0 h,  0 min,  0.137 sec
 optimizer setup                ...        0 min,  0.001 sec (  0.367%)
 model hessian                  ...        0 min,  0.008 sec (  5.755%)
 ANC generation                 ...        0 min,  0.000 sec (  0.316%)
 coordinate transformation      ...        0 min,  0.000 sec (  0.074%)
 single point calculation       ...        0 min,  0.118 sec ( 86.715%)
 optimization log               ...        0 min,  0.006 sec (  4.490%)
 hessian update                 ...        0 min,  0.000 sec (  0.080%)
 rational function              ...        0 min,  0.002 sec (  1.597%)

================
 final structure:
================
$coord
       -4.77714293016753        1.12181930871440        0.23723392419999      C
       -2.19732083250647        1.41066827353320       -1.01282859315108      C
       -0.08528054145568        0.03539643934165        0.41045065632610      C
       -0.05648477715998        0.72187391800490        2.36591845459141      H
       -0.46611006163547       -2.82522439282625        0.43920031697001      C
        2.47756247829546        0.66459567181364       -0.79785129322698      C
        4.55410281979477       -0.32887915960648        0.54891981522649      O
       -6.17388349188254        2.25240214297059       -0.75849688379214      H
       -5.39531065980533       -0.83520617947939        0.20495961988654      H
       -4.70502150145136        1.75373544305613        2.19167655534894      H
       -1.72651617984133        3.41880314743802       -1.11563396646658      H
       -2.28409674579770        0.69298550098960       -2.94580284434836      H
        1.23477366414273       -3.74302977416263        1.13978993318362      H
       -0.83139788091281       -3.51279840221105       -1.46336279254415      H
       -2.03765856706640       -3.35246661549598        1.64904983986987      H
        2.67923387901158        2.72191265821645       -0.99849340156946      H
        2.59227991236975       -0.18133284807647       -2.67851651654034      H
        4.58623049945925        0.41407893518752        2.21863971354365      H
$end
 
 Bond Distances (Angstroems)
 ---------------------------
C1-C2=1.5247         C1-H8=1.0871         C1-H9=1.0862         C1-H10=1.0876        C2-C1=1.5247         C2-C3=1.5317         
C2-H11=1.0928        C2-H12=1.0921        C3-C2=1.5317         C3-H4=1.0968         C3-C5=1.5272         C3-C6=1.5359         
H4-C3=1.0968         C5-C3=1.5272         C5-H13=1.0879        C5-H14=1.0878        C5-H15=1.0860        C6-C3=1.5359         
C6-O7=1.4113         C6-H16=1.0990        C6-H17=1.0929        O7-C6=1.4113         O7-H18=0.9672        H8-C1=1.0871         
H9-C1=1.0862         H10-C1=1.0876        H11-C2=1.0928        H12-C2=1.0921        H13-C5=1.0879        H14-C5=1.0878        
H15-C5=1.0860        H16-C6=1.0990        H17-C6=1.0929        H18-O7=0.9672        
 C  H  Rav=1.0906 sigma=0.0043  Rmin=1.0860  Rmax=1.0990    11
 C  C  Rav=1.5299 sigma=0.0043  Rmin=1.5247  Rmax=1.5359     4
 O  H  Rav=0.9672 sigma=0.0000  Rmin=0.9672  Rmax=0.9672     1
 O  C  Rav=1.4113 sigma=0.0000  Rmin=1.4113  Rmax=1.4113     1
 
 selected bond angles (degree)
 --------------------
H8-C1-C2=110.08                H9-C1-C2=111.00                H9-C1-H8=108.20                H10-C1-C2=110.51               
H10-C1-H8=108.39               H10-C1-H9=108.58               C3-C2-C1=113.10                H11-C2-C1=108.86               
H11-C2-C3=108.67               H12-C2-C1=109.50               H12-C2-C3=109.03               H12-C2-H11=107.52              
H4-C3-C2=108.46                C5-C3-C2=112.31                C5-C3-H4=108.71                C6-C3-C2=109.67                
C6-C3-H4=107.98                C6-C3-C5=109.61                H13-C5-C3=109.68               H14-C5-C3=110.23               
H14-C5-H13=108.25              H15-C5-C3=111.20               H15-C5-H13=108.54              H15-C5-H14=108.88              
O7-C6-C3=113.36                H16-C6-C3=109.92               H16-C6-O7=110.01               H17-C6-C3=109.84               
H17-C6-O7=105.31               H17-C6-H16=108.20              H18-O7-C6=108.88               
 
 selected dihedral angles (degree)
 ---------------------------------
C3-C2-C1-H8=175.47            C3-C2-C1-H9=295.24            C3-C2-C1-H10= 55.77           H11-C2-C1-H8= 54.57           
H11-C2-C1-H9=174.34           H11-C2-C1-H10=294.88          H12-C2-C1-H8=297.28           H12-C2-C1-H9= 57.05           
H12-C2-C1-H10=177.58          H4-C3-C2-C1=304.01            H4-C3-C2-H11= 65.01           H4-C3-C2-H12=181.93           
C5-C3-C2-C1= 64.17            C5-C3-C2-H11=185.17           C5-C3-C2-H12=302.09           C6-C3-C2-C1=186.30            
C6-C3-C2-H11=307.30           C6-C3-C2-H12= 64.22           H13-C5-C3-C2=169.17           H13-C5-C3-H4=289.19           
H13-C5-C3-C6= 47.00           H14-C5-C3-C2= 50.08           H14-C5-C3-H4=170.10           H14-C5-C3-C6=287.91           
H15-C5-C3-C2=289.23           H15-C5-C3-H4= 49.25           H15-C5-C3-C6=167.06           O7-C6-C3-C2=174.17            
O7-C6-C3-H4= 56.16            O7-C6-C3-C5=297.89            H16-C6-C3-C2= 50.59           H16-C6-C3-H4=292.59           
H16-C6-C3-C5=174.32           H17-C6-C3-C2=291.65           H17-C6-C3-H4=173.64           H17-C6-C3-C5= 55.38           
H18-O7-C6-C3=297.79           H18-O7-C6-H16= 61.31          H18-O7-C6-H17=177.69          
           -------------------------------------------------
          |                Final Singlepoint                |
           -------------------------------------------------

          ...................................................
          :                      SETUP                      :
          :.................................................:
          :  # basis functions                  36          :
          :  # atomic orbitals                  36          :
          :  # shells                           24          :
          :  # electrons                        38          :
          :  max. iterations                   250          :
          :  Hamiltonian                  GFN2-xTB          :
          :  restarted?                      false          :
          :  GBSA solvation                   true          :
          :  PC potential                    false          :
          :  electronic temp.          300.0000000     K    :
          :  accuracy                    1.0000000          :
          :  -> integral cutoff          0.2500000E+02      :
          :  -> integral neglect         0.1000000E-07      :
          :  -> SCF convergence          0.1000000E-05 Eh   :
          :  -> wf. convergence          0.1000000E-03 e    :
          :  Broyden damping             0.4000000          :
          :  net charge                          0          :
          :  unpaired electrons                  0          :
          ...................................................

 iter      E             dE          RMSdq      gap      omega  full diag
   1    -21.1564173 -0.211564E+02  0.719E-06   12.17       0.0  T
   2    -21.1564173 -0.142109E-12  0.497E-06   12.17    4746.2  T
   3    -21.1564173 -0.390799E-13  0.260E-06   12.17    9060.8  T

   *** convergence criteria satisfied after 3 iterations ***

         #    Occupation            Energy/Eh            Energy/eV
      -------------------------------------------------------------
         1        2.0000           -0.6870390             -18.6953
       ...           ...                  ...                  ...
        13        2.0000           -0.4669209             -12.7056
        14        2.0000           -0.4552262             -12.3873
        15        2.0000           -0.4494641             -12.2305
        16        2.0000           -0.4318664             -11.7517
        17        2.0000           -0.4256637             -11.5829
        18        2.0000           -0.4240999             -11.5403
        19        2.0000           -0.4058433             -11.0436 (HOMO)
        20                          0.0412575               1.1227 (LUMO)
        21                          0.0818382               2.2269
        22                          0.0944240               2.5694
        23                          0.1228383               3.3426
        24                          0.1322077               3.5976
       ...                                ...                  ...
        36                          0.3014662               8.2033
      -------------------------------------------------------------
                  HL-Gap            0.4471008 Eh           12.1662 eV
             Fermi-level           -0.1822929 Eh           -4.9604 eV

 SCC (total)                   0 d,  0 h,  0 min,  0.007 sec
 SCC setup                      ...        0 min,  0.001 sec ( 14.669%)
 Dispersion                     ...        0 min,  0.000 sec (  0.779%)
 classical contributions        ...        0 min,  0.000 sec (  0.239%)
 integral evaluation            ...        0 min,  0.001 sec ( 15.614%)
 iterations                     ...        0 min,  0.001 sec ( 17.050%)
 molecular gradient             ...        0 min,  0.004 sec ( 49.614%)
 printout                       ...        0 min,  0.000 sec (  1.837%)

         :::::::::::::::::::::::::::::::::::::::::::::::::::::
         ::                     SUMMARY                     ::
         :::::::::::::::::::::::::::::::::::::::::::::::::::::
         :: total energy             -20.894944389617 Eh    ::
         :: total w/o Gsasa/hb       -20.890990345094 Eh    ::
         :: gradient norm              0.000057598001 Eh/a0 ::
         :: HOMO-LUMO gap             12.166231883647 eV    ::
         ::.................................................::
         :: SCC energy               -21.156387205785 Eh    ::
         :: -> isotropic ES            0.035589407678 Eh    ::
         :: -> anisotropic ES          0.004311668493 Eh    ::
         :: -> anisotropic XC          0.007905593699 Eh    ::
         :: -> dispersion             -0.010004274724 Eh    ::
         :: -> Gsolv                  -0.008412997183 Eh    ::
         ::    -> Gelec               -0.004458952660 Eh    ::
         ::    -> Gsasa                0.000470331578 Eh    ::
         ::    -> Ghb                 -0.005505135799 Eh    ::
         ::    -> Gshift               0.001080759698 Eh    ::
         :: repulsion energy           0.261442816168 Eh    ::
         :: add. restraining           0.000000000000 Eh    ::
         :: total charge               0.000000000000 e     ::
         :::::::::::::::::::::::::::::::::::::::::::::::::::::

           ------------------------------------------------- 
          |                Numerical Hessian                |
           ------------------------------------------------- 
step length          :   0.00500
SCC accuracy         :   0.30000
Hessian scale factor :   1.00000
frozen atoms in %    :   0.00000    0
RMS gradient         :   0.00006
estimated CPU  time      0.01 min
estimated wall time      0.01 min

writing file <hessian>.

 projected vibrational frequencies (cm⁻¹)
eigval :       -0.00    -0.00     0.00     0.00     0.00     0.00
eigval :       77.94   114.35   191.06   206.18   248.35   292.82
eigval :      331.51   391.22   448.60   491.91   812.10   871.60
eigval :      915.95   947.71   989.68  1036.49  1044.51  1083.00
eigval :     1101.24  1160.07  1169.47  1202.07  1259.52  1274.12
eigval :     1301.35  1336.40  1346.31  1356.66  1410.15  1410.98
eigval :     1474.25  1490.22  1492.88  1498.48  1502.07  1510.31
eigval :     2868.22  2911.06  2958.04  2970.61  2978.52  3027.36
eigval :     3028.39  3034.13  3035.15  3047.52  3050.71  3495.61
           -------------------------------------------------
          |                Property Printout                |
           -------------------------------------------------

    * Orbital Energies and Occupations

         #    Occupation            Energy/Eh            Energy/eV
      -------------------------------------------------------------
         1        2.0000           -0.6870390             -18.6953
       ...           ...                  ...                  ...
         7        2.0000           -0.5429612             -14.7747
         8        2.0000           -0.5250856             -14.2883
         9        2.0000           -0.5197293             -14.1426
        10        2.0000           -0.5047516             -13.7350
        11        2.0000           -0.4815295             -13.1031
        12        2.0000           -0.4699585             -12.7882
        13        2.0000           -0.4669209             -12.7056
        14        2.0000           -0.4552262             -12.3873
        15        2.0000           -0.4494641             -12.2305
        16        2.0000           -0.4318664             -11.7517
        17        2.0000           -0.4256637             -11.5829
        18        2.0000           -0.4240999             -11.5403
        19        2.0000           -0.4058433             -11.0436 (HOMO)
        20                          0.0412575               1.1227 (LUMO)
        21                          0.0818382               2.2269
        22                          0.0944240               2.5694
        23                          0.1228383               3.3426
        24                          0.1322077               3.5976
        25                          0.1483448               4.0367
        26                          0.1563964               4.2558
        27                          0.1795781               4.8866
        28                          0.1844540               5.0192
        29                          0.2047677               5.5720
        30                          0.2108761               5.7382
       ...                                ...                  ...
        36                          0.3014662               8.2033
      -------------------------------------------------------------
                  HL-Gap            0.4471008 Eh           12.1662 eV
             Fermi-level           -0.1822929 Eh           -4.9604 eV

     #   Z          covCN         q      C6AA      α(0)
     1   6 C        3.751    -0.112    22.702     6.795
     2   6 C        3.804    -0.064    21.717     6.634
     3   6 C        3.849    -0.029    21.062     6.528
     4   1 H        0.924     0.035     2.522     2.484
     5   6 C        3.755    -0.113    22.723     6.797
     6   6 C        3.679     0.077    19.506     6.326
     7   8 O        1.655    -0.514    23.203     6.503
     8   1 H        0.925     0.040     2.448     2.447
     9   1 H        0.925     0.043     2.409     2.427
    10   1 H        0.925     0.039     2.460     2.453
    11   1 H        0.924     0.031     2.576     2.510
    12   1 H        0.924     0.034     2.533     2.489
    13   1 H        0.925     0.046     2.376     2.410
    14   1 H        0.925     0.037     2.484     2.465
    15   1 H        0.925     0.042     2.419     2.432
    16   1 H        0.923     0.016     2.798     2.616
    17   1 H        0.924     0.042     2.427     2.437
    18   1 H        0.805     0.352     0.585     1.201

 Mol. C6AA /au·bohr⁶  :       2120.918317
 Mol. C8AA /au·bohr⁸  :      43706.661267
 Mol. α(0) /au        :         67.952862


Wiberg/Mayer (AO) data.
largest (>0.10) Wiberg bond orders for each atom

 ---------------------------------------------------------------------------
     #   Z sym  total        # sym  WBO       # sym  WBO       # sym  WBO
 ---------------------------------------------------------------------------
     1   6 C    3.996 --     2 C    1.019    10 H    0.987     8 H    0.987
                             9 H    0.986
     2   6 C    3.997 --     1 C    1.019     3 C    0.996    12 H    0.977
                            11 H    0.977
     3   6 C    3.995 --     5 C    1.010     2 C    0.996     6 C    0.984
                             4 H    0.966
     4   1 H    0.999 --     3 C    0.966
     5   6 C    3.995 --     3 C    1.010    14 H    0.986    15 H    0.985
                            13 H    0.984
     6   6 C    3.952 --     7 O    0.995     3 C    0.984    17 H    0.973
                            16 H    0.970
     7   8 O    1.917 --     6 C    0.995    18 H    0.863
     8   1 H    0.998 --     1 C    0.987
     9   1 H    0.998 --     1 C    0.986
    10   1 H    0.998 --     1 C    0.987
    11   1 H    0.999 --     2 C    0.977
    12   1 H    0.999 --     2 C    0.977
    13   1 H    0.998 --     5 C    0.984
    14   1 H    0.999 --     5 C    0.986
    15   1 H    0.998 --     5 C    0.985
    16   1 H    1.000 --     6 C    0.970
    17   1 H    0.998 --     6 C    0.973
    18   1 H    0.876 --     7 O    0.863
 ---------------------------------------------------------------------------

Topologies differ in total number of bonds
Writing topology from bond orders to xtbtopo.mol

molecular dipole:
                 x           y           z       tot (Debye)
 q only:       -0.517       0.338       0.364
   full:       -0.571       0.481       0.428       2.186
molecular quadrupole (traceless):
                xx          xy          yy          xz          yz          zz
 q only:       -3.180       2.358       0.446       2.704       0.397       2.734
  q+dip:       -5.592       3.626       1.115       3.030       1.381       4.476
   full:       -5.022       3.372       0.849       3.236       1.074       4.173

           -------------------------------------------------
          |                Geometry Summary                 |
           -------------------------------------------------

      molecular mass/u    :       88.1483734
   center of mass at/Å    :        0.0000910      -0.0001002      -0.0006166
  moments of inertia/u·Å² :        0.7366973E+02   0.2668977E+03   0.3090003E+03
rotational constants/cm⁻¹ :        0.2288271E+00   0.6316141E-01   0.5455539E-01

 * 17 selected distances

     #   Z          #   Z                                           value/Å
     1   6 C        2   6 C                                       1.5246893
     2   6 C        3   6 C                                       1.5316744
     3   6 C        4   1 H                                       1.0968065
     3   6 C        5   6 C                                       1.5272068
     3   6 C        6   6 C                                       1.5358954 (max)
     6   6 C        7   8 O                                       1.4113074
     1   6 C        8   1 H                                       1.0871446
     1   6 C        9   1 H                                       1.0861834
     1   6 C       10   1 H                                       1.0876318
     2   6 C       11   1 H                                       1.0928288
     2   6 C       12   1 H                                       1.0920798
     5   6 C       13   1 H                                       1.0878677
     5   6 C       14   1 H                                       1.0878345
     5   6 C       15   1 H                                       1.0859724
     6   6 C       16   1 H                                       1.0990442
     6   6 C       17   1 H                                       1.0929345
     7   8 O       18   1 H                                       0.9672491 (min)

 * 4 distinct bonds (by element types)

   Z      Z             #   av. dist./Å        max./Å        min./Å
   1 H    6 C          11     1.0905753     1.0990442     1.0859724
   6 C    6 C           4     1.5298664     1.5358954     1.5246893
   1 H    8 O           1     0.9672491     0.9672491     0.9672491
   6 C    8 O           1     1.4113074     1.4113074     1.4113074

           -------------------------------------------------
          |               Frequency Printout                |
           -------------------------------------------------
 projected vibrational frequencies (cm⁻¹)
eigval :       -0.00    -0.00     0.00     0.00     0.00     0.00
eigval :       77.94   114.35   191.06   206.18   248.35   292.82
eigval :      331.51   391.22   448.60   491.91   812.10   871.60
eigval :      915.95   947.71   989.68  1036.49  1044.51  1083.00
eigval :     1101.24  1160.07  1169.47  1202.07  1259.52  1274.12
eigval :     1301.35  1336.40  1346.31  1356.66  1410.15  1410.98
eigval :     1474.25  1490.22  1492.88  1498.48  1502.07  1510.31
eigval :     2868.22  2911.06  2958.04  2970.61  2978.52  3027.36
eigval :     3028.39  3034.13  3035.15  3047.52  3050.71  3495.61
 reduced masses (amu)
   1:  8.39   2: 11.17   3: 11.04   4: 11.23   5:  9.60   6: 12.36   7:  7.99   8:  8.02
   9:  4.59  10:  6.31  11:  3.19  12:  8.67  13:  2.87  14:  9.68  15:  7.38  16:  9.37
  17:  3.12  18:  7.22  19:  3.70  20:  7.16  21:  2.55  22:  5.41  23:  9.43  24:  5.07
  25:  9.41  26:  7.42  27:  6.32  28:  6.03  29:  3.42  30:  2.46  31:  3.62  32:  4.32
  33:  3.42  34:  5.31  35:  3.12  36:  3.33  37:  1.80  38:  1.77  39:  1.56  40:  1.76
  41:  1.55  42:  1.54  43:  1.74  44:  1.74  45:  1.93  46:  1.67  47:  1.53  48:  1.90
  49:  1.90  50:  1.75  51:  1.77  52:  1.47  53:  1.50  54:  1.88
 IR intensities (km·mol⁻¹)
   1:  0.94   2:  0.05   3:  0.55   4:  0.01   5:  0.70   6:  0.27   7:  0.71   8:  5.40
   9:  0.31  10:  0.33  11:  6.67  12: 14.47  13:175.08  14: 20.25  15: 10.73  16: 23.20
  17:  7.02  18:  1.59  19: 12.97  20:  5.43  21:  2.50  22:  5.26  23:174.14  24: 14.75
  25: 13.20  26:  1.57  27:  1.93  28: 13.15  29: 10.78  30:  4.49  31: 66.28  32: 23.72
  33: 11.75  34:  3.53  35:  0.58  36:  1.51  37:  2.81  38:  2.63  39:  1.18  40:  0.21
  41:  2.41  42:  0.65  43:129.91  44: 84.42  45: 97.26  46: 37.73  47: 99.30  48: 63.15
  49: 86.05  50: 54.57  51: 61.22  52: 13.65  53: 81.72  54: 60.57
 Raman intensities (Ä⁴*amu⁻¹)
   1:  0.00   2:  0.00   3:  0.00   4:  0.00   5:  0.00   6:  0.00   7:  0.00   8:  0.00
   9:  0.00  10:  0.00  11:  0.00  12:  0.00  13:  0.00  14:  0.00  15:  0.00  16:  0.00
  17:  0.00  18:  0.00  19:  0.00  20:  0.00  21:  0.00  22:  0.00  23:  0.00  24:  0.00
  25:  0.00  26:  0.00  27:  0.00  28:  0.00  29:  0.00  30:  0.00  31:  0.00  32:  0.00
  33:  0.00  34:  0.00  35:  0.00  36:  0.00  37:  0.00  38:  0.00  39:  0.00  40:  0.00
  41:  0.00  42:  0.00  43:  0.00  44:  0.00  45:  0.00  46:  0.00  47:  0.00  48:  0.00
  49:  0.00  50:  0.00  51:  0.00  52:  0.00  53:  0.00  54:  0.00
 output can be read by thermo (or use thermo option).
 writing <g98.out> molden fake output.
 recommended (thermochemical) frequency scaling factor: 1.0
           -------------------------------------------------
          |             Thermodynamic Functions             |
           -------------------------------------------------

Molecule has no symmetry elements
It seems to be the C1 point group
c1  symmetry found (for desy threshold:  0.10E+00) used in thermo

          ...................................................
          :                      SETUP                      :
          :.................................................:
          :  # frequencies                          48      :
          :  # imaginary freq.                       0      :
          :  linear?                             false      :
          :  only rotor calc.                    false      :
          :  symmetry                               c1      :
          :  rotational number                       1      :
          :  scaling factor                  1.0000000      :
          :  rotor cutoff                    0.0000000 cm⁻¹ :
          :  imag. cutoff                 -100.0000000 cm⁻¹ :
          :.................................................:

    mode    ω/cm⁻¹     T·S(HO)/kcal·mol⁻¹    T·S(FR)/kcal·mol⁻¹   T·S(vib)
   ------------------------------------------------------------------------
       1     77.94    -1.17535 (100.00%)    -0.92476 (  0.00%)    -1.17535
       2    114.35    -0.95221 (100.00%)    -0.81129 (  0.00%)    -0.95221
       3    191.06    -0.66114 (100.00%)    -0.65929 (  0.00%)    -0.66114
       4    206.18    -0.61934 (100.00%)    -0.63675 (  0.00%)    -0.61934
       5    248.35    -0.51946 (100.00%)    -0.58164 (  0.00%)    -0.51946
       6    292.82    -0.43459 (100.00%)    -0.53285 (  0.00%)    -0.43459
   ------------------------------------------------------------------------

   temp. (K)  partition function   enthalpy   heat capacity  entropy
                                   cal/mol     cal/K/mol   cal/K/mol   J/K/mol
 298.15  VIB   77.6                 3308.696     22.676     19.745
         ROT  0.188E+06              888.752      2.981     27.118
         INT  0.146E+08             4197.448     25.657     46.862
         TR   0.801E+27             1481.254      4.968     39.324
         TOT                        5678.7022    30.6253    86.1863   360.6036

       T/K    H(0)-H(T)+PV         H(T)/Eh          T*S/Eh         G(T)/Eh
   ------------------------------------------------------------------------
    298.15    0.904959E-02    0.171248E+00    0.409499E-01    0.130298E+00
   ------------------------------------------------------------------------

         :::::::::::::::::::::::::::::::::::::::::::::::::::::
         ::                  THERMODYNAMIC                  ::
         :::::::::::::::::::::::::::::::::::::::::::::::::::::
         :: total free energy         -20.764646440920 Eh   ::
         ::.................................................::
         :: total energy              -20.894944389654 Eh   ::
         :: zero point energy           0.162198265308 Eh   ::
         :: G(RRHO) w/o ZPVE           -0.031900316575 Eh   ::
         :: G(RRHO) contrib.            0.130297948733 Eh   ::
         :::::::::::::::::::::::::::::::::::::::::::::::::::::

optimized geometry written to: xtbopt.coord


           -------------------------------------------------
          | TOTAL ENERGY              -20.894944389654 Eh   |
          | TOTAL ENTHALPY            -20.723696536359 Eh   |
          | TOTAL FREE ENERGY         -20.764646440920 Eh   |
          | GRADIENT NORM               0.000057602864 Eh/α |
          | HOMO-LUMO GAP              12.166232010724 eV   |
           -------------------------------------------------

------------------------------------------------------------------------
 * finished run on 2025/04/11 at 12:40:57.459     
------------------------------------------------------------------------
 total:
 * wall-time:     0 d,  0 h,  0 min,  1.106 sec
 *  cpu-time:     0 d,  0 h,  0 min,  1.012 sec
 * ratio c/w:     0.915 speedup
 SCF:
 * wall-time:     0 d,  0 h,  0 min,  0.024 sec
 *  cpu-time:     0 d,  0 h,  0 min,  0.012 sec
 * ratio c/w:     0.489 speedup
 ANC optimizer:
 * wall-time:     0 d,  0 h,  0 min,  0.157 sec
 *  cpu-time:     0 d,  0 h,  0 min,  0.140 sec
 * ratio c/w:     0.892 speedup
 analytical hessian:
 * wall-time:     0 d,  0 h,  0 min,  0.860 sec
 *  cpu-time:     0 d,  0 h,  0 min,  0.849 sec
 * ratio c/w:     0.987 speedup

