      -----------------------------------------------------------      
     |                   =====================                   |     
     |                           x T B                           |     
     |                   =====================                   |     
     |                         S. Grimme                         |     
     |          Mulliken Center for Theoretical Chemistry        |     
     |                    University of Bonn                     |     
      -----------------------------------------------------------      

   * xtb version 6.7.1 (edcfbbe) compiled by 'albert@albert-system' on 2024-07-22

   xtb is free software: you can redistribute it and/or modify it under
   the terms of the GNU Lesser General Public License as published by
   the Free Software Foundation, either version 3 of the License, or
   (at your option) any later version.
   
   xtb is distributed in the hope that it will be useful,
   but WITHOUT ANY WARRANTY; without even the implied warranty of
   MERCHANTABILITY or FITNESS FOR A PARTICULAR PURPOSE.  See the
   GNU Lesser General Public License for more details.
   
   Cite this work as:
   * C. Bannwarth, E. Caldeweyher, S. Ehlert, A. Hansen, P. Pracht,
     J. Seibert, S. Spicher, S. Grimme, WIREs Comput. Mol. Sci., 2020, 11,
     e01493. DOI: 10.1002/wcms.1493
   
   for GFN2-xTB:
   * C. Bannwarth, S. Ehlert and S. Grimme., J. Chem. Theory Comput., 2019,
     15, 1652-1671. DOI: 10.1021/acs.jctc.8b01176
   for GFN1-xTB:
   * S. Grimme, C. Bannwarth, P. Shushkov, J. Chem. Theory Comput., 2017,
     13, 1989-2009. DOI: 10.1021/acs.jctc.7b00118
   for GFN0-xTB:
   * P. Pracht, E. Caldeweyher, S. Ehlert, S. Grimme, ChemRxiv, 2019, preprint.
     DOI: 10.26434/chemrxiv.8326202.v1
   for GFN-FF:
   * S. Spicher and S. Grimme, Angew. Chem. Int. Ed., 2020, 59, 15665-15673.
     DOI: 10.1002/anie.202004239
   
   for ALPB and GBSA implicit solvation:
   * S. Ehlert, M. Stahn, S. Spicher, S. Grimme, J. Chem. Theory Comput.,
     2021, 17, 4250-4261. DOI: 10.1021/acs.jctc.1c00471
   
   for ddCOSMO and CPCM-X implicit solvation:
   * M. Stahn, S. Ehlert, S. Grimme, J. Phys. Chem. A,
     2023, XX, XXXX-XXXX. DOI: 10.1021/acs.jpca.3c04382
   
   for DFT-D4:
   * E. Caldeweyher, C. Bannwarth and S. Grimme, J. Chem. Phys., 2017,
     147, 034112. DOI: 10.1063/1.4993215
   * E. Caldeweyher, S. Ehlert, A. Hansen, H. Neugebauer, S. Spicher,
     C. Bannwarth and S. Grimme, J. Chem. Phys., 2019, 150, 154122.
     DOI: 10.1063/1.5090222
   * E. Caldeweyher, J.-M. Mewes, S. Ehlert and S. Grimme, Phys. Chem. Chem. Phys.
     2020, 22, 8499-8512. DOI: 10.1039/D0CP00502A
   
   for sTDA-xTB:
   * S. Grimme and C. Bannwarth, J. Chem. Phys., 2016, 145, 054103.
     DOI: 10.1063/1.4959605
   
   in the mass-spec context:
   * V. Asgeirsson, C. Bauer and S. Grimme, Chem. Sci., 2017, 8, 4879.
     DOI: 10.1039/c7sc00601b
   * J. Koopman and S. Grimme, ACS Omega 2019, 4, 12, 15120-15133.
     DOI: 10.1021/acsomega.9b02011
   
   for metadynamics refer to:
   * S. Grimme, J. Chem. Theory Comput., 2019, 155, 2847-2862
     DOI: 10.1021/acs.jctc.9b00143
   
   for SPH calculations refer to:
   * S. Spicher and S. Grimme, J. Chem. Theory Comput., 2021, 17, 1701-1714
     DOI: 10.1021/acs.jctc.0c01306
   
   for ONIOM refer to:
   * C. Plett, A. Katbashev, S. Ehlert, S. Grimme, M. Bursch,
     Phys. Chem. Chem. Phys., 2023, 25, 17860-17868. DOI: 10.1039/D3CP02178E
   
   for DIPRO refer to:
   * J. Kohn, N. Gildemeister, S. Grimme, D. Fazzi, A. Hansen,
     J. Chem. Phys., 2023, just accepted.
   
   for PTB refer to:
   * S. Grimme, M. Mueller, A. Hansen, J. Chem. Phys., 2023, 158, 124111.
     DOI: 10.1063/5.0137838
   
   with help from (in alphabetical order)
   P. Atkinson, C. Bannwarth, F. Bohle, G. Brandenburg, E. Caldeweyher
   M. Checinski, S. Dohm, S. Ehlert, S. Ehrlich, I. Gerasimov, C. Hölzer
   A. Katbashev, J. Kohn, J. Koopman, C. Lavigne, S. Lehtola, F. März, M. Müller,
   F. Musil, H. Neugebauer, J. Pisarek, C. Plett, P. Pracht, F. Pultar,
   J. Seibert, P. Shushkov, S. Spicher, M. Stahn, M. Steiner, T. Strunk,
   J. Stückrath, T. Rose, and J. Unsleber
   
 * started run on 2025/04/11 at 12:31:08.678     
   ID    Z sym.   atoms
    1    6 C      1-3, 5, 6
    2    1 H      4, 8-18
    3    8 O      7

           -------------------------------------------------
          |                Calculation Setup                |
           -------------------------------------------------

          program call               : /srv/scratch/z5358697/.xtb/bin/xtb xtb_opt.coord --opt normal --orca -I xtb_opt-xcontrol-inp
          hostname                   : k114
          coordinate file            : xtb_opt.coord
          omp threads                :                    16

           -------------------------------------------------
          |                   Orca driver                   |
           -------------------------------------------------
orca executable           : /apps/z_install_tree/linux-rocky8-ivybridge/gcc-12.2.0/orca-6.0.0-srtngmq3qlimg2qxbl6avaaiffipurdx/bin/orca
orca input file           : xtb_opt.inp
orca input line           : 
orca parallel             : true
orca number of threads    : 16
                         * ORCA takes the control...
  ------------------------------------------------------------------------

                                 *****************
                                 * O   R   C   A *
                                 *****************

                                            #,                                       
                                            ###                                      
                                            ####                                     
                                            #####                                    
                                            ######                                   
                                           ########,                                 
                                     ,,################,,,,,                         
                               ,,#################################,,                 
                          ,,##########################################,,             
                       ,#########################################, ''#####,          
                    ,#############################################,,   '####,        
                  ,##################################################,,,,####,       
                ,###########''''           ''''###############################       
              ,#####''   ,,,,##########,,,,          '''####'''          '####       
            ,##' ,,,,###########################,,,                        '##       
           ' ,,###''''                  '''############,,,                           
         ,,##''                                '''############,,,,        ,,,,,,###''
      ,#''                                            '''#######################'''  
     '                                                          ''''####''''         
             ,#######,   #######,   ,#######,      ##                                
            ,#'     '#,  ##    ##  ,#'     '#,    #''#        ,####,   ,####,        
            ##       ##  ##   ,#'  ##            #'  '#       #'       #'  '#        
            ##       ##  #######   ##           ,######,      #####,   #    #        
            '#,     ,#'  ##    ##  '#,     ,#' ,#      #,     #,   #   #,  ,#        
             '#######'   ##     ##  '#######'  #'      '#     '####' # '####'        



                #########################################################
                #                        -***-                          #
                #          Department of theory and spectroscopy        #
                #                                                       #
                #                      Frank Neese                      #
                #                                                       #
                #     Directorship, Architecture, Infrastructure        #
                #                    SHARK, DRIVERS                     #
                #        Core code/Algorithms in most modules           #
                #                                                       #
                #        Max Planck Institute fuer Kohlenforschung      #
                #                Kaiser Wilhelm Platz 1                 #
                #                 D-45470 Muelheim/Ruhr                 #
                #                      Germany                          #
                #                                                       #
                #                  All rights reserved                  #
                #                        -***-                          #
                #########################################################


                         Program Version 6.0.0  -   RELEASE  -


 With contributions from (in alphabetic order):
   Daniel Aravena         : Magnetic Suceptibility
   Michael Atanasov       : Ab Initio Ligand Field Theory (pilot matlab implementation)
   Alexander A. Auer      : GIAO ZORA, VPT2 properties, NMR spectrum
   Ute Becker             : All parallelization in ORCA, NUMFREQ, NUMCALC
   Giovanni Bistoni       : ED, misc. LED, open-shell LED, HFLD
   Martin Brehm           : Molecular dynamics
   Dmytro Bykov           : pre 5.0 version of the SCF Hessian
   Marcos Casanova-Páez   : Triplet and SCS-CIS(D). UHF-(DLPNO)-IP/EA/STEOM-CCSD. UHF-CVS-IP/STEOM-CCSD
   Vijay G. Chilkuri      : MRCI spin determinant printing, contributions to CSF-ICE
   Pauline Colinet        : FMM embedding
   Dipayan Datta          : RHF DLPNO-CCSD density
   Achintya Kumar Dutta   : EOM-CC, STEOM-CC
   Nicolas Foglia         : Exact transition moments, OPA infrastructure, MCD improvements
   Dmitry Ganyushin       : Spin-Orbit,Spin-Spin,Magnetic field MRCI
   Miquel Garcia          : C-PCM and meta-GGA Hessian, CCSD/C-PCM, Gaussian charge scheme
   Tiago L. C. Gouveia    : GS-ROHF, GS-ROCIS
   Yang Guo               : DLPNO-NEVPT2, F12-NEVPT2, CIM, IAO-localization
   Andreas Hansen         : Spin unrestricted coupled pair/coupled cluster methods
   Ingolf Harden          : AUTO-CI MPn and infrastructure 
   Benjamin Helmich-Paris : MC-RPA, TRAH-(SCF,CASSCF), AVAS, COSX integrals, SCF dyn. polar.
   Lee Huntington         : MR-EOM, pCC
   Robert Izsak           : Overlap fitted RIJCOSX, COSX-SCS-MP3, EOM
   Riya Kayal             : Wick's Theorem for AUTO-CI, AUTO-CI UHF-CCSDT
   Emily Kempfer          : AUTO-CI, RHF CISDT and CCSDT
   Christian Kollmar      : KDIIS, OOCD, Brueckner-CCSD(T), CCSD density, CASPT2, CASPT2-K, improved NEVPT2
   Axel Koslowski         : Symmetry handling
   Simone Kossmann        : Meta GGA functionals, TD-DFT gradient, OOMP2, (MP2 Hessian; deprecated post 5.0)
   Lucas Lang             : DCDCAS
   Marvin Lechner         : AUTO-CI (C++ implementation), FIC-MRCC
   Spencer Leger          : CASSCF response
   Dagmar Lenk            : GEPOL surface, SMD, ORCA-2-JSON
   Dimitrios Liakos       : Extrapolation schemes; Compound Job, initial MDCI parallelization
   Dimitrios Manganas     : Further ROCIS development; embedding schemes. LFT, Crystal Embedding
   Dimitrios Pantazis     : SARC Basis sets
   Anastasios Papadopoulos: AUTO-CI, single reference methods and gradients
   Taras Petrenko         : pre 6.0 DFT Hessian and TD-DFT gradient, (ASA, deprecated), ECA, 1-Electron XAS/XES, NRVS
   Peter Pinski           : DLPNO-MP2, DLPNO-MP2 Gradient
   Christoph Reimann      : Effective Core Potentials
   Marius Retegan         : Local ZFS, SOC
   Christoph Riplinger    : Optimizer, TS searches, QM/MM, DLPNO-CCSD(T), (RO)-DLPNO pert. Triples
   Michael Roemelt        : Original ROCIS implementation
   Masaaki Saitow         : Open-shell DLPNO-CCSD energy and density
   Barbara Sandhoefer     : DKH picture change effects
   Kantharuban Sivalingam : CASSCF convergence/infrastructure, NEVPT2 and variants, FIC-MRCI
   Bernardo de Souza      : ESD, SOC TD-DFT
   Georgi Stoychev        : AutoAux, RI-MP2 NMR, DLPNO-MP2 response, X2C
   Van Anh Tran           : RI-MP2 g-tensors
   Willem Van den Heuvel  : Paramagnetic NMR
   Zikuan Wang            : NOTCH, Electric field optimization 
   Frank Wennmohs         : Technical directorship and infrastructure
   Hang Xu                : AUTO-CI-Response properties 


 We gratefully acknowledge several colleagues who have allowed us to
 interface, adapt or use parts of their codes:
   Stefan Grimme, W. Hujo, H. Kruse, P. Pracht,  : VdW corrections, initial TS optimization,
                  C. Bannwarth, S. Ehlert,         DFT functionals, gCP, sTDA/sTD-DF
                  L. Wittmann, M. Mueller
   Ed Valeev, F. Pavosevic, A. Kumar             : LibInt (2-el integral package), F12 methods
   Garnet Chan, S. Sharma, J. Yang, R. Olivares  : DMRG
   Ulf Ekstrom                                   : XCFun DFT Library
   Mihaly Kallay                                 : mrcc  (arbitrary order and MRCC methods)
   Frank Weinhold                                : gennbo (NPA and NBO analysis)
   Simon Mueller                                 : openCOSMO-RS
   Christopher J. Cramer and Donald G. Truhlar   : smd solvation model
   Lars Goerigk                                  : TD-DFT with DH, B97 family of functionals
   V. Asgeirsson, H. Jonsson                     : NEB implementation
   FAccTs GmbH                                   : IRC, NEB, NEB-TS, DLPNO-Multilevel, CI-OPT
                                                   MM, QMMM, 2- and 3-layer-ONIOM, Crystal-QMMM,
                                                   LR-CPCM, SF, NACMEs, symmetry and pop. for TD-DFT,
                                                   nearIR, NL-DFT gradient (VV10), updates on ESD,
                                                   ML-optimized integration grids, MBIS, APM,
                                                   GOAT, DOCKER, SOLVATOR, interface openCOSMO-RS
   S Lehtola, MJT Oliveira, MAL Marques          : LibXC Library
   Liviu Ungur et al                             : ANISO software


 Your calculation uses the libint2 library for the computation of 2-el integrals
 For citations please refer to: http://libint.valeyev.net

 Your ORCA version has been built with support for libXC version: 6.2.2
 For citations please refer to: https://libxc.gitlab.io

 This ORCA versions uses:
   CBLAS   interface :  Fast vector & matrix operations
   LAPACKE interface :  Fast linear algebra routines
   SCALAPACK package :  Parallel linear algebra routines
   Shared memory     :  Shared parallel matrices
   BLAS/LAPACK       :  OpenBLAS 0.3.27  USE64BITINT DYNAMIC_ARCH NO_AFFINITY SkylakeX SINGLE_THREADED
        Core in use  :  SkylakeX
   Copyright (c) 2011-2014, The OpenBLAS Project




***************************************
The coordinates will be read from file: xtb_opt.xyz
***************************************


Your calculation utilizes the geometrical counterpoise correction gCP
Please cite in your paper:
H.Kruse, S. Grimme J.Chem.Phys., 136, (2012), 154101 
   

Your calculation utilizes the atom-pairwise dispersion correction
based on EEQ partial charges (D4)


Your calculation utilizes the SMD solvation module
Please cite in your paper:
A.V. Marenich, C.J. Cramer, D.G. Truhlar J. Phys. Chem. B, 113, (2009), 6378 

================================================================================

----- Orbital basis set information -----
Your calculation utilizes the basis: def2-mTZVPP
   Stefan Grimme, Andreas Hansen, Sebastian Ehlert, and Jan-Michael Mewes 
   J. Chem. Phys. 154, 064103 (2021). DOI: 10.1063/5.0040021

----- AuxJ basis set information -----
Your calculation utilizes the auxiliary basis: def2/J
   F. Weigend, Phys. Chem. Chem. Phys. 8, 1057 (2006).

================================================================================
                                        WARNINGS
                       Please study these warnings very carefully!
================================================================================

WARNING: Old DensityContainer found on disk!
         Will remove this file - 
         If you want to keep old densities, please start your calculation with a different basename. 

Using LibXC functional ID 497 : Re-regularized SCAN exchange by Furness et al
[ 1]  J. W. Furness, A. D. Kaplan, J. Ning, J. P. Perdew, and J. Sun.,  J. Phys. Chem. Lett. 11, 8208-8215 (2020)
[ 2]  J. W. Furness, A. D. Kaplan, J. Ning, J. P. Perdew, and J. Sun.,  J. Phys. Chem. Lett. 11, 9248-9248 (2020)
Using LibXC functional ID 498 : Re-regularized SCAN correlation by Furness et al
[ 1]  J. W. Furness, A. D. Kaplan, J. Ning, J. P. Perdew, and J. Sun.,  J. Phys. Chem. Lett. 11, 8208-8215 (2020)
[ 2]  J. W. Furness, A. D. Kaplan, J. Ning, J. P. Perdew, and J. Sun.,  J. Phys. Chem. Lett. 11, 9248-9248 (2020)
Using LibXC functional ID 497 : Re-regularized SCAN exchange by Furness et al
[ 1]  J. W. Furness, A. D. Kaplan, J. Ning, J. P. Perdew, and J. Sun.,  J. Phys. Chem. Lett. 11, 8208-8215 (2020)
[ 2]  J. W. Furness, A. D. Kaplan, J. Ning, J. P. Perdew, and J. Sun.,  J. Phys. Chem. Lett. 11, 9248-9248 (2020)
Using LibXC functional ID 498 : Re-regularized SCAN correlation by Furness et al
[ 1]  J. W. Furness, A. D. Kaplan, J. Ning, J. P. Perdew, and J. Sun.,  J. Phys. Chem. Lett. 11, 8208-8215 (2020)
[ 2]  J. W. Furness, A. D. Kaplan, J. Ning, J. P. Perdew, and J. Sun.,  J. Phys. Chem. Lett. 11, 9248-9248 (2020)

================================================================================
                                       INPUT FILE
================================================================================
NAME = xtb_opt.inp
|  1> ! r2scan-3c def2/J RI DEFGRID2 scfconv7 ENGRAD tightSCF miniprint
|  2> %cpcm
|  3>     smd true
|  4>     smdsolvent "water"
|  5> end
|  6> * xyzfile 0 1 xtb_opt.xyz
|  7> 
|  8>                          ****END OF INPUT****
================================================================================

                     *******************************
                     * Energy+Gradient Calculation *
                     *******************************

---------------------------------
CARTESIAN COORDINATES (ANGSTROEM)
---------------------------------
  C     -2.246793    0.880558    0.158230
  C     -0.845864    0.702669   -0.423176
  C     -0.014203   -0.382408    0.271584
  H     -0.003129   -0.174767    1.353358
  C     -0.588115   -1.782899    0.049901
  C      1.434298   -0.361485   -0.214130
  O      2.119901    0.870607    0.073579
  H     -2.850901   -0.026548    0.054846
  H     -2.197290    1.130731    1.224724
  H     -2.780892    1.689999   -0.349821
  H     -0.309419    1.656318   -0.352482
  H     -0.913780    0.458043   -1.492967
  H      0.001468   -2.539886    0.578080
  H     -0.585556   -2.035881   -1.017616
  H     -1.618119   -1.857360    0.409340
  H      1.462414   -0.470847   -1.305301
  H      1.985561   -1.206633    0.223747
  H      2.133205    0.971662    1.034308

----------------------------
CARTESIAN COORDINATES (A.U.)
----------------------------
  NO LB      ZA    FRAG     MASS         X           Y           Z
   0 C     6.0000    0    12.011   -4.245824    1.664014    0.299011
   1 C     6.0000    0    12.011   -1.598452    1.327851   -0.799687
   2 C     6.0000    0    12.011   -0.026840   -0.722646    0.513220
   3 H     1.0000    0     1.008   -0.005913   -0.330262    2.557477
   4 C     6.0000    0    12.011   -1.111375   -3.369191    0.094299
   5 C     6.0000    0    12.011    2.710430   -0.683109   -0.404647
   6 O     8.0000    0    15.999    4.006032    1.645209    0.139044
   7 H     1.0000    0     1.008   -5.387423   -0.050169    0.103644
   8 H     1.0000    0     1.008   -4.152276    2.136772    2.314393
   9 H     1.0000    0     1.008   -5.255124    3.193636   -0.661065
  10 H     1.0000    0     1.008   -0.584718    3.129987   -0.666094
  11 H     1.0000    0     1.008   -1.726794    0.865577   -2.821300
  12 H     1.0000    0     1.008    0.002774   -4.799689    1.092413
  13 H     1.0000    0     1.008   -1.106540   -3.847258   -1.923015
  14 H     1.0000    0     1.008   -3.057803   -3.509903    0.773541
  15 H     1.0000    0     1.008    2.763562   -0.889771   -2.466662
  16 H     1.0000    0     1.008    3.752167   -2.280207    0.422820
  17 H     1.0000    0     1.008    4.031173    1.836174    1.954559

------------------------------------------------------------------------------
                   ___                                                        
                  /   \      - P O W E R E D   B Y -                         
                 /     \                                                     
                 |  |  |   _    _      __       _____    __    __             
                 |  |  |  | |  | |    /  \     |  _  \  |  |  /  |          
                  \  \/   | |  | |   /    \    | | | |  |  | /  /          
                 / \  \   | |__| |  /  /\  \   | |_| |  |  |/  /          
                |  |  |   |  __  | /  /__\  \  |    /   |      \           
                |  |  |   | |  | | |   __   |  |    \   |  |\   \          
                \     /   | |  | | |  |  |  |  | |\  \  |  | \   \       
                 \___/    |_|  |_| |__|  |__|  |_| \__\ |__|  \__/        
                                                                              
                      - O R C A' S   B I G   F R I E N D -                    
                                      &                                       
                       - I N T E G R A L  F E E D E R -                       
                                                                              
 v1 FN, 2020, v2 2021, v3 2022-2024                                           
------------------------------------------------------------------------------


----------------------
SHARK INTEGRAL PACKAGE
----------------------

Number of atoms                             ...     18
Number of basis functions                   ...    179
Number of shells                            ...     91
Maximum angular momentum                    ...      2
Integral batch strategy                     ... SHARK/LIBINT Hybrid
RI-J (if used) integral strategy            ... SPLIT-RIJ (Revised 2003 algorithm where possible)
Printlevel                                  ...      1
Contraction scheme used                     ... SEGMENTED contraction
Prescreening option                         ... SCHWARTZ
   Thresh                                   ... 3.000e-11
   Tcut                                     ... 1.000e-12
   Tpresel                                  ... 1.000e-12 
Coulomb Range Separation                    ... NOT USED
Exchange Range Separation                   ... NOT USED
Multipole approximations                    ... NOT USED
Finite Nucleus Model                        ... NOT USED
CABS basis                                  ... NOT available
Auxiliary Coulomb fitting basis             ... AVAILABLE
   # of basis functions in Aux-J            ...    426
   # of shells in Aux-J                     ...    150
   Maximum angular momentum in Aux-J        ...      4
Auxiliary J/K fitting basis                 ... NOT available
Auxiliary Correlation fitting basis         ... NOT available
Auxiliary 'external' fitting basis          ... NOT available

Checking pre-screening integrals            ... done (  0.0 sec) Dimension = 91
Check shell pair data                       ... done (  0.0 sec)
Shell pair information
Shell pair cut-off parameter TPreSel        ...   1.0e-12
Total number of shell pairs                 ...      4186
Shell pairs after pre-screening             ...      3935
Total number of primitive shell pairs       ...     14533
Primitive shell pairs kept                  ...     10175
          la=0 lb=0:   1379 shell pairs
          la=1 lb=0:   1527 shell pairs
          la=1 lb=1:    439 shell pairs
          la=2 lb=0:    361 shell pairs
          la=2 lb=1:    201 shell pairs
          la=2 lb=2:     28 shell pairs

Calculating one electron integrals          ... done (  0.0 sec)
Calculating RI/J V-Matrix + Cholesky decomp.... done (  0.1 sec)
Calculating Nuclear repulsion               ... done (  0.0 sec) ENN=    257.785029811972 Eh

Diagonalization of the overlap matrix:
Smallest eigenvalue                        ... 1.996e-04
Time for diagonalization                   ...    0.003 sec
Threshold for overlap eigenvalues          ... 1.000e-07
Number of eigenvalues below threshold      ... 0
Time for construction of square roots      ...    0.016 sec
Total time needed                          ...    0.031 sec

-------------------
DFT GRID GENERATION
-------------------

General Integration Accuracy     IntAcc      ... 4.388
Radial Grid Type                 RadialGrid  ... OptM3 with GC (2021)
Angular Grid (max. ang.)         AngularGrid ... 4 (Lebedev-302)
Angular grid pruning method      GridPruning ... 4 (adaptive)
Weight generation scheme         WeightScheme... mBecke (2022)
Basis function cutoff            BFCut       ... 1.0000e-11
Integration weight cutoff        WCut        ... 1.0000e-14
Partially contracted basis set               ... off
Rotationally invariant grid construction     ... off
Angular grids for H and He will be reduced by one unit
Diffuse basis detected: some atoms will have their outermost
                        angular grid increased by 1.

Total number of grid points                  ...    74840
Total number of batches                      ...     1178
Average number of points per batch           ...       63
Average number of grid points per atom       ...     4158
Initializing property integral containers    ... done (  0.1 sec)

SHARK setup successfully completed in   1.2 seconds

Maximum memory used throughout the entire STARTUP-calculation: 32.5 MB
Occupation numbers will be reassigned to an Aufbau configuration
             **** ENERGY FILE WAS UPDATED (xtb_opt.en.tmp) ****
Finished Guess after   0.3 sec
Maximum memory used throughout the entire GUESS-calculation: 12.3 MB
--------------------
CPCM SOLVATION MODEL
--------------------
CPCM parameters:
  Epsilon                                         ...      78.3550
  Refrac                                          ...       1.3328
  Rsolv                                           ...       1.3000
  Surface type                                    ... GAUSSIAN VDW
  Discretization scheme                           ... Constant charge density
    Threshold for H atoms                         ...       5.0000 (charges/Ang^2)
    Threshold for non-H atoms                     ...       5.0000 (charges/Ang^2)
  Epsilon function type                           ...         CPCM
Solvent:                                          ... WATER
SMD-CDS solvent descriptors:
  Soln                                            ...       1.3328
  Soln25                                          ...       1.3323
  Sola                                            ...       0.0000
  Solb                                            ...       0.0000
  Solg                                            ...       0.0000
  Solc                                            ...       0.0000
  Solh                                            ...       0.0000
Radii:
  Scheme                                          ... Element-dependent radii
  Radius for C  used is    3.4960 Bohr (=   1.8500 Ang.)
  Radius for H  used is    2.2677 Bohr (=   1.2000 Ang.)
  Radius for O  used is    2.8724 Bohr (=   1.5200 Ang.)
Calculating surface                               ...        done! (  0.0s)
Cavity surface points                             ...         1324
Cavity Volume                                     ...     736.2233
Cavity Surface-area                               ...     496.2246
Calculating surface distance matrix               ...        done! (  0.0s)
Performing Cholesky decomposition & store         ...        done! (  0.1s)
Overall time for CPCM initialization              ...                 0.1s

----------------------------------------D-I-I-S--------------------------------------------
Iteration    Energy (Eh)           Delta-E    RMSDP     MaxDP     DIISErr   Damp  Time(sec)
-------------------------------------------------------------------------------------------
               ***  Starting incremental Fock matrix formation  ***
                              *** Initializing SOSCF ***
---------------------------------------S-O-S-C-F--------------------------------------
Iteration    Energy (Eh)           Delta-E    RMSDP     MaxDP     MaxGrad    Time(sec)
--------------------------------------------------------------------------------------
    1    -272.9165348755586820     0.00e+00  1.34e-06  4.80e-05  2.77e-06     2.8
               *** Restarting incremental Fock matrix formation ***
    2    -272.9165348747523012     8.06e-10  2.16e-06  8.87e-05  1.73e-05     2.7
                  *** Gradient check signals convergence ***

               *****************************************************
               *                     SUCCESS                       *
               *           SCF CONVERGED AFTER   2 CYCLES          *
               *****************************************************


SMD CDS free energy correction energy :                 3.41985     Kcal/mol
Total Energy after SMD CDS correction =              -272.911084989 Eh
             **** ENERGY FILE WAS UPDATED (xtb_opt.en.tmp) ****

----------------
TOTAL SCF ENERGY
----------------

Total Energy       :       -272.91108498949927 Eh           -7426.28817 eV

Components:
Nuclear Repulsion  :        257.78502981197175 Eh            7014.68728 eV
Electronic Energy  :       -530.68739025609261 Eh          -14440.73804 eV
One Electron Energy:       -879.43191568684983 Eh          -23930.55903 eV
Two Electron Energy:        348.74452543075722 Eh            9489.82099 eV
CPCM Dielectric    :         -0.01417443063146 Eh              -0.38571 eV
SMD CDS (Gcds)     :          0.00544988525304 Eh               0.14830 eV

Virial components:
Potential Energy   :       -544.44911823829239 Eh          -14815.21370 eV
Kinetic Energy     :        271.53803324879311 Eh            7388.92553 eV
Virial Ratio       :          2.00505657245977

DFT components:
N(Alpha)           :       25.000033924527 electrons
N(Beta)            :       25.000033924527 electrons
N(Total)           :       50.000067849054 electrons
E(X)               :      -38.549188879385 Eh       
E(C)               :       -1.561062528594 Eh       
E(XC)              :      -40.110251407979 Eh       

CPCM Solvation Model Properties:
Surface-charge          :         -0.04683676246767
Corrected charge        :          0.00000000000000
Outlying charge corr.   :          0.00018121933530 Eh               0.00493 eV
Free-energy (cav+disp)  :          0.00544988525304 Eh               0.14830 eV

---------------
SCF CONVERGENCE
---------------

  Last Energy change         ...   -8.0638e-10  Tolerance :   1.0000e-07
  Last MAX-Density change    ...    8.8719e-05  Tolerance :   1.0000e-07
  Last RMS-Density change    ...    2.1578e-06  Tolerance :   5.0000e-09
  Last DIIS Error            ...    5.5431e-05  Tolerance :   1.0000e-07
  Last Orbital Gradient      ...    1.7284e-05  Tolerance :   1.0000e-04
  Last Orbital Rotation      ...    1.6424e-05  Tolerance :   1.0000e-04


----------------
ORBITAL ENERGIES
----------------

  NO   OCC          E(Eh)            E(eV) 
   0   2.0000     -18.949586      -515.6445 
   1   2.0000     -10.067026      -273.9377 
   2   2.0000     -10.026648      -272.8390 
   3   2.0000     -10.017033      -272.5773 
   4   2.0000     -10.011934      -272.4386 
   5   2.0000     -10.010594      -272.4021 
   6   2.0000      -0.978426       -26.6243 
   7   2.0000      -0.766713       -20.8633 
   8   2.0000      -0.690670       -18.7941 
   9   2.0000      -0.632644       -17.2151 
  10   2.0000      -0.586405       -15.9569 
  11   2.0000      -0.526506       -14.3270 
  12   2.0000      -0.459270       -12.4974 
  13   2.0000      -0.428992       -11.6735 
  14   2.0000      -0.409952       -11.1554 
  15   2.0000      -0.388031       -10.5589 
  16   2.0000      -0.378746       -10.3062 
  17   2.0000      -0.353141        -9.6095 
  18   2.0000      -0.341835        -9.3018 
  19   2.0000      -0.319729        -8.7003 
  20   2.0000      -0.314660        -8.5623 
  21   2.0000      -0.296552        -8.0696 
  22   2.0000      -0.284184        -7.7330 
  23   2.0000      -0.275198        -7.4885 
  24   2.0000      -0.237830        -6.4717 
  25   0.0000       0.073865         2.0100 
  26   0.0000       0.098099         2.6694 
  27   0.0000       0.121431         3.3043 
  28   0.0000       0.129165         3.5148 
  29   0.0000       0.139715         3.8018 
  30   0.0000       0.145121         3.9489 
  31   0.0000       0.151897         4.1333 
  32   0.0000       0.160314         4.3624 
  33   0.0000       0.169886         4.6228 
  34   0.0000       0.176959         4.8153 
  35   0.0000       0.182344         4.9618 
*Only the first 10 virtual orbitals were printed.
Total SCF time: 0 days 0 hours 0 min 6 sec 
Finished LeanSCF after   6.3 sec

Maximum memory used throughout the entire LEANSCF-calculation: 23.9 MB


-------------------------------------------------------------------------------
                          DFT DISPERSION CORRECTION                            
                                                                               
                                DFTD4 V3.4.0                                   
-------------------------------------------------------------------------------
-------------------------   ----------------
Dispersion correction           -0.004338205
-------------------------   ----------------

------------------   -----------------
gCP correction             0.009709924
------------------   -----------------

-------------------------   --------------------
FINAL SINGLE POINT ENERGY      -272.905713271106
-------------------------   --------------------

------------------------------------------------------------------------------
                         ORCA SCF GRADIENT CALCULATION
------------------------------------------------------------------------------

Nuc. rep. gradient        (SHARK) ... done (  0.0 sec)
HCore & Overlap gradient  (SHARK) ... done (  0.2 sec)
Split-RIJ-J gradient      (SHARK) ... done (  1.1 sec)
XC gradient                       ... done (  5.7 sec)
CPCM gradient                     ... done (  0.7 sec)
SMD gradient                      ... done (  0.0 sec)
Dispersion correction             ... done (  0.0 sec)

-------------------
DISPERSION GRADIENT
-------------------

   1   C   :   -0.000085613    0.000044848    0.000008810
   2   C   :   -0.000028071    0.000035019   -0.000019847
   3   C   :    0.000014326   -0.000013458    0.000008393
   4   H   :    0.000007299   -0.000003691    0.000012083
   5   C   :   -0.000012457   -0.000080190   -0.000000012
   6   C   :    0.000061168   -0.000017717   -0.000008456
   7   O   :    0.000083517    0.000033906    0.000023220
   8   H   :   -0.000035203    0.000013462    0.000001386
   9   H   :   -0.000034042    0.000023894    0.000012149
  10   H   :   -0.000030339    0.000023905   -0.000002583
  11   H   :   -0.000005341    0.000027071   -0.000005163
  12   H   :   -0.000016375    0.000014019   -0.000019012
  13   H   :   -0.000000453   -0.000041636    0.000008110
  14   H   :   -0.000004276   -0.000037038   -0.000009843
  15   H   :   -0.000015543   -0.000034171    0.000006102
  16   H   :    0.000032311    0.000001882   -0.000009440
  17   H   :    0.000032193   -0.000004064    0.000001328
  18   H   :    0.000036899    0.000013960   -0.000007225

Difference to translation invariance:
           :   -0.0000000000    0.0000000000    0.0000000000

Difference to rotation invariance:
           :    0.0000000000   -0.0000000000   -0.0000000000

Norm of the Dispersion gradient    ...    0.0002163750
RMS gradient                       ...    0.0000294449
MAX gradient                       ...    0.0000856132
gCP correction                   ... done

------------------
CARTESIAN GRADIENT
------------------

   1   C   :   -0.000182195    0.000262904   -0.000161685
   2   C   :    0.000121778   -0.000087529    0.000007014
   3   C   :   -0.000170343   -0.000021804    0.000038567
   4   H   :    0.000051950    0.000003051    0.000041487
   5   C   :    0.000056528   -0.000100850   -0.000021324
   6   C   :    0.000460078    0.000690317    0.000018117
   7   O   :   -0.000326239   -0.000570471   -0.000012482
   8   H   :   -0.000010761   -0.000276971    0.000097239
   9   H   :    0.000069890    0.000144776    0.000262009
  10   H   :   -0.000047364   -0.000127168   -0.000100899
  11   H   :    0.000159176    0.000040621    0.000125612
  12   H   :   -0.000008072    0.000052966   -0.000140117
  13   H   :   -0.000143304   -0.000003373    0.000114509
  14   H   :    0.000058919   -0.000094021   -0.000027413
  15   H   :   -0.000107865    0.000081483   -0.000078696
  16   H   :   -0.000086188   -0.000010164   -0.000140530
  17   H   :    0.000023913   -0.000139443   -0.000092514
  18   H   :    0.000080099    0.000155679    0.000071105

Difference to translation invariance:
           :    0.0000000000   -0.0000000000   -0.0000000000

Difference to rotation invariance:
           :    0.0000393389    0.0001958868   -0.0003245579

Norm of the Cartesian gradient     ...    0.0013259647
RMS gradient                       ...    0.0001804409
MAX gradient                       ...    0.0006903166

-------
TIMINGS
-------

Total SCF gradient time     ....        8.356 sec

Densities                   ....       0.000 sec  (  0.0%)
One electron gradient       ....       0.227 sec  (  2.7%)
RI-J Coulomb gradient       ....       1.133 sec  ( 13.6%)
XC gradient                 ....       5.723 sec  ( 68.5%)
CPCM gradient               ....       0.660 sec  (  7.9%)
   A-Matrix (El+Nuc)        ....       0.059 sec  (  0.7%)
   Potential                ....       0.601 sec  (  7.2%)
SMD gradient                ....       0.015 sec  (  0.2%)

Maximum memory used throughout the entire SCFGRAD-calculation: 32.4 MB

------------------------------------------------------------------------------
                              ORCA PROPERTY CALCULATIONS
------------------------------------------------------------------------------

GBWName                                 ... xtb_opt.gbw
Number of atoms                         ...     18
Number of basis functions               ...    179
Max core memory                         ...   1024 MB

Electric properties:
Dipole moment                           ... YES
Quadrupole moment                       ...  NO
Static polarizability (Dipole/Dipole)   ...  NO
Static polarizability (Dipole/Quad.)    ...  NO
Static polarizability (Quad./Quad.)     ...  NO
Static polarizability (Velocity)        ...  NO

Atomic electric properties:
Dipole moment                           ...  NO
Quadrupole moment                       ...  NO
Static polarizability                   ...  NO

Choice of electric origin               ... Center of mass
Position of electric origin             ...     0.022326     0.003672    -0.007558

General magnetic properties:
Magnetizability                         ...  NO

EPR properties:
g-Tensor (aka g-matrix)                 ...  NO
Zero-Field splitting spin-orbit         ...  NO
Zero-field splitting spin-spin          ...  NO
Hyperfine couplings                     ...  NO (   0 nuclei)
Quadrupole couplings                    ...  NO (   0 nuclei)
Contact density                         ...  NO (   0 nuclei)

NMR properties:
Chemical shifts                         ...  NO (   0 nuclei)
Spin-rotation constants                 ...  NO (   0 nuclei)
Spin-spin couplings                     ...  NO (   0 nuclei,    0 pairs)

Choice of magnetic origin               ... GIAO
Position of magnetic origin             ...     0.000000     0.000000     0.000000

Properties with geometric perturbations:
SCF Hessian                             ...  NO
IR spectrum                             ...  NO
VCD spectrum                            ...  NO
X-ray spectroscopy properties:
SCF XES/XAS/RIXS spectra                ...  NO


-------------
DIPOLE MOMENT
-------------

Method             : SCF
Type of density    : Electron Density
Multiplicity       :   1
Irrep              :   0
Energy             :  -272.9110849894992725 Eh
Relativity type    : 
Basis              : AO
                                X                 Y                 Z
Electronic contribution:      5.021875243       1.712645897       0.238069548
Nuclear contribution   :     -5.427332114      -2.265501624       0.384118355
                        -----------------------------------------
Total Dipole Moment    :     -0.405456871      -0.552855728       0.622187902
                        -----------------------------------------
Magnitude (a.u.)       :      0.925830717
Magnitude (Debye)      :      2.353274664



--------------------
Rotational spectrum 
--------------------
 
Rotational constants in cm-1:             0.157402             0.076734             0.056498 
Rotational constants in MHz :          4718.806253          2300.426744          1693.777846 

Dipole components along the rotational axes: 
x,y,z [a.u.] :    -0.410485    -0.566050     0.606838 
x,y,z [Debye]:    -1.043369    -1.438786     1.542459 

 

Dipole moment calculation done in   0.0 sec 

Maximum memory used throughout the entire PROP-calculation: 10.7 MB

--------------------------------
SUGGESTED CITATIONS FOR THIS RUN
--------------------------------

Below you find a list of papers that are relevant to this ORCA run
We neither can nor want to force you to cite these papers, but we appreciate if you do
You receive ORCA, which is the product of decades of hard work by many enthusiastic individuals, for free
The only thing we kindly ask in return is that you cite our papers,
We deeply appreciate it, if you show your appreciation for ORCA by not just citing the generic ORCA reference.

Please note that relegating all ORCA citations to the supporting information does *not* help us.
SI sections are not indexed - citations you put there will not count into any citation statistics
But we need these citations in order to attract the funding resources that allow us to do what we are doing

Therefore, if you are a happy ORCA user, please consider citing a few of the papers listed below in the main body of your paper

In addition to the list printed below, the program has created the file xtb_opt.bibtex that contains the list in bibtex format
You can import this file easily into all common literature databanks and citation aid programs


List of essential papers. We consider these as the minimum necessary citations

  1. Neese,F.
     Software update: the ORCA program system, version 5.0
     WIRES Comput. Molec. Sci., 2022 12(1)e1606
     doi.org/10.1002/wcms.1606
  2. Grimme,S.; Hansen,A.; Ehlert,S.; Mewes,J.
     r2SCAN-3c: A 'Swiss army knife' composite electronic-structure method
     J. Chem. Phys., 2021 154 064103
     doi.org/10.1063/5.0040021

List of papers to cite with high priority. The work reported in these papers was absolutely
necessary for this run to complete.
Our perspective: the developers of density functionals and basis sets usually get cited in chemistry papers
Good! But without the algorithms to do something with them, the functionals or basis sets would not do anything.
Hence, in our opinion, the algorithm design and method developments papers are equally worthy of getting cited

  1. Neese,F.
     An improvement of the resolution of the identity approximation for the formation of the Coulomb matrix
     J. Comp. Chem., 2003 24(14)1740-1747
     doi.org/10.1002/jcc.10318
  2. Garcia-Rates,M.; Neese,F.
     Effect of the Solute Cavity on the Solvation Energy and its Derivatives within the Framework of the Gaussian Charge Scheme
     J. Comput. Chem., 2020 41 922-939
     doi.org/10.1002/jcc.26139
  3. Neese,F.
     The SHARK Integral Generation and Digestion System
     J. Comp. Chem., 2022  1-16
     doi.org/10.1002/jcc.26942
  4. Lehtola,S.; Steigemann,C.; Oliveira,M.; Marques,M.
     Recent developments in Libxc - A comprehensive library of functionals for density functional theory
     Software X, 2018 7 
     doi.org/10.1016/j.softx.2017.11.002
  5. Caldeweyher,E.; Bannwarth,C.; Grimme,S.
     Extension of the D3 dispersion coefficient model
     J. Chem. Phys., 2017 147 034112-XXXX
     doi.org/10.1063/1.4993215
  6. Caldeweyher,E.; Ehlert,S.; Hansen,A.; Neugebauer,H.; Spicher,S.; Bannwarth,C.; Grimme,S.
     A generally applicable atomic-charge dependent London dispersion correction
     J. Chem. Phys., 2019 150 154122-XXXX
     doi.org/10.1063/1.5090222
  7. Caldeweyher,E.; Mewes,J.; Ehlert,S.; Grimme,S.
     Extension and evaluation of the D4 London-dispersion model for periodic systems
     Phys. Chem. Chem. Phys., 2020 22(16)8499-8512
     doi.org/10.1039/D0CP00502A

List of suggested additional citations. These are papers that are important in the 'surrounding' of 
of this run, or papers that preceded the highly important papers. If you like your results we are grateful for a citation.

  1. Neese,F.
     The ORCA program system
     WIRES Comput. Molec. Sci., 2012 2(1)73-78
     doi.org/10.1002/wcms.81
  2. Neese,F.
     Software update: the ORCA program system, version 4.0
     WIRES Comput. Molec. Sci., 2018 8(1)1-6
     doi.org/10.1002/wcms.1327
  3. Neese,F.; Wennmohs,F.; Becker,U.; Riplinger,C.
     The ORCA quantum chemistry program package
     J. Chem. Phys., 2020 152 Art. No. L224108
     doi.org/10.1063/5.0004608

List of optional additional citations

  1. Neese,F.
     Approximate second-order SCF convergence for spin unrestricted wavefunctions
     Chem. Phys. Lett., 2000 325(1-3)93-98
     doi.org/10.1016/s0009-2614(00)00662-x

Timings for individual modules:

Sum of individual times          ...       16.498 sec (=   0.275 min)
Startup calculation              ...        1.246 sec (=   0.021 min)   7.6 %
SCF iterations                   ...        6.692 sec (=   0.112 min)  40.6 %
Property calculations            ...        0.100 sec (=   0.002 min)   0.6 %
SCF Gradient evaluation          ...        8.460 sec (=   0.141 min)  51.3 %
                             ****ORCA TERMINATED NORMALLY****
TOTAL RUN TIME: 0 days 0 hours 0 minutes 17 seconds 415 msec
  ------------------------------------------------------------------------
          * successful ORCA run, taking over control again...

         :::::::::::::::::::::::::::::::::::::::::::::::::::::
         ::                  ORCA SUMMARY                   ::
         :::::::::::::::::::::::::::::::::::::::::::::::::::::
         :: total energy            -272.905713271106 Eh    ::
         :: gradient norm              0.001325964737 Eh/a0 ::
         :: HOMO-LUMO gap              0.000000000000 eV    ::
         :::::::::::::::::::::::::::::::::::::::::::::::::::::

      ----------------------------------------------------------- 
     |                       L-ANC optimizer                     |
      ----------------------------------------------------------- 
          low memory version by Sebastian Ehlert

          ...................................................
          :                      SETUP                      :
          :.................................................:
          :   energy convergence        0.5000000E-05 Eh    :
          :   grad. convergence         0.1000000E-02 Eh/a0 :
          :   optimization log               true           :
          :   writing optlog all                1     steps :
          :   Hessian reset                     8     steps :
          :   maximium step len.        1.0000000     a0    :
          :   LBFGS images                      8           :
          ...................................................
 * calculating model hessian...
Using Lindh-Hessian (1995)
 Shifting diagonal of input Hessian by   1.000000000000000E-002
 Lowest  eigenvalues of input Hessian
    0.000000    0.000000    0.000000    0.000000    0.000000    0.000000
    0.013068    0.014677    0.016690    0.018530    0.018810    0.021135
    0.025131    0.030659    0.034103    0.052152    0.058507    0.061641
 Highest eigenvalues
    1.158117    1.190807    1.198725    1.267324    1.285768    1.422168
 

........................................................................
.............................. CYCLE    1 ..............................
........................................................................
                         * ORCA takes the control...
  ------------------------------------------------------------------------

                                 *****************
                                 * O   R   C   A *
                                 *****************

                                            #,                                       
                                            ###                                      
                                            ####                                     
                                            #####                                    
                                            ######                                   
                                           ########,                                 
                                     ,,################,,,,,                         
                               ,,#################################,,                 
                          ,,##########################################,,             
                       ,#########################################, ''#####,          
                    ,#############################################,,   '####,        
                  ,##################################################,,,,####,       
                ,###########''''           ''''###############################       
              ,#####''   ,,,,##########,,,,          '''####'''          '####       
            ,##' ,,,,###########################,,,                        '##       
           ' ,,###''''                  '''############,,,                           
         ,,##''                                '''############,,,,        ,,,,,,###''
      ,#''                                            '''#######################'''  
     '                                                          ''''####''''         
             ,#######,   #######,   ,#######,      ##                                
            ,#'     '#,  ##    ##  ,#'     '#,    #''#        ,####,   ,####,        
            ##       ##  ##   ,#'  ##            #'  '#       #'       #'  '#        
            ##       ##  #######   ##           ,######,      #####,   #    #        
            '#,     ,#'  ##    ##  '#,     ,#' ,#      #,     #,   #   #,  ,#        
             '#######'   ##     ##  '#######'  #'      '#     '####' # '####'        



                #########################################################
                #                        -***-                          #
                #          Department of theory and spectroscopy        #
                #                                                       #
                #                      Frank Neese                      #
                #                                                       #
                #     Directorship, Architecture, Infrastructure        #
                #                    SHARK, DRIVERS                     #
                #        Core code/Algorithms in most modules           #
                #                                                       #
                #        Max Planck Institute fuer Kohlenforschung      #
                #                Kaiser Wilhelm Platz 1                 #
                #                 D-45470 Muelheim/Ruhr                 #
                #                      Germany                          #
                #                                                       #
                #                  All rights reserved                  #
                #                        -***-                          #
                #########################################################


                         Program Version 6.0.0  -   RELEASE  -


 With contributions from (in alphabetic order):
   Daniel Aravena         : Magnetic Suceptibility
   Michael Atanasov       : Ab Initio Ligand Field Theory (pilot matlab implementation)
   Alexander A. Auer      : GIAO ZORA, VPT2 properties, NMR spectrum
   Ute Becker             : All parallelization in ORCA, NUMFREQ, NUMCALC
   Giovanni Bistoni       : ED, misc. LED, open-shell LED, HFLD
   Martin Brehm           : Molecular dynamics
   Dmytro Bykov           : pre 5.0 version of the SCF Hessian
   Marcos Casanova-Páez   : Triplet and SCS-CIS(D). UHF-(DLPNO)-IP/EA/STEOM-CCSD. UHF-CVS-IP/STEOM-CCSD
   Vijay G. Chilkuri      : MRCI spin determinant printing, contributions to CSF-ICE
   Pauline Colinet        : FMM embedding
   Dipayan Datta          : RHF DLPNO-CCSD density
   Achintya Kumar Dutta   : EOM-CC, STEOM-CC
   Nicolas Foglia         : Exact transition moments, OPA infrastructure, MCD improvements
   Dmitry Ganyushin       : Spin-Orbit,Spin-Spin,Magnetic field MRCI
   Miquel Garcia          : C-PCM and meta-GGA Hessian, CCSD/C-PCM, Gaussian charge scheme
   Tiago L. C. Gouveia    : GS-ROHF, GS-ROCIS
   Yang Guo               : DLPNO-NEVPT2, F12-NEVPT2, CIM, IAO-localization
   Andreas Hansen         : Spin unrestricted coupled pair/coupled cluster methods
   Ingolf Harden          : AUTO-CI MPn and infrastructure 
   Benjamin Helmich-Paris : MC-RPA, TRAH-(SCF,CASSCF), AVAS, COSX integrals, SCF dyn. polar.
   Lee Huntington         : MR-EOM, pCC
   Robert Izsak           : Overlap fitted RIJCOSX, COSX-SCS-MP3, EOM
   Riya Kayal             : Wick's Theorem for AUTO-CI, AUTO-CI UHF-CCSDT
   Emily Kempfer          : AUTO-CI, RHF CISDT and CCSDT
   Christian Kollmar      : KDIIS, OOCD, Brueckner-CCSD(T), CCSD density, CASPT2, CASPT2-K, improved NEVPT2
   Axel Koslowski         : Symmetry handling
   Simone Kossmann        : Meta GGA functionals, TD-DFT gradient, OOMP2, (MP2 Hessian; deprecated post 5.0)
   Lucas Lang             : DCDCAS
   Marvin Lechner         : AUTO-CI (C++ implementation), FIC-MRCC
   Spencer Leger          : CASSCF response
   Dagmar Lenk            : GEPOL surface, SMD, ORCA-2-JSON
   Dimitrios Liakos       : Extrapolation schemes; Compound Job, initial MDCI parallelization
   Dimitrios Manganas     : Further ROCIS development; embedding schemes. LFT, Crystal Embedding
   Dimitrios Pantazis     : SARC Basis sets
   Anastasios Papadopoulos: AUTO-CI, single reference methods and gradients
   Taras Petrenko         : pre 6.0 DFT Hessian and TD-DFT gradient, (ASA, deprecated), ECA, 1-Electron XAS/XES, NRVS
   Peter Pinski           : DLPNO-MP2, DLPNO-MP2 Gradient
   Christoph Reimann      : Effective Core Potentials
   Marius Retegan         : Local ZFS, SOC
   Christoph Riplinger    : Optimizer, TS searches, QM/MM, DLPNO-CCSD(T), (RO)-DLPNO pert. Triples
   Michael Roemelt        : Original ROCIS implementation
   Masaaki Saitow         : Open-shell DLPNO-CCSD energy and density
   Barbara Sandhoefer     : DKH picture change effects
   Kantharuban Sivalingam : CASSCF convergence/infrastructure, NEVPT2 and variants, FIC-MRCI
   Bernardo de Souza      : ESD, SOC TD-DFT
   Georgi Stoychev        : AutoAux, RI-MP2 NMR, DLPNO-MP2 response, X2C
   Van Anh Tran           : RI-MP2 g-tensors
   Willem Van den Heuvel  : Paramagnetic NMR
   Zikuan Wang            : NOTCH, Electric field optimization 
   Frank Wennmohs         : Technical directorship and infrastructure
   Hang Xu                : AUTO-CI-Response properties 


 We gratefully acknowledge several colleagues who have allowed us to
 interface, adapt or use parts of their codes:
   Stefan Grimme, W. Hujo, H. Kruse, P. Pracht,  : VdW corrections, initial TS optimization,
                  C. Bannwarth, S. Ehlert,         DFT functionals, gCP, sTDA/sTD-DF
                  L. Wittmann, M. Mueller
   Ed Valeev, F. Pavosevic, A. Kumar             : LibInt (2-el integral package), F12 methods
   Garnet Chan, S. Sharma, J. Yang, R. Olivares  : DMRG
   Ulf Ekstrom                                   : XCFun DFT Library
   Mihaly Kallay                                 : mrcc  (arbitrary order and MRCC methods)
   Frank Weinhold                                : gennbo (NPA and NBO analysis)
   Simon Mueller                                 : openCOSMO-RS
   Christopher J. Cramer and Donald G. Truhlar   : smd solvation model
   Lars Goerigk                                  : TD-DFT with DH, B97 family of functionals
   V. Asgeirsson, H. Jonsson                     : NEB implementation
   FAccTs GmbH                                   : IRC, NEB, NEB-TS, DLPNO-Multilevel, CI-OPT
                                                   MM, QMMM, 2- and 3-layer-ONIOM, Crystal-QMMM,
                                                   LR-CPCM, SF, NACMEs, symmetry and pop. for TD-DFT,
                                                   nearIR, NL-DFT gradient (VV10), updates on ESD,
                                                   ML-optimized integration grids, MBIS, APM,
                                                   GOAT, DOCKER, SOLVATOR, interface openCOSMO-RS
   S Lehtola, MJT Oliveira, MAL Marques          : LibXC Library
   Liviu Ungur et al                             : ANISO software


 Your calculation uses the libint2 library for the computation of 2-el integrals
 For citations please refer to: http://libint.valeyev.net

 Your ORCA version has been built with support for libXC version: 6.2.2
 For citations please refer to: https://libxc.gitlab.io

 This ORCA versions uses:
   CBLAS   interface :  Fast vector & matrix operations
   LAPACKE interface :  Fast linear algebra routines
   SCALAPACK package :  Parallel linear algebra routines
   Shared memory     :  Shared parallel matrices
   BLAS/LAPACK       :  OpenBLAS 0.3.27  USE64BITINT DYNAMIC_ARCH NO_AFFINITY SkylakeX SINGLE_THREADED
        Core in use  :  SkylakeX
   Copyright (c) 2011-2014, The OpenBLAS Project




***************************************
The coordinates will be read from file: xtb_opt.xyz
***************************************


Your calculation utilizes the geometrical counterpoise correction gCP
Please cite in your paper:
H.Kruse, S. Grimme J.Chem.Phys., 136, (2012), 154101 
   

Your calculation utilizes the atom-pairwise dispersion correction
based on EEQ partial charges (D4)


Your calculation utilizes the SMD solvation module
Please cite in your paper:
A.V. Marenich, C.J. Cramer, D.G. Truhlar J. Phys. Chem. B, 113, (2009), 6378 

================================================================================

----- Orbital basis set information -----
Your calculation utilizes the basis: def2-mTZVPP
   Stefan Grimme, Andreas Hansen, Sebastian Ehlert, and Jan-Michael Mewes 
   J. Chem. Phys. 154, 064103 (2021). DOI: 10.1063/5.0040021

----- AuxJ basis set information -----
Your calculation utilizes the auxiliary basis: def2/J
   F. Weigend, Phys. Chem. Chem. Phys. 8, 1057 (2006).

================================================================================
                                        WARNINGS
                       Please study these warnings very carefully!
================================================================================

WARNING: Old DensityContainer found on disk!
         Will remove this file - 
         If you want to keep old densities, please start your calculation with a different basename. 

Using LibXC functional ID 497 : Re-regularized SCAN exchange by Furness et al
[ 1]  J. W. Furness, A. D. Kaplan, J. Ning, J. P. Perdew, and J. Sun.,  J. Phys. Chem. Lett. 11, 8208-8215 (2020)
[ 2]  J. W. Furness, A. D. Kaplan, J. Ning, J. P. Perdew, and J. Sun.,  J. Phys. Chem. Lett. 11, 9248-9248 (2020)
Using LibXC functional ID 498 : Re-regularized SCAN correlation by Furness et al
[ 1]  J. W. Furness, A. D. Kaplan, J. Ning, J. P. Perdew, and J. Sun.,  J. Phys. Chem. Lett. 11, 8208-8215 (2020)
[ 2]  J. W. Furness, A. D. Kaplan, J. Ning, J. P. Perdew, and J. Sun.,  J. Phys. Chem. Lett. 11, 9248-9248 (2020)
Using LibXC functional ID 497 : Re-regularized SCAN exchange by Furness et al
[ 1]  J. W. Furness, A. D. Kaplan, J. Ning, J. P. Perdew, and J. Sun.,  J. Phys. Chem. Lett. 11, 8208-8215 (2020)
[ 2]  J. W. Furness, A. D. Kaplan, J. Ning, J. P. Perdew, and J. Sun.,  J. Phys. Chem. Lett. 11, 9248-9248 (2020)
Using LibXC functional ID 498 : Re-regularized SCAN correlation by Furness et al
[ 1]  J. W. Furness, A. D. Kaplan, J. Ning, J. P. Perdew, and J. Sun.,  J. Phys. Chem. Lett. 11, 8208-8215 (2020)
[ 2]  J. W. Furness, A. D. Kaplan, J. Ning, J. P. Perdew, and J. Sun.,  J. Phys. Chem. Lett. 11, 9248-9248 (2020)

================================================================================
                                       INPUT FILE
================================================================================
NAME = xtb_opt.inp
|  1> ! r2scan-3c def2/J RI DEFGRID2 scfconv7 ENGRAD tightSCF miniprint
|  2> %cpcm
|  3>     smd true
|  4>     smdsolvent "water"
|  5> end
|  6> * xyzfile 0 1 xtb_opt.xyz
|  7> 
|  8>                          ****END OF INPUT****
================================================================================

                     *******************************
                     * Energy+Gradient Calculation *
                     *******************************

---------------------------------
CARTESIAN COORDINATES (ANGSTROEM)
---------------------------------
  C     -2.246836    0.880641    0.157945
  C     -0.846495    0.702375   -0.423657
  C     -0.014336   -0.382013    0.271585
  H     -0.003611   -0.174119    1.353233
  C     -0.587551   -1.782583    0.050081
  C      1.434127   -0.362506   -0.213209
  O      2.120145    0.870663    0.072542
  H     -2.853592   -0.023698    0.050273
  H     -2.197806    1.126302    1.224973
  H     -2.778500    1.694026   -0.346443
  H     -0.311047    1.656467   -0.354633
  H     -0.914688    0.456628   -1.492916
  H      0.005949   -2.539694    0.573774
  H     -0.588912   -2.033065   -1.017955
  H     -1.615790   -1.859620    0.413740
  H      1.463992   -0.473860   -1.303906
  H      1.985153   -1.206060    0.227617
  H      2.132584    0.971987    1.033162

----------------------------
CARTESIAN COORDINATES (A.U.)
----------------------------
  NO LB      ZA    FRAG     MASS         X           Y           Z
   0 C     6.0000    0    12.011   -4.245905    1.664170    0.298474
   1 C     6.0000    0    12.011   -1.599644    1.327296   -0.800597
   2 C     6.0000    0    12.011   -0.027091   -0.721900    0.513221
   3 H     1.0000    0     1.008   -0.006824   -0.329038    2.557240
   4 C     6.0000    0    12.011   -1.110310   -3.368595    0.094640
   5 C     6.0000    0    12.011    2.710108   -0.685038   -0.402907
   6 O     8.0000    0    15.999    4.006493    1.645314    0.137084
   7 H     1.0000    0     1.008   -5.392507   -0.044783    0.095002
   8 H     1.0000    0     1.008   -4.153252    2.128403    2.314863
   9 H     1.0000    0     1.008   -5.250604    3.201246   -0.654683
  10 H     1.0000    0     1.008   -0.587794    3.130270   -0.670159
  11 H     1.0000    0     1.008   -1.728510    0.862901   -2.821202
  12 H     1.0000    0     1.008    0.011242   -4.799326    1.084275
  13 H     1.0000    0     1.008   -1.112882   -3.841936   -1.923656
  14 H     1.0000    0     1.008   -3.053401   -3.514173    0.781856
  15 H     1.0000    0     1.008    2.766544   -0.895465   -2.464026
  16 H     1.0000    0     1.008    3.751396   -2.279122    0.430133
  17 H     1.0000    0     1.008    4.029999    1.836790    1.952393

------------------------------------------------------------------------------
                   ___                                                        
                  /   \      - P O W E R E D   B Y -                         
                 /     \                                                     
                 |  |  |   _    _      __       _____    __    __             
                 |  |  |  | |  | |    /  \     |  _  \  |  |  /  |          
                  \  \/   | |  | |   /    \    | | | |  |  | /  /          
                 / \  \   | |__| |  /  /\  \   | |_| |  |  |/  /          
                |  |  |   |  __  | /  /__\  \  |    /   |      \           
                |  |  |   | |  | | |   __   |  |    \   |  |\   \          
                \     /   | |  | | |  |  |  |  | |\  \  |  | \   \       
                 \___/    |_|  |_| |__|  |__|  |_| \__\ |__|  \__/        
                                                                              
                      - O R C A' S   B I G   F R I E N D -                    
                                      &                                       
                       - I N T E G R A L  F E E D E R -                       
                                                                              
 v1 FN, 2020, v2 2021, v3 2022-2024                                           
------------------------------------------------------------------------------


----------------------
SHARK INTEGRAL PACKAGE
----------------------

Number of atoms                             ...     18
Number of basis functions                   ...    179
Number of shells                            ...     91
Maximum angular momentum                    ...      2
Integral batch strategy                     ... SHARK/LIBINT Hybrid
RI-J (if used) integral strategy            ... SPLIT-RIJ (Revised 2003 algorithm where possible)
Printlevel                                  ...      1
Contraction scheme used                     ... SEGMENTED contraction
Prescreening option                         ... SCHWARTZ
   Thresh                                   ... 3.000e-11
   Tcut                                     ... 1.000e-12
   Tpresel                                  ... 1.000e-12 
Coulomb Range Separation                    ... NOT USED
Exchange Range Separation                   ... NOT USED
Multipole approximations                    ... NOT USED
Finite Nucleus Model                        ... NOT USED
CABS basis                                  ... NOT available
Auxiliary Coulomb fitting basis             ... AVAILABLE
   # of basis functions in Aux-J            ...    426
   # of shells in Aux-J                     ...    150
   Maximum angular momentum in Aux-J        ...      4
Auxiliary J/K fitting basis                 ... NOT available
Auxiliary Correlation fitting basis         ... NOT available
Auxiliary 'external' fitting basis          ... NOT available

Checking pre-screening integrals            ... done (  0.0 sec) Dimension = 91
Check shell pair data                       ... done (  0.0 sec)
Shell pair information
Shell pair cut-off parameter TPreSel        ...   1.0e-12
Total number of shell pairs                 ...      4186
Shell pairs after pre-screening             ...      3935
Total number of primitive shell pairs       ...     14533
Primitive shell pairs kept                  ...     10176
          la=0 lb=0:   1379 shell pairs
          la=1 lb=0:   1527 shell pairs
          la=1 lb=1:    439 shell pairs
          la=2 lb=0:    361 shell pairs
          la=2 lb=1:    201 shell pairs
          la=2 lb=2:     28 shell pairs

Calculating one electron integrals          ... done (  0.0 sec)
Calculating RI/J V-Matrix + Cholesky decomp.... done (  0.1 sec)
Calculating Nuclear repulsion               ... done (  0.0 sec) ENN=    257.792515865267 Eh

Diagonalization of the overlap matrix:
Smallest eigenvalue                        ... 1.995e-04
Time for diagonalization                   ...    0.003 sec
Threshold for overlap eigenvalues          ... 1.000e-07
Number of eigenvalues below threshold      ... 0
Time for construction of square roots      ...    0.017 sec
Total time needed                          ...    0.032 sec

-------------------
DFT GRID GENERATION
-------------------

General Integration Accuracy     IntAcc      ... 4.388
Radial Grid Type                 RadialGrid  ... OptM3 with GC (2021)
Angular Grid (max. ang.)         AngularGrid ... 4 (Lebedev-302)
Angular grid pruning method      GridPruning ... 4 (adaptive)
Weight generation scheme         WeightScheme... mBecke (2022)
Basis function cutoff            BFCut       ... 1.0000e-11
Integration weight cutoff        WCut        ... 1.0000e-14
Partially contracted basis set               ... off
Rotationally invariant grid construction     ... off
Angular grids for H and He will be reduced by one unit
Diffuse basis detected: some atoms will have their outermost
                        angular grid increased by 1.

Total number of grid points                  ...    74839
Total number of batches                      ...     1178
Average number of points per batch           ...       63
Average number of grid points per atom       ...     4158
Initializing property integral containers    ... done (  0.0 sec)

SHARK setup successfully completed in   1.3 seconds

Maximum memory used throughout the entire STARTUP-calculation: 32.5 MB
Occupation numbers will be reassigned to an Aufbau configuration
             **** ENERGY FILE WAS UPDATED (xtb_opt.en.tmp) ****
Finished Guess after   0.3 sec
Maximum memory used throughout the entire GUESS-calculation: 12.3 MB
--------------------
CPCM SOLVATION MODEL
--------------------
CPCM parameters:
  Epsilon                                         ...      78.3550
  Refrac                                          ...       1.3328
  Rsolv                                           ...       1.3000
  Surface type                                    ... GAUSSIAN VDW
  Discretization scheme                           ... Constant charge density
    Threshold for H atoms                         ...       5.0000 (charges/Ang^2)
    Threshold for non-H atoms                     ...       5.0000 (charges/Ang^2)
  Epsilon function type                           ...         CPCM
Solvent:                                          ... WATER
SMD-CDS solvent descriptors:
  Soln                                            ...       1.3328
  Soln25                                          ...       1.3323
  Sola                                            ...       0.0000
  Solb                                            ...       0.0000
  Solg                                            ...       0.0000
  Solc                                            ...       0.0000
  Solh                                            ...       0.0000
Radii:
  Scheme                                          ... Element-dependent radii
  Radius for C  used is    3.4960 Bohr (=   1.8500 Ang.)
  Radius for H  used is    2.2677 Bohr (=   1.2000 Ang.)
  Radius for O  used is    2.8724 Bohr (=   1.5200 Ang.)
Calculating surface                               ...        done! (  0.0s)
Cavity surface points                             ...         1325
Cavity Volume                                     ...     736.2082
Cavity Surface-area                               ...     496.3142
Calculating surface distance matrix               ...        done! (  0.0s)
Performing Cholesky decomposition & store         ...        done! (  0.1s)
Overall time for CPCM initialization              ...                 0.1s

----------------------------------------D-I-I-S--------------------------------------------
Iteration    Energy (Eh)           Delta-E    RMSDP     MaxDP     DIISErr   Damp  Time(sec)
-------------------------------------------------------------------------------------------
               ***  Starting incremental Fock matrix formation  ***
                              *** Initializing SOSCF ***
---------------------------------------S-O-S-C-F--------------------------------------
Iteration    Energy (Eh)           Delta-E    RMSDP     MaxDP     MaxGrad    Time(sec)
--------------------------------------------------------------------------------------
    1    -272.9165292202604860     0.00e+00  4.22e-05  6.41e-04  8.16e-05     2.7
               *** Restarting incremental Fock matrix formation ***
    2    -272.9165422013243187    -1.30e-05  1.89e-05  2.74e-04  8.34e-05     3.1
    3    -272.9165430048227563    -8.03e-07  3.23e-06  5.53e-05  1.33e-05     2.2
                  *** Gradient check signals convergence ***

               *****************************************************
               *                     SUCCESS                       *
               *           SCF CONVERGED AFTER   3 CYCLES          *
               *****************************************************


SMD CDS free energy correction energy :                 3.41697     Kcal/mol
Total Energy after SMD CDS correction =              -272.911097722 Eh
             **** ENERGY FILE WAS UPDATED (xtb_opt.en.tmp) ****

----------------
TOTAL SCF ENERGY
----------------

Total Energy       :       -272.91109772213213 Eh           -7426.28851 eV

Components:
Nuclear Repulsion  :        257.79251586526721 Eh            7014.89099 eV
Electronic Energy  :       -530.69487193935436 Eh          -14440.94163 eV
One Electron Energy:       -879.44485835253045 Eh          -23930.91122 eV
Two Electron Energy:        348.74998641317609 Eh            9489.96959 eV
CPCM Dielectric    :         -0.01418693073562 Eh              -0.38605 eV
SMD CDS (Gcds)     :          0.00544528269061 Eh               0.14817 eV

Virial components:
Potential Energy   :       -544.45348007544476 Eh          -14815.33239 eV
Kinetic Energy     :        271.54238235331263 Eh            7389.04388 eV
Virial Ratio       :          2.00504052206126

DFT components:
N(Alpha)           :       25.000032777702 electrons
N(Beta)            :       25.000032777702 electrons
N(Total)           :       50.000065555403 electrons
E(X)               :      -38.549896589681 Eh       
E(C)               :       -1.561074746575 Eh       
E(XC)              :      -40.110971336256 Eh       

CPCM Solvation Model Properties:
Surface-charge          :         -0.04683392931611
Corrected charge        :         -0.00000000000000
Outlying charge corr.   :          0.00018120238523 Eh               0.00493 eV
Free-energy (cav+disp)  :          0.00544528269061 Eh               0.14817 eV

---------------
SCF CONVERGENCE
---------------

  Last Energy change         ...    8.0350e-07  Tolerance :   1.0000e-07
  Last MAX-Density change    ...    5.5306e-05  Tolerance :   1.0000e-07
  Last RMS-Density change    ...    3.2350e-06  Tolerance :   5.0000e-09
  Last DIIS Error            ...    1.4589e-03  Tolerance :   1.0000e-07
  Last Orbital Gradient      ...    1.3313e-05  Tolerance :   1.0000e-04
  Last Orbital Rotation      ...    2.2514e-05  Tolerance :   1.0000e-04


----------------
ORBITAL ENERGIES
----------------

  NO   OCC          E(Eh)            E(eV) 
   0   2.0000     -18.949633      -515.6457 
   1   2.0000     -10.066984      -273.9366 
   2   2.0000     -10.026651      -272.8390 
   3   2.0000     -10.017016      -272.5769 
   4   2.0000     -10.011904      -272.4378 
   5   2.0000     -10.010599      -272.4022 
   6   2.0000      -0.978298       -26.6208 
   7   2.0000      -0.766822       -20.8663 
   8   2.0000      -0.690860       -18.7993 
   9   2.0000      -0.632586       -17.2135 
  10   2.0000      -0.586468       -15.9586 
  11   2.0000      -0.526564       -14.3285 
  12   2.0000      -0.459202       -12.4955 
  13   2.0000      -0.429076       -11.6757 
  14   2.0000      -0.409968       -11.1558 
  15   2.0000      -0.388037       -10.5590 
  16   2.0000      -0.378758       -10.3065 
  17   2.0000      -0.353085        -9.6079 
  18   2.0000      -0.341970        -9.3055 
  19   2.0000      -0.319811        -8.7025 
  20   2.0000      -0.314733        -8.5643 
  21   2.0000      -0.296578        -8.0703 
  22   2.0000      -0.284215        -7.7339 
  23   2.0000      -0.275272        -7.4905 
  24   2.0000      -0.237904        -6.4737 
  25   0.0000       0.073810         2.0085 
  26   0.0000       0.098103         2.6695 
  27   0.0000       0.121449         3.3048 
  28   0.0000       0.129156         3.5145 
  29   0.0000       0.139708         3.8016 
  30   0.0000       0.145138         3.9494 
  31   0.0000       0.151897         4.1333 
  32   0.0000       0.160473         4.3667 
  33   0.0000       0.169866         4.6223 
  34   0.0000       0.176891         4.8134 
  35   0.0000       0.182443         4.9645 
*Only the first 10 virtual orbitals were printed.
Total SCF time: 0 days 0 hours 0 min 8 sec 
Finished LeanSCF after   8.8 sec

Maximum memory used throughout the entire LEANSCF-calculation: 23.9 MB


-------------------------------------------------------------------------------
                          DFT DISPERSION CORRECTION                            
                                                                               
                                DFTD4 V3.4.0                                   
-------------------------------------------------------------------------------
-------------------------   ----------------
Dispersion correction           -0.004338212
-------------------------   ----------------

------------------   -----------------
gCP correction             0.009711256
------------------   -----------------

-------------------------   --------------------
FINAL SINGLE POINT ENERGY      -272.905724677510
-------------------------   --------------------

------------------------------------------------------------------------------
                         ORCA SCF GRADIENT CALCULATION
------------------------------------------------------------------------------

Nuc. rep. gradient        (SHARK) ... done (  0.0 sec)
HCore & Overlap gradient  (SHARK) ... done (  0.2 sec)
Split-RIJ-J gradient      (SHARK) ... done (  1.1 sec)
XC gradient                       ... done (  5.6 sec)
CPCM gradient                     ... done (  0.7 sec)
SMD gradient                      ... done (  0.0 sec)
Dispersion correction             ... done (  0.0 sec)

-------------------
DISPERSION GRADIENT
-------------------

   1   C   :   -0.000085611    0.000044890    0.000008775
   2   C   :   -0.000028137    0.000035008   -0.000019868
   3   C   :    0.000014316   -0.000013454    0.000008405
   4   H   :    0.000007292   -0.000003688    0.000012086
   5   C   :   -0.000012338   -0.000080141   -0.000000022
   6   C   :    0.000061169   -0.000017759   -0.000008354
   7   O   :    0.000083506    0.000033867    0.000023203
   8   H   :   -0.000035217    0.000013468    0.000001341
   9   H   :   -0.000034046    0.000023867    0.000012174
  10   H   :   -0.000030318    0.000023918   -0.000002562
  11   H   :   -0.000005391    0.000027099   -0.000005186
  12   H   :   -0.000016397    0.000013994   -0.000019021
  13   H   :   -0.000000409   -0.000041595    0.000008055
[...]

CPCM Solvation Model Properties:
Surface-charge          :         -0.04680819643945
Corrected charge        :          0.00000000000000
Outlying charge corr.   :          0.00018102889533 Eh               0.00493 eV
Free-energy (cav+disp)  :          0.00543215956947 Eh               0.14782 eV

---------------
SCF CONVERGENCE
---------------

  Last Energy change         ...    1.8895e-10  Tolerance :   1.0000e-07
  Last MAX-Density change    ...    2.0067e-05  Tolerance :   1.0000e-07
  Last RMS-Density change    ...    4.7395e-07  Tolerance :   5.0000e-09
  Last DIIS Error            ...    1.0194e-05  Tolerance :   1.0000e-07
  Last Orbital Gradient      ...    2.7440e-06  Tolerance :   1.0000e-04
  Last Orbital Rotation      ...    3.1968e-06  Tolerance :   1.0000e-04


----------------
ORBITAL ENERGIES
----------------

  NO   OCC          E(Eh)            E(eV) 
   0   2.0000     -18.949607      -515.6450 
   1   2.0000     -10.066969      -273.9362 
   2   2.0000     -10.026537      -272.8359 
   3   2.0000     -10.016905      -272.5738 
   4   2.0000     -10.011926      -272.4384 
   5   2.0000     -10.010578      -272.4017 
   6   2.0000      -0.978199       -26.6181 
   7   2.0000      -0.766727       -20.8637 
   8   2.0000      -0.690605       -18.7923 
   9   2.0000      -0.632610       -17.2142 
  10   2.0000      -0.586488       -15.9592 
  11   2.0000      -0.526401       -14.3241 
  12   2.0000      -0.459050       -12.4914 
  13   2.0000      -0.429185       -11.6787 
  14   2.0000      -0.409698       -11.1485 
  15   2.0000      -0.388027       -10.5587 
  16   2.0000      -0.378716       -10.3054 
  17   2.0000      -0.352838        -9.6012 
  18   2.0000      -0.342264        -9.3135 
  19   2.0000      -0.319297        -8.6885 
  20   2.0000      -0.315078        -8.5737 
  21   2.0000      -0.296192        -8.0598 
  22   2.0000      -0.284214        -7.7338 
  23   2.0000      -0.275236        -7.4896 
  24   2.0000      -0.237853        -6.4723 
  25   0.0000       0.073831         2.0090 
  26   0.0000       0.098347         2.6762 
  27   0.0000       0.121515         3.3066 
  28   0.0000       0.129155         3.5145 
  29   0.0000       0.140103         3.8124 
  30   0.0000       0.144863         3.9419 
  31   0.0000       0.151753         4.1294 
  32   0.0000       0.161548         4.3960 
  33   0.0000       0.169651         4.6164 
  34   0.0000       0.177074         4.8184 
  35   0.0000       0.182759         4.9731 
*Only the first 10 virtual orbitals were printed.
Total SCF time: 0 days 0 hours 0 min 6 sec 
Finished LeanSCF after   6.1 sec

Maximum memory used throughout the entire LEANSCF-calculation: 23.8 MB


-------------------------------------------------------------------------------
                          DFT DISPERSION CORRECTION                            
                                                                               
                                DFTD4 V3.4.0                                   
-------------------------------------------------------------------------------
-------------------------   ----------------
Dispersion correction           -0.004340926
-------------------------   ----------------

------------------   -----------------
gCP correction             0.009702029
------------------   -----------------

-------------------------   --------------------
FINAL SINGLE POINT ENERGY      -272.905758824293
-------------------------   --------------------

------------------------------------------------------------------------------
                         ORCA SCF GRADIENT CALCULATION
------------------------------------------------------------------------------

Nuc. rep. gradient        (SHARK) ... done (  0.0 sec)
HCore & Overlap gradient  (SHARK) ... done (  0.2 sec)
Split-RIJ-J gradient      (SHARK) ... done (  1.1 sec)
XC gradient                       ... done (  5.5 sec)
CPCM gradient                     ... done (  0.7 sec)
SMD gradient                      ... done (  0.0 sec)
Dispersion correction             ... done (  0.0 sec)

-------------------
DISPERSION GRADIENT
-------------------

   1   C   :   -0.000085543    0.000044441    0.000008440
   2   C   :   -0.000027931    0.000035064   -0.000019724
   3   C   :    0.000014324   -0.000013365    0.000008627
   4   H   :    0.000007310   -0.000003688    0.000012201
   5   C   :   -0.000012798   -0.000079902    0.000000366
   6   C   :    0.000061496   -0.000017819   -0.000007957
   7   O   :    0.000083325    0.000034356    0.000022654
   8   H   :   -0.000035165    0.000013415    0.000000738
   9   H   :   -0.000034164    0.000023366    0.000012119
  10   H   :   -0.000030313    0.000024051   -0.000002478
  11   H   :   -0.000005261    0.000027156   -0.000005124
  12   H   :   -0.000016174    0.000014132   -0.000019096
  13   H   :   -0.000000231   -0.000041466    0.000007720
  14   H   :   -0.000004920   -0.000036840   -0.000009827
  15   H   :   -0.000015538   -0.000034153    0.000006762
  16   H   :    0.000032335    0.000001580   -0.000009375
  17   H   :    0.000032400   -0.000004080    0.000001488
  18   H   :    0.000036847    0.000013753   -0.000007531

Difference to translation invariance:
           :    0.0000000000    0.0000000000    0.0000000000

Difference to rotation invariance:
           :   -0.0000000000    0.0000000000   -0.0000000000

Norm of the Dispersion gradient    ...    0.0002161037
RMS gradient                       ...    0.0000294080
MAX gradient                       ...    0.0000855431
gCP correction                   ... done

------------------
CARTESIAN GRADIENT
------------------

   1   C   :   -0.000173695    0.000243539   -0.000146432
   2   C   :    0.000071588   -0.000060963    0.000048831
   3   C   :   -0.000004158    0.000128484    0.000004878
   4   H   :   -0.000069796    0.000001848    0.000013896
   5   C   :    0.000086444   -0.000100045   -0.000071021
   6   C   :    0.000274244    0.000208879    0.000049538
   7   O   :   -0.000284314   -0.000211634    0.000005983
   8   H   :   -0.000066308   -0.000120826   -0.000005200
   9   H   :    0.000101500   -0.000017351    0.000172256
  10   H   :    0.000049821   -0.000020537    0.000066151
  11   H   :    0.000105626    0.000002533   -0.000057051
  12   H   :   -0.000077034   -0.000079337   -0.000081141
  13   H   :   -0.000037990   -0.000004013   -0.000023672
  14   H   :   -0.000062477   -0.000044047   -0.000039762
  15   H   :   -0.000033256    0.000035328    0.000033853
  16   H   :    0.000009700   -0.000012659   -0.000059216
  17   H   :    0.000031241   -0.000027731    0.000002896
  18   H   :    0.000078867    0.000078532    0.000085213

Difference to translation invariance:
           :    0.0000000000    0.0000000000    0.0000000000

Difference to rotation invariance:
           :    0.0001474036    0.0000826113   -0.0001400341

Norm of the Cartesian gradient     ...    0.0007424024
RMS gradient                       ...    0.0001010282
MAX gradient                       ...    0.0002843141

-------
TIMINGS
-------

Total SCF gradient time     ....        8.107 sec

Densities                   ....       0.000 sec  (  0.0%)
One electron gradient       ....       0.222 sec  (  2.7%)
RI-J Coulomb gradient       ....       1.120 sec  ( 13.8%)
XC gradient                 ....       5.453 sec  ( 67.3%)
CPCM gradient               ....       0.667 sec  (  8.2%)
   A-Matrix (El+Nuc)        ....       0.060 sec  (  0.7%)
   Potential                ....       0.607 sec  (  7.5%)
SMD gradient                ....       0.018 sec  (  0.2%)

Maximum memory used throughout the entire SCFGRAD-calculation: 32.4 MB

------------------------------------------------------------------------------
                              ORCA PROPERTY CALCULATIONS
------------------------------------------------------------------------------

GBWName                                 ... xtb_opt.gbw
Number of atoms                         ...     18
Number of basis functions               ...    179
Max core memory                         ...   1024 MB

Electric properties:
Dipole moment                           ... YES
Quadrupole moment                       ...  NO
Static polarizability (Dipole/Dipole)   ...  NO
Static polarizability (Dipole/Quad.)    ...  NO
Static polarizability (Quad./Quad.)     ...  NO
Static polarizability (Velocity)        ...  NO

Atomic electric properties:
Dipole moment                           ...  NO
Quadrupole moment                       ...  NO
Static polarizability                   ...  NO

Choice of electric origin               ... Center of mass
Position of electric origin             ...     0.022841     0.003599    -0.012486

General magnetic properties:
Magnetizability                         ...  NO

EPR properties:
g-Tensor (aka g-matrix)                 ...  NO
Zero-Field splitting spin-orbit         ...  NO
Zero-field splitting spin-spin          ...  NO
Hyperfine couplings                     ...  NO (   0 nuclei)
Quadrupole couplings                    ...  NO (   0 nuclei)
Contact density                         ...  NO (   0 nuclei)

NMR properties:
Chemical shifts                         ...  NO (   0 nuclei)
Spin-rotation constants                 ...  NO (   0 nuclei)
Spin-spin couplings                     ...  NO (   0 nuclei,    0 pairs)

Choice of magnetic origin               ... GIAO
Position of magnetic origin             ...     0.000000     0.000000     0.000000

Properties with geometric perturbations:
SCF Hessian                             ...  NO
IR spectrum                             ...  NO
VCD spectrum                            ...  NO
X-ray spectroscopy properties:
SCF XES/XAS/RIXS spectra                ...  NO


-------------
DIPOLE MOMENT
-------------

Method             : SCF
Type of density    : Electron Density
Multiplicity       :   1
Irrep              :   0
Energy             :  -272.9111199271135888 Eh
Relativity type    : 
Basis              : AO
                                X                 Y                 Z
Electronic contribution:      5.027411068       1.720959565       0.208356685
Nuclear contribution   :     -5.432980204      -2.263512994       0.426292590
                        -----------------------------------------
Total Dipole Moment    :     -0.405569137      -0.542553429       0.634649276
                        -----------------------------------------
Magnitude (a.u.)       :      0.928240406
Magnitude (Debye)      :      2.359399607



--------------------
Rotational spectrum 
--------------------
 
Rotational constants in cm-1:             0.157943             0.076784             0.056522 
Rotational constants in MHz :          4735.020918          2301.915107          1694.499931 

Dipole components along the rotational axes: 
x,y,z [a.u.] :    -0.413597    -0.559248     0.614662 
x,y,z [Debye]:    -1.051281    -1.421496     1.562346 

 

Dipole moment calculation done in   0.0 sec 

Maximum memory used throughout the entire PROP-calculation: 10.7 MB

--------------------------------
SUGGESTED CITATIONS FOR THIS RUN
--------------------------------

Below you find a list of papers that are relevant to this ORCA run
We neither can nor want to force you to cite these papers, but we appreciate if you do
You receive ORCA, which is the product of decades of hard work by many enthusiastic individuals, for free
The only thing we kindly ask in return is that you cite our papers,
We deeply appreciate it, if you show your appreciation for ORCA by not just citing the generic ORCA reference.

Please note that relegating all ORCA citations to the supporting information does *not* help us.
SI sections are not indexed - citations you put there will not count into any citation statistics
But we need these citations in order to attract the funding resources that allow us to do what we are doing

Therefore, if you are a happy ORCA user, please consider citing a few of the papers listed below in the main body of your paper

In addition to the list printed below, the program has created the file xtb_opt.bibtex that contains the list in bibtex format
You can import this file easily into all common literature databanks and citation aid programs


List of essential papers. We consider these as the minimum necessary citations

  1. Neese,F.
     Software update: the ORCA program system, version 5.0
     WIRES Comput. Molec. Sci., 2022 12(1)e1606
     doi.org/10.1002/wcms.1606
  2. Grimme,S.; Hansen,A.; Ehlert,S.; Mewes,J.
     r2SCAN-3c: A 'Swiss army knife' composite electronic-structure method
     J. Chem. Phys., 2021 154 064103
     doi.org/10.1063/5.0040021

List of papers to cite with high priority. The work reported in these papers was absolutely
necessary for this run to complete.
Our perspective: the developers of density functionals and basis sets usually get cited in chemistry papers
Good! But without the algorithms to do something with them, the functionals or basis sets would not do anything.
Hence, in our opinion, the algorithm design and method developments papers are equally worthy of getting cited

  1. Neese,F.
     An improvement of the resolution of the identity approximation for the formation of the Coulomb matrix
     J. Comp. Chem., 2003 24(14)1740-1747
     doi.org/10.1002/jcc.10318
  2. Garcia-Rates,M.; Neese,F.
     Effect of the Solute Cavity on the Solvation Energy and its Derivatives within the Framework of the Gaussian Charge Scheme
     J. Comput. Chem., 2020 41 922-939
     doi.org/10.1002/jcc.26139
  3. Neese,F.
     The SHARK Integral Generation and Digestion System
     J. Comp. Chem., 2022  1-16
     doi.org/10.1002/jcc.26942
  4. Lehtola,S.; Steigemann,C.; Oliveira,M.; Marques,M.
     Recent developments in Libxc - A comprehensive library of functionals for density functional theory
     Software X, 2018 7 
     doi.org/10.1016/j.softx.2017.11.002
  5. Caldeweyher,E.; Bannwarth,C.; Grimme,S.
     Extension of the D3 dispersion coefficient model
     J. Chem. Phys., 2017 147 034112-XXXX
     doi.org/10.1063/1.4993215
  6. Caldeweyher,E.; Ehlert,S.; Hansen,A.; Neugebauer,H.; Spicher,S.; Bannwarth,C.; Grimme,S.
     A generally applicable atomic-charge dependent London dispersion correction
     J. Chem. Phys., 2019 150 154122-XXXX
     doi.org/10.1063/1.5090222
  7. Caldeweyher,E.; Mewes,J.; Ehlert,S.; Grimme,S.
     Extension and evaluation of the D4 London-dispersion model for periodic systems
     Phys. Chem. Chem. Phys., 2020 22(16)8499-8512
     doi.org/10.1039/D0CP00502A

List of suggested additional citations. These are papers that are important in the 'surrounding' of 
of this run, or papers that preceded the highly important papers. If you like your results we are grateful for a citation.

  1. Neese,F.
     The ORCA program system
     WIRES Comput. Molec. Sci., 2012 2(1)73-78
     doi.org/10.1002/wcms.81
  2. Neese,F.
     Software update: the ORCA program system, version 4.0
     WIRES Comput. Molec. Sci., 2018 8(1)1-6
     doi.org/10.1002/wcms.1327
  3. Neese,F.; Wennmohs,F.; Becker,U.; Riplinger,C.
     The ORCA quantum chemistry program package
     J. Chem. Phys., 2020 152 Art. No. L224108
     doi.org/10.1063/5.0004608

List of optional additional citations

  1. Neese,F.
     Approximate second-order SCF convergence for spin unrestricted wavefunctions
     Chem. Phys. Lett., 2000 325(1-3)93-98
     doi.org/10.1016/s0009-2614(00)00662-x

Timings for individual modules:

Sum of individual times          ...       15.955 sec (=   0.266 min)
Startup calculation              ...        1.101 sec (=   0.018 min)   6.9 %
SCF iterations                   ...        6.528 sec (=   0.109 min)  40.9 %
Property calculations            ...        0.110 sec (=   0.002 min)   0.7 %
SCF Gradient evaluation          ...        8.216 sec (=   0.137 min)  51.5 %
                             ****ORCA TERMINATED NORMALLY****
TOTAL RUN TIME: 0 days 0 hours 0 minutes 16 seconds 840 msec
  ------------------------------------------------------------------------
          * successful ORCA run, taking over control again...

         :::::::::::::::::::::::::::::::::::::::::::::::::::::
         ::                  ORCA SUMMARY                   ::
         :::::::::::::::::::::::::::::::::::::::::::::::::::::
         :: total energy            -272.905758824293 Eh    ::
         :: gradient norm              0.000742402378 Eh/a0 ::
         :: HOMO-LUMO gap              0.000000000000 eV    ::
         :::::::::::::::::::::::::::::::::::::::::::::::::::::

           -------------------------------------------------
          |                Property Printout                |
           -------------------------------------------------
           -------------------------------------------------
          |                Geometry Summary                 |
           -------------------------------------------------

      molecular mass/u    :       88.1483734
   center of mass at/Å    :        0.0121077       0.0019128      -0.0066068
  moments of inertia/u·Å² :        0.1067292E+03   0.2195443E+03   0.2982422E+03
rotational constants/cm⁻¹ :        0.1579476E+00   0.7678465E-01   0.5652329E-01

 * 17 selected distances

     #   Z          #   Z                                           value/Å
     1   6 C        2   6 C                                       1.5272470
     2   6 C        3   6 C                                       1.5332190 (max)
     3   6 C        4   1 H                                       1.1015618
     3   6 C        5   6 C                                       1.5297204
     3   6 C        6   6 C                                       1.5274723
     6   6 C        7   8 O                                       1.4398796
     1   6 C        8   1 H                                       1.0946675
     1   6 C        9   1 H                                       1.0964928
     1   6 C       10   1 H                                       1.0947010
     2   6 C       11   1 H                                       1.0962119
     2   6 C       12   1 H                                       1.0994597
     5   6 C       13   1 H                                       1.0953745
     5   6 C       14   1 H                                       1.0970119
     5   6 C       15   1 H                                       1.0934823
     6   6 C       16   1 H                                       1.0968846
     6   6 C       17   1 H                                       1.0997622
     7   8 O       18   1 H                                       0.9661562 (min)

 * 4 distinct bonds (by element types)

   Z      Z             #   av. dist./Å        max./Å        min./Å
   1 H    6 C          11     1.0968737     1.1015618     1.0934823
   6 C    6 C           4     1.5294147     1.5332190     1.5272470
   1 H    8 O           1     0.9661562     0.9661562     0.9661562
   6 C    8 O           1     1.4398796     1.4398796     1.4398796


optimized geometry written to: xtbopt.coord


           -------------------------------------------------
          | TOTAL ENERGY             -272.905758824293 Eh   |
          | GRADIENT NORM               0.000742402378 Eh/α |
           -------------------------------------------------

------------------------------------------------------------------------
 * finished run on 2025/04/11 at 12:33:36.084     
------------------------------------------------------------------------
 total:
 * wall-time:     0 d,  0 h,  2 min, 27.406 sec
 *  cpu-time:     0 d,  0 h,  0 min,  1.073 sec
 * ratio c/w:     0.007 speedup
 SCF:
 * wall-time:     0 d,  0 h,  0 min, 17.610 sec
 *  cpu-time:     0 d,  0 h,  0 min,  0.130 sec
 * ratio c/w:     0.007 speedup
 ANC optimizer:
 * wall-time:     0 d,  0 h,  2 min,  9.668 sec
 *  cpu-time:     0 d,  0 h,  0 min,  0.924 sec
 * ratio c/w:     0.007 speedup

