
                                 *****************
                                 * O   R   C   A *
                                 *****************

                                            #,                                       
                                            ###                                      
                                            ####                                     
                                            #####                                    
                                            ######                                   
                                           ########,                                 
                                     ,,################,,,,,                         
                               ,,#################################,,                 
                          ,,##########################################,,             
                       ,#########################################, ''#####,          
                    ,#############################################,,   '####,        
                  ,##################################################,,,,####,       
                ,###########''''           ''''###############################       
              ,#####''   ,,,,##########,,,,          '''####'''          '####       
            ,##' ,,,,###########################,,,                        '##       
           ' ,,###''''                  '''############,,,                           
         ,,##''                                '''############,,,,        ,,,,,,###''
      ,#''                                            '''#######################'''  
     '                                                          ''''####''''         
             ,#######,   #######,   ,#######,      ##                                
            ,#'     '#,  ##    ##  ,#'     '#,    #''#        ,####,   ,####,        
            ##       ##  ##   ,#'  ##            #'  '#       #'       #'  '#        
            ##       ##  #######   ##           ,######,      #####,   #    #        
            '#,     ,#'  ##    ##  '#,     ,#' ,#      #,     #,   #   #,  ,#        
             '#######'   ##     ##  '#######'  #'      '#     '####' # '####'        



                #########################################################
                #                        -***-                          #
                #          Department of theory and spectroscopy        #
                #                                                       #
                #                      Frank Neese                      #
                #                                                       #
                #     Directorship, Architecture, Infrastructure        #
                #                    SHARK, DRIVERS                     #
                #        Core code/Algorithms in most modules           #
                #                                                       #
                #        Max Planck Institute fuer Kohlenforschung      #
                #                Kaiser Wilhelm Platz 1                 #
                #                 D-45470 Muelheim/Ruhr                 #
                #                      Germany                          #
                #                                                       #
                #                  All rights reserved                  #
                #                        -***-                          #
                #########################################################


                         Program Version 6.0.0  -   RELEASE  -


 With contributions from (in alphabetic order):
   Daniel Aravena         : Magnetic Suceptibility
   Michael Atanasov       : Ab Initio Ligand Field Theory (pilot matlab implementation)
   Alexander A. Auer      : GIAO ZORA, VPT2 properties, NMR spectrum
   Ute Becker             : All parallelization in ORCA, NUMFREQ, NUMCALC
   Giovanni Bistoni       : ED, misc. LED, open-shell LED, HFLD
   Martin Brehm           : Molecular dynamics
   Dmytro Bykov           : pre 5.0 version of the SCF Hessian
   Marcos Casanova-Páez   : Triplet and SCS-CIS(D). UHF-(DLPNO)-IP/EA/STEOM-CCSD. UHF-CVS-IP/STEOM-CCSD
   Vijay G. Chilkuri      : MRCI spin determinant printing, contributions to CSF-ICE
   Pauline Colinet        : FMM embedding
   Dipayan Datta          : RHF DLPNO-CCSD density
   Achintya Kumar Dutta   : EOM-CC, STEOM-CC
   Nicolas Foglia         : Exact transition moments, OPA infrastructure, MCD improvements
   Dmitry Ganyushin       : Spin-Orbit,Spin-Spin,Magnetic field MRCI
   Miquel Garcia          : C-PCM and meta-GGA Hessian, CCSD/C-PCM, Gaussian charge scheme
   Tiago L. C. Gouveia    : GS-ROHF, GS-ROCIS
   Yang Guo               : DLPNO-NEVPT2, F12-NEVPT2, CIM, IAO-localization
   Andreas Hansen         : Spin unrestricted coupled pair/coupled cluster methods
   Ingolf Harden          : AUTO-CI MPn and infrastructure 
   Benjamin Helmich-Paris : MC-RPA, TRAH-(SCF,CASSCF), AVAS, COSX integrals, SCF dyn. polar.
   Lee Huntington         : MR-EOM, pCC
   Robert Izsak           : Overlap fitted RIJCOSX, COSX-SCS-MP3, EOM
   Riya Kayal             : Wick's Theorem for AUTO-CI, AUTO-CI UHF-CCSDT
   Emily Kempfer          : AUTO-CI, RHF CISDT and CCSDT
   Christian Kollmar      : KDIIS, OOCD, Brueckner-CCSD(T), CCSD density, CASPT2, CASPT2-K, improved NEVPT2
   Axel Koslowski         : Symmetry handling
   Simone Kossmann        : Meta GGA functionals, TD-DFT gradient, OOMP2, (MP2 Hessian; deprecated post 5.0)
   Lucas Lang             : DCDCAS
   Marvin Lechner         : AUTO-CI (C++ implementation), FIC-MRCC
   Spencer Leger          : CASSCF response
   Dagmar Lenk            : GEPOL surface, SMD, ORCA-2-JSON
   Dimitrios Liakos       : Extrapolation schemes; Compound Job, initial MDCI parallelization
   Dimitrios Manganas     : Further ROCIS development; embedding schemes. LFT, Crystal Embedding
   Dimitrios Pantazis     : SARC Basis sets
   Anastasios Papadopoulos: AUTO-CI, single reference methods and gradients
   Taras Petrenko         : pre 6.0 DFT Hessian and TD-DFT gradient, (ASA, deprecated), ECA, 1-Electron XAS/XES, NRVS
   Peter Pinski           : DLPNO-MP2, DLPNO-MP2 Gradient
   Christoph Reimann      : Effective Core Potentials
   Marius Retegan         : Local ZFS, SOC
   Christoph Riplinger    : Optimizer, TS searches, QM/MM, DLPNO-CCSD(T), (RO)-DLPNO pert. Triples
   Michael Roemelt        : Original ROCIS implementation
   Masaaki Saitow         : Open-shell DLPNO-CCSD energy and density
   Barbara Sandhoefer     : DKH picture change effects
   Kantharuban Sivalingam : CASSCF convergence/infrastructure, NEVPT2 and variants, FIC-MRCI
   Bernardo de Souza      : ESD, SOC TD-DFT
   Georgi Stoychev        : AutoAux, RI-MP2 NMR, DLPNO-MP2 response, X2C
   Van Anh Tran           : RI-MP2 g-tensors
   Willem Van den Heuvel  : Paramagnetic NMR
   Zikuan Wang            : NOTCH, Electric field optimization 
   Frank Wennmohs         : Technical directorship and infrastructure
   Hang Xu                : AUTO-CI-Response properties 


 We gratefully acknowledge several colleagues who have allowed us to
 interface, adapt or use parts of their codes:
   Stefan Grimme, W. Hujo, H. Kruse, P. Pracht,  : VdW corrections, initial TS optimization,
                  C. Bannwarth, S. Ehlert,         DFT functionals, gCP, sTDA/sTD-DF
                  L. Wittmann, M. Mueller
   Ed Valeev, F. Pavosevic, A. Kumar             : LibInt (2-el integral package), F12 methods
   Garnet Chan, S. Sharma, J. Yang, R. Olivares  : DMRG
   Ulf Ekstrom                                   : XCFun DFT Library
   Mihaly Kallay                                 : mrcc  (arbitrary order and MRCC methods)
   Frank Weinhold                                : gennbo (NPA and NBO analysis)
   Simon Mueller                                 : openCOSMO-RS
   Christopher J. Cramer and Donald G. Truhlar   : smd solvation model
   Lars Goerigk                                  : TD-DFT with DH, B97 family of functionals
   V. Asgeirsson, H. Jonsson                     : NEB implementation
   FAccTs GmbH                                   : IRC, NEB, NEB-TS, DLPNO-Multilevel, CI-OPT
                                                   MM, QMMM, 2- and 3-layer-ONIOM, Crystal-QMMM,
                                                   LR-CPCM, SF, NACMEs, symmetry and pop. for TD-DFT,
                                                   nearIR, NL-DFT gradient (VV10), updates on ESD,
                                                   ML-optimized integration grids, MBIS, APM,
                                                   GOAT, DOCKER, SOLVATOR, interface openCOSMO-RS
   S Lehtola, MJT Oliveira, MAL Marques          : LibXC Library
   Liviu Ungur et al                             : ANISO software


 Your calculation uses the libint2 library for the computation of 2-el integrals
 For citations please refer to: http://libint.valeyev.net

 Your ORCA version has been built with support for libXC version: 6.2.2
 For citations please refer to: https://libxc.gitlab.io

 This ORCA versions uses:
   CBLAS   interface :  Fast vector & matrix operations
   LAPACKE interface :  Fast linear algebra routines
   SCALAPACK package :  Parallel linear algebra routines
   Shared memory     :  Shared parallel matrices
   BLAS/LAPACK       :  OpenBLAS 0.3.27  USE64BITINT DYNAMIC_ARCH NO_AFFINITY SkylakeX SINGLE_THREADED
        Core in use  :  SkylakeX
   Copyright (c) 2011-2014, The OpenBLAS Project


Your calculation utilizes the geometrical counterpoise correction gCP
Please cite in your paper:
H.Kruse, S. Grimme J.Chem.Phys., 136, (2012), 154101 
   

Your calculation utilizes the atom-pairwise dispersion correction
based on EEQ partial charges (D4)


================================================================================

----- Orbital basis set information -----
Your calculation utilizes the basis: def2-mTZVPP
   Stefan Grimme, Andreas Hansen, Sebastian Ehlert, and Jan-Michael Mewes 
   J. Chem. Phys. 154, 064103 (2021). DOI: 10.1063/5.0040021

----- AuxJ basis set information -----
Your calculation utilizes the auxiliary basis: def2/J
   F. Weigend, Phys. Chem. Chem. Phys. 8, 1057 (2006).

================================================================================
                                        WARNINGS
                       Please study these warnings very carefully!
================================================================================

Using LibXC functional ID 497 : Re-regularized SCAN exchange by Furness et al
[ 1]  J. W. Furness, A. D. Kaplan, J. Ning, J. P. Perdew, and J. Sun.,  J. Phys. Chem. Lett. 11, 8208-8215 (2020)
[ 2]  J. W. Furness, A. D. Kaplan, J. Ning, J. P. Perdew, and J. Sun.,  J. Phys. Chem. Lett. 11, 9248-9248 (2020)
Using LibXC functional ID 498 : Re-regularized SCAN correlation by Furness et al
[ 1]  J. W. Furness, A. D. Kaplan, J. Ning, J. P. Perdew, and J. Sun.,  J. Phys. Chem. Lett. 11, 8208-8215 (2020)
[ 2]  J. W. Furness, A. D. Kaplan, J. Ning, J. P. Perdew, and J. Sun.,  J. Phys. Chem. Lett. 11, 9248-9248 (2020)
Using LibXC functional ID 497 : Re-regularized SCAN exchange by Furness et al
[ 1]  J. W. Furness, A. D. Kaplan, J. Ning, J. P. Perdew, and J. Sun.,  J. Phys. Chem. Lett. 11, 8208-8215 (2020)
[ 2]  J. W. Furness, A. D. Kaplan, J. Ning, J. P. Perdew, and J. Sun.,  J. Phys. Chem. Lett. 11, 9248-9248 (2020)
Using LibXC functional ID 498 : Re-regularized SCAN correlation by Furness et al
[ 1]  J. W. Furness, A. D. Kaplan, J. Ning, J. P. Perdew, and J. Sun.,  J. Phys. Chem. Lett. 11, 8208-8215 (2020)
[ 2]  J. W. Furness, A. D. Kaplan, J. Ning, J. P. Perdew, and J. Sun.,  J. Phys. Chem. Lett. 11, 9248-9248 (2020)

================================================================================
                                       INPUT FILE
================================================================================
NAME = sp_gas.inp
|  1> ! r2scan-3c def2/J RI DEFGRID2 scfconv6 printgap
|  2> %output
|  3>     printlevel normal
|  4> end
|  5> * xyz 0 1
|  6> C -2.2561533943 1.6441388968 0.0250953285
|  7> C -2.1131387058 0.1591758572 0.346356721
|  8> C -3.4739433369 -0.5308975777 0.2699905256
|  9> C -1.1290407296 -0.5250616816 -0.6153213694
| 10> C 0.3149441995 -0.3074841578 -0.2833080191
| 11> C 1.2671510297 -1.3011460827 -0.5369182551
| 12> N 2.5514103126 -1.1407599383 -0.2687627374
| 13> C 2.9157899699 0.0188554685 0.266846172
| 14> C 1.9829285314 1.0098304928 0.5288876049
| 15> N 0.6971262901 0.8474422517 0.2541360247
| 16> H -2.6773125605 1.7761133861 -0.9694579886
| 17> H -1.2861422937 2.1290176706 0.0643330243
| 18> H -2.9163674926 2.1236582879 0.743690563
| 19> H -1.7237853647 0.0583980006 1.3649460807
| 20> H -3.3966498794 -1.5774723913 0.5557672298
| 21> H -4.1796718047 -0.0455127922 0.9393450314
| 22> H -3.868514821 -0.4766232132 -0.7422083735
| 23> H -1.3068593918 -0.150232699 -1.627368444
| 24> H -1.3129595451 -1.6012674729 -0.6287091918
| 25> H 0.9886479441 -2.2530147252 -0.9679575772
| 26> H 3.9665794963 0.1398038677 0.483998796
| 27> H 2.2588018459 1.9583273686 0.9674779388
| 28> *
| 29> 
| 30>                          ****END OF INPUT****
================================================================================

                       ****************************
                       * Single Point Calculation *
                       ****************************

---------------------------------
CARTESIAN COORDINATES (ANGSTROEM)
---------------------------------
  C     -2.256153    1.644139    0.025095
  C     -2.113139    0.159176    0.346357
  C     -3.473943   -0.530898    0.269991
  C     -1.129041   -0.525062   -0.615321
  C      0.314944   -0.307484   -0.283308
  C      1.267151   -1.301146   -0.536918
  N      2.551410   -1.140760   -0.268763
  C      2.915790    0.018855    0.266846
  C      1.982929    1.009830    0.528888
  N      0.697126    0.847442    0.254136
  H     -2.677313    1.776113   -0.969458
  H     -1.286142    2.129018    0.064333
  H     -2.916367    2.123658    0.743691
  H     -1.723785    0.058398    1.364946
  H     -3.396650   -1.577472    0.555767
  H     -4.179672   -0.045513    0.939345
  H     -3.868515   -0.476623   -0.742208
  H     -1.306859   -0.150233   -1.627368
  H     -1.312960   -1.601267   -0.628709
  H      0.988648   -2.253015   -0.967958
  H      3.966579    0.139804    0.483999
  H      2.258802    1.958327    0.967478

----------------------------
CARTESIAN COORDINATES (A.U.)
----------------------------
  NO LB      ZA    FRAG     MASS         X           Y           Z
   0 C     6.0000    0    12.011   -4.263512    3.106972    0.047423
   1 C     6.0000    0    12.011   -3.993253    0.300799    0.654519
   2 C     6.0000    0    12.011   -6.564802   -1.003251    0.510208
   3 C     6.0000    0    12.011   -2.133578   -0.992223   -1.162789
   4 C     6.0000    0    12.011    0.595158   -0.581061   -0.535375
   5 C     6.0000    0    12.011    2.394568   -2.458810   -1.014628
   6 N     7.0000    0    14.007    4.821467   -2.155724   -0.507888
   7 C     6.0000    0    12.011    5.510045    0.035632    0.504266
   8 C     6.0000    0    12.011    3.747192    1.908303    0.999453
   9 N     7.0000    0    14.007    1.317378    1.601434    0.480247
  10 H     1.0000    0     1.008   -5.059388    3.356368   -1.832010
  11 H     1.0000    0     1.008   -2.430457    4.023260    0.121572
  12 H     1.0000    0     1.008   -5.511136    4.013133    1.405371
  13 H     1.0000    0     1.008   -3.257482    0.110356    2.579374
  14 H     1.0000    0     1.008   -6.418738   -2.980991    1.050248
  15 H     1.0000    0     1.008   -7.898435   -0.086007    1.775105
  16 H     1.0000    0     1.008   -7.310434   -0.900687   -1.402571
  17 H     1.0000    0     1.008   -2.469606   -0.283899   -3.075281
  18 H     1.0000    0     1.008   -2.481134   -3.025957   -1.188088
  19 H     1.0000    0     1.008    1.868274   -4.257581   -1.829175
  20 H     1.0000    0     1.008    7.495749    0.264191    0.914625
  21 H     1.0000    0     1.008    4.268517    3.700702    1.828268

--------------------------------
INTERNAL COORDINATES (ANGSTROEM)
--------------------------------
 C      0   0   0     0.000000000000     0.00000000     0.00000000
 C      1   0   0     1.526033195057     0.00000000     0.00000000
 C      2   1   0     1.527685303123   110.21549896     0.00000000
 C      2   1   3     1.536702504006   111.19546417   121.94789211
 C      4   2   1     1.497553110614   114.45970576    79.54234543
 C      5   4   2     1.399421316216   120.84710624   146.67837155
 N      6   5   4     1.321723497069   122.56204524   179.37253463
 C      7   6   5     1.328291131556   117.01940368     0.28718318
 C      8   7   6     1.385975351434   121.05127195     0.00000000
 N      9   8   7     1.324819148187   121.76247229   359.74118704
 H      1   2   3     1.088084835688   110.28713188   301.16469309
 H      1   2   3     1.085158309806   110.08524399   180.90467927
 H      1   2   3     1.087290491580   110.29933692    60.86455271
 H      2   1   3     1.095114826993   108.58296843   240.96178120
 H      3   2   1     1.087640309890   110.99092541   183.44985271
 H      3   2   1     1.087054053253   110.23172053   303.43970527
 H      3   2   1     1.087740306344   110.30983741    63.08394103
 H      4   2   1     1.093780381992   108.80473242   318.40401846
 H      4   2   1     1.091890227867   109.79597693   201.12587682
 H      6   5   4     1.081393905318   121.46663947   359.36979750
 H      8   7   6     1.079788130223   116.47676229   179.89227956
 H      9   8   7     1.080793176351   122.16793590   179.77197093

---------------------------
INTERNAL COORDINATES (A.U.)
---------------------------
 C      0   0   0     0.000000000000     0.00000000     0.00000000
 C      1   0   0     2.883784809931     0.00000000     0.00000000
 C      2   1   0     2.886906841719   110.21549896     0.00000000
 C      2   1   3     2.903946881883   111.19546417   121.94789211
 C      4   2   1     2.829965250061   114.45970576    79.54234543
 C      5   4   2     2.644523033620   120.84710624   146.67837155
 N      6   5   4     2.497695434228   122.56204524   179.37253463
 C      7   6   5     2.510106464757   117.01940368     0.28718318
 C      8   7   6     2.619113842576   121.05127195     0.00000000
 N      9   8   7     2.503545367048   121.76247229   359.74118704
 H      1   2   3     2.056182349924   110.28713188   301.16469309
 H      1   2   3     2.050652017482   110.08524399   180.90467927
 H      1   2   3     2.054681257104   110.29933692    60.86455271
 H      2   1   3     2.069467108214   108.58296843   240.96178120
 H      3   2   1     2.055342317905   110.99092541   183.44985271
 H      3   2   1     2.054234453417   110.23172053   303.43970527
 H      3   2   1     2.055531283818   110.30983741    63.08394103
 H      4   2   1     2.066945372620   108.80473242   318.40401846
 H      4   2   1     2.063373498973   109.79597693   201.12587682
 H      6   5   4     2.043538323943   121.46663947   359.36979750
 H      8   7   6     2.040503848781   116.47676229   179.89227956
 H      9   8   7     2.042403110714   122.16793590   179.77197093

---------------------
BASIS SET INFORMATION
---------------------
There are 3 groups of distinct atoms

 Group   1 Type C   : 11s6p1d contracted to 5s3p1d pattern {62111/411/1}
 Group   2 Type N   : 11s6p2d contracted to 5s3p2d pattern {62111/411/11}
 Group   3 Type H   : 4s1p contracted to 2s1p pattern {31/1}

Atom   0C    basis set group =>   1
Atom   1C    basis set group =>   1
Atom   2C    basis set group =>   1
Atom   3C    basis set group =>   1
Atom   4C    basis set group =>   1
Atom   5C    basis set group =>   1
Atom   6N    basis set group =>   2
Atom   7C    basis set group =>   1
Atom   8C    basis set group =>   1
Atom   9N    basis set group =>   2
Atom  10H    basis set group =>   3
Atom  11H    basis set group =>   3
Atom  12H    basis set group =>   3
Atom  13H    basis set group =>   3
Atom  14H    basis set group =>   3
Atom  15H    basis set group =>   3
Atom  16H    basis set group =>   3
Atom  17H    basis set group =>   3
Atom  18H    basis set group =>   3
Atom  19H    basis set group =>   3
Atom  20H    basis set group =>   3
Atom  21H    basis set group =>   3
---------------------------------
AUXILIARY/J BASIS SET INFORMATION
---------------------------------
There are 3 groups of distinct atoms

 Group   1 Type C   : 12s5p4d2f1g contracted to 6s4p3d1f1g pattern {711111/2111/211/2/1}
 Group   2 Type N   : 12s5p4d2f1g contracted to 6s4p3d1f1g pattern {711111/2111/211/2/1}
 Group   3 Type H   : 5s2p1d contracted to 3s1p1d pattern {311/2/1}

Atom   0C    basis set group =>   1
Atom   1C    basis set group =>   1
Atom   2C    basis set group =>   1
Atom   3C    basis set group =>   1
Atom   4C    basis set group =>   1
Atom   5C    basis set group =>   1
Atom   6N    basis set group =>   2
Atom   7C    basis set group =>   1
Atom   8C    basis set group =>   1
Atom   9N    basis set group =>   2
Atom  10H    basis set group =>   3
Atom  11H    basis set group =>   3
Atom  12H    basis set group =>   3
Atom  13H    basis set group =>   3
Atom  14H    basis set group =>   3
Atom  15H    basis set group =>   3
Atom  16H    basis set group =>   3
Atom  17H    basis set group =>   3
Atom  18H    basis set group =>   3
Atom  19H    basis set group =>   3
Atom  20H    basis set group =>   3
Atom  21H    basis set group =>   3

Checking for AutoStart:
The File: sp_gas.gbw exists
Trying to determine its content:
     ... Fine, the file contains calculation information
     ... Fine, the calculation information was read
     ... Fine, the file contains a basis set
     ... Fine, the basis set was read
     ... Fine, the file contains a geometry
     ... Fine, the geometry was read
     ... Fine, the file contains a set of orbitals
     ... Fine, the orbitals can be read
     => possible old guess file was deleted
     => GBW file was renamed to GES file
     => GES file is set as startup file
     => Guess is set to MORead
     ... now leaving AutoStart

------------------------------------------------------------------------------
                             ORCA STARTUP CALCULATIONS
                           -- RI-GTO INTEGRALS CHOSEN --
------------------------------------------------------------------------------
------------------------------------------------------------------------------
                   ___                                                        
                  /   \      - P O W E R E D   B Y -                         
                 /     \                                                     
                 |  |  |   _    _      __       _____    __    __             
                 |  |  |  | |  | |    /  \     |  _  \  |  |  /  |          
                  \  \/   | |  | |   /    \    | | | |  |  | /  /          
                 / \  \   | |__| |  /  /\  \   | |_| |  |  |/  /          
                |  |  |   |  __  | /  /__\  \  |    /   |      \           
                |  |  |   | |  | | |   __   |  |    \   |  |\   \          
                \     /   | |  | | |  |  |  |  | |\  \  |  | \   \       
                 \___/    |_|  |_| |__|  |__|  |_| \__\ |__|  \__/        
                                                                              
                      - O R C A' S   B I G   F R I E N D -                    
                                      &                                       
                       - I N T E G R A L  F E E D E R -                       
                                                                              
 v1 FN, 2020, v2 2021, v3 2022-2024                                           
------------------------------------------------------------------------------


----------------------
SHARK INTEGRAL PACKAGE
----------------------

Number of atoms                             ...     22
Number of basis functions                   ...    260
Number of shells                            ...    128
Maximum angular momentum                    ...      2
Integral batch strategy                     ... SHARK/LIBINT Hybrid
RI-J (if used) integral strategy            ... SPLIT-RIJ (Revised 2003 algorithm where possible)
Printlevel                                  ...      1
Contraction scheme used                     ... SEGMENTED contraction
Prescreening option                         ... SCHWARTZ
   Thresh                                   ... 1.000e-10
   Tcut                                     ... 1.000e-11
   Tpresel                                  ... 1.000e-11 
Coulomb Range Separation                    ... NOT USED
Exchange Range Separation                   ... NOT USED
Multipole approximations                    ... NOT USED
Finite Nucleus Model                        ... NOT USED
CABS basis                                  ... NOT available
Auxiliary Coulomb fitting basis             ... AVAILABLE
   # of basis functions in Aux-J            ...    622
   # of shells in Aux-J                     ...    210
   Maximum angular momentum in Aux-J        ...      4
Auxiliary J/K fitting basis                 ... NOT available
Auxiliary Correlation fitting basis         ... NOT available
Auxiliary 'external' fitting basis          ... NOT available

Checking pre-screening integrals            ... done (  0.0 sec) Dimension = 128
Check shell pair data                       ... done (  0.0 sec)
Shell pair information
Shell pair cut-off parameter TPreSel        ...   1.0e-11
Total number of shell pairs                 ...      8256
Shell pairs after pre-screening             ...      7058
Total number of primitive shell pairs       ...     29659
Primitive shell pairs kept                  ...     17608
          la=0 lb=0:   2315 shell pairs
          la=1 lb=0:   2675 shell pairs
          la=1 lb=1:    800 shell pairs
          la=2 lb=0:    761 shell pairs
          la=2 lb=1:    438 shell pairs
          la=2 lb=2:     69 shell pairs

Calculating one electron integrals          ... done (  0.0 sec)
Calculating RI/J V-Matrix + Cholesky decomp.... done (  0.1 sec)
Calculating Nuclear repulsion               ... done (  0.0 sec) ENN=    512.041000416161 Eh

Diagonalization of the overlap matrix:
Smallest eigenvalue                        ... 7.521e-05
Time for diagonalization                   ...    0.007 sec
Threshold for overlap eigenvalues          ... 1.000e-07
Number of eigenvalues below threshold      ... 0
Time for construction of square roots      ...    0.017 sec
Total time needed                          ...    0.032 sec

-------------------
DFT GRID GENERATION
-------------------

General Integration Accuracy     IntAcc      ... 4.388
Radial Grid Type                 RadialGrid  ... OptM3 with GC (2021)
Angular Grid (max. ang.)         AngularGrid ... 4 (Lebedev-302)
Angular grid pruning method      GridPruning ... 4 (adaptive)
Weight generation scheme         WeightScheme... mBecke (2022)
Basis function cutoff            BFCut       ... 1.0000e-10
Integration weight cutoff        WCut        ... 1.0000e-14
Partially contracted basis set               ... off
Rotationally invariant grid construction     ... off
Angular grids for H and He will be reduced by one unit

Total number of grid points                  ...    98414
Total number of batches                      ...     1548
Average number of points per batch           ...       63
Average number of grid points per atom       ...     4473
Initializing property integral containers    ... done (  0.0 sec)

SHARK setup successfully completed in   1.5 seconds

Maximum memory used throughout the entire STARTUP-calculation: 45.3 MB
-------------------------------------------------------------------------------
                                 ORCA GUESS
                   Start orbitals & Density for SCF / CASSCF
-------------------------------------------------------------------------------

------------
SCF SETTINGS
------------
Hamiltonian:
 Density Functional     Method          .... DFT(GTOs)
  Functional kind                       .... Exchange
  Functional name                       .... Re-regularized SCAN exchange by Furness et al
  Functional family                     .... MGGA
  Functional refs                              
    [ 0] J. W. Furness, A. D. Kaplan, J. Ning, J. P. Perdew, and J. Sun.,  J. Phys. Chem. Lett. 11, 8208-8215 (2020), doi: 10.1021/acs.jpclett.0c02405
    [ 1] J. W. Furness, A. D. Kaplan, J. Ning, J. P. Perdew, and J. Sun.,  J. Phys. Chem. Lett. 11, 9248-9248 (2020), doi: 10.1021/acs.jpclett.0c03077
  Functional external parameters        .... 6
    Parameter  0 _c1        =  6.670000e-01 : c1 parameter        
    Parameter  1 _c2        =  8.000000e-01 : c2 parameter        
    Parameter  2 _d         =  1.240000e+00 : d parameter         
    Parameter  3 _k1        =  6.500000e-02 : k1 parameter        
    Parameter  4 _eta       =  1.000000e-03 : eta parameter       
    Parameter  5 _dp2       =  3.610000e-01 : dp2 parameter       
  Functional kind                       .... Correlation
  Functional name                       .... Re-regularized SCAN correlation by Furness et al
  Functional family                     .... MGGA
  Functional refs                              
    [ 0] J. W. Furness, A. D. Kaplan, J. Ning, J. P. Perdew, and J. Sun.,  J. Phys. Chem. Lett. 11, 8208-8215 (2020), doi: 10.1021/acs.jpclett.0c02405
    [ 1] J. W. Furness, A. D. Kaplan, J. Ning, J. P. Perdew, and J. Sun.,  J. Phys. Chem. Lett. 11, 9248-9248 (2020), doi: 10.1021/acs.jpclett.0c03077
  Functional external parameters        .... 1
    Parameter  0 _eta       =  1.000000e-03 : Regularization parameter
 Gradients option       PostSCFGGA      .... off
 RI-approximation to the Coulomb term is turned on
   Number of AuxJ basis functions       .... 622


General Settings:
 Integral files         IntName         .... sp_gas
 Hartree-Fock type      HFTyp           .... RHF
 Total Charge           Charge          ....    0
 Multiplicity           Mult            ....    1
 Number of Electrons    NEL             ....   74
 Basis Dimension        Dim             ....  260
 Nuclear Repulsion      ENuc            ....    512.0410004162 Eh

Convergence Acceleration:
 AO-DIIS                CNVDIIS         .... on
   Start iteration      DIISMaxIt       ....    12
   Startup error        DIISStart       ....  0.200000
   # of expansion vecs  DIISMaxEq       ....     5
   Bias factor          DIISBfac        ....   1.050
   Max. coefficient     DIISMaxC        ....  10.000
 MO-DIIS                CNVKDIIS        .... off
 Trust-Rad. Augm. Hess. CNVTRAH         .... auto
   Auto Start mean grad. ratio tolernc. ....  1.125000
   Auto Start start iteration           ....     1
   Auto Start num. interpolation iter.  ....    10
   Max. Number of Micro iterations      ....    24
   Max. Number of Macro iterations      .... Maxiter - #DIIS iter
   Number of Davidson start vectors     ....     2
   Converg. threshold    (grad. norm)   ....   3.330e-04
   Grad. Scal. Fac. for Micro threshold ....   0.100
   Minimum threshold for Micro iter.    ....   1.000e-02
   NR start threshold (gradient norm)   ....   1.000e-04
   Initial trust radius                 ....   0.400
   Minimum AH scaling param. (alpha)    ....   1.000
   Maximum AH scaling param. (alpha)    .... 1000.000
   Quad. conv. algorithm                .... NR
   White noise on init. David. guess    .... on
   Maximum white noise                  ....   0.010
   Pseudo random numbers                .... off
   Inactive MOs                         .... canonical
   Orbital update algorithm             .... Taylor
   Preconditioner                       .... Diag
   Full preconditioner red. dimension   ....   250
   COSX micro iterations for RIJONX calc.... off
 SOSCF                  CNVSOSCF        .... on
   Start iteration      SOSCFMaxIt      ....   150
   Startup grad/error   SOSCFStart      ....  0.003300
   Hessian update       SOSCFHessUp     .... L-BFGS
 Level Shifting         CNVShift        .... on
   Level shift para.    LevelShift      ....    0.2500
   Turn off err/grad.   ShiftErr        ....    0.0010
 Zerner damping         CNVZerner       .... off
 Static damping         CNVDamp         .... on
   Fraction old density DampFac         ....    0.7000
   Max. Damping (<1)    DampMax         ....    0.9800
   Min. Damping (>=0)   DampMin         ....    0.0000
   Turn off err/grad.   DampErr         ....    0.1000

SCF Procedure:
 Maximum # iterations   MaxIter         ....   125
 SCF integral mode      SCFMode         .... Direct
   Integral package                     .... SHARK and LIBINT hybrid scheme
 Reset frequency        DirectResetFreq ....    20
 Integral Threshold     Thresh          ....  1.000e-10 Eh
 Primitive CutOff       TCut            ....  1.000e-11 Eh

Convergence Tolerance:
 Convergence Check Mode ConvCheckMode   .... Total+1el-Energy
 Convergence forced     ConvForced      .... 0
 Energy Change          TolE            ....  1.000e-06 Eh
 1-El. energy change                    ....  1.000e-03 Eh
 Orbital Gradient       TolG            ....  3.330e-04
 Orbital Rotation angle TolX            ....  3.330e-04
 DIIS Error             TolErr          ....  1.000e-06

---------------------
INITIAL GUESS: MOREAD
---------------------
Guess MOs are being read from file: sp_gas.ges
Input Geometry matches current geometry (good)
Atom 0: N(Shells)= 9 and 6 - projection required
Input basis set needs projection
NBasis(read)= 164
NBasis(calc)= 260
Basis set overlap was calculated
Using GuessMode=FMatrix for the initial guess
C*T matrix was formed
Effective Fockian was calculated
Effective Fockian was diagonalized
Initial density was built
                      ------------------
                      INITIAL GUESS DONE (   0.1 sec)
                      ------------------
             **** ENERGY FILE WAS UPDATED (sp_gas.en.tmp) ****
Finished Guess after   0.3 sec
Maximum memory used throughout the entire GUESS-calculation: 19.3 MB

-------------------------------------------------------------------------------------------
                                      ORCA LEAN-SCF
                              memory conserving SCF solver
-------------------------------------------------------------------------------------------

----------------------------------------D-I-I-S--------------------------------------------
Iteration    Energy (Eh)           Delta-E    RMSDP     MaxDP     DIISErr   Damp  Time(sec)
-------------------------------------------------------------------------------------------
               ***  Starting incremental Fock matrix formation  ***
    1    -421.2498999392993255     0.00e+00  5.96e-03  4.75e-01  4.39e-01  0.700   4.0
    2    -421.3108216847748508    -6.09e-02  4.61e-03  3.17e-01  3.08e-01  0.700   3.5
    3    -421.3538712005563411    -4.30e-02  3.32e-03  2.14e-01  2.16e-01  0.700   3.4
                               ***Turning on AO-DIIS***
    4    -421.3840827673617468    -3.02e-02  2.37e-03  1.46e-01  1.51e-01  0.700   3.7
    5    -421.4052673310809496    -2.12e-02  1.67e-03  1.01e-01  1.06e-01  0.700   3.6
    6    -421.4201175319868753    -1.49e-02  1.18e-03  6.96e-02  7.40e-02  0.700   3.5
    7    -421.4305237829481712    -1.04e-02  2.76e-03  1.61e-01  5.18e-02  0.000   3.4
                              *** Initializing SOSCF ***
---------------------------------------S-O-S-C-F--------------------------------------
Iteration    Energy (Eh)           Delta-E    RMSDP     MaxDP     MaxGrad    Time(sec)
--------------------------------------------------------------------------------------
    8    -421.4548415406399045    -2.43e-02  1.57e-05  4.73e-04  1.39e-04     3.5
               *** Restarting incremental Fock matrix formation ***
    9    -421.4548416439350831    -1.03e-07  1.17e-05  5.17e-04  5.17e-05     3.9
                  *** Gradient check signals convergence ***

               *****************************************************
               *                     SUCCESS                       *
               *           SCF CONVERGED AFTER   9 CYCLES          *
               *****************************************************

             **** ENERGY FILE WAS UPDATED (sp_gas.en.tmp) ****

----------------
TOTAL SCF ENERGY
----------------

Total Energy       :       -421.45484164393508 Eh          -11468.36928 eV

Components:
Nuclear Repulsion  :        512.04100041616084 Eh           13933.34398 eV
Electronic Energy  :       -933.49584206009592 Eh          -25401.71326 eV
One Electron Energy:      -1583.38292669153157 Eh          -43086.03989 eV
Two Electron Energy:        649.88708463143564 Eh           17684.32663 eV

Virial components:
Potential Energy   :       -841.21334834976665 Eh          -22890.57894 eV
Kinetic Energy     :        419.75850670583162 Eh           11422.20966 eV
Virial Ratio       :          2.00404121634464

DFT components:
N(Alpha)           :       37.000014234032 electrons
N(Beta)            :       37.000014234032 electrons
N(Total)           :       74.000028468065 electrons
E(X)               :      -59.237448115774 Eh       
E(C)               :       -2.369223909771 Eh       
E(XC)              :      -61.606672025545 Eh       

---------------
SCF CONVERGENCE
---------------

  Last Energy change         ...    1.0330e-07  Tolerance :   1.0000e-06
  Last MAX-Density change    ...    5.1733e-04  Tolerance :   1.0000e-05
  Last RMS-Density change    ...    1.1735e-05  Tolerance :   1.0000e-06
  Last DIIS Error            ...    1.3868e-04  Tolerance :   1.0000e-06
  Last Orbital Gradient      ...    5.1664e-05  Tolerance :   3.3300e-04
  Last Orbital Rotation      ...    3.0162e-04  Tolerance :   3.3300e-04


----------------
ORBITAL ENERGIES
----------------

  NO   OCC          E(Eh)            E(eV) 
   0   2.0000     -14.174112      -385.6972 
   1   2.0000     -14.171794      -385.6341 
   2   2.0000     -10.086038      -274.4550 
   3   2.0000     -10.078416      -274.2476 
   4   2.0000     -10.075053      -274.1561 
   5   2.0000     -10.075034      -274.1556 
   6   2.0000     -10.039144      -273.1790 
   7   2.0000     -10.037585      -273.1366 
   8   2.0000     -10.017697      -272.5954 
   9   2.0000     -10.006053      -272.2785 
  10   2.0000      -0.955400       -25.9978 
  11   2.0000      -0.881166       -23.9778 
  12   2.0000      -0.788719       -21.4621 
  13   2.0000      -0.748007       -20.3543 
  14   2.0000      -0.676710       -18.4142 
  15   2.0000      -0.648588       -17.6490 
  16   2.0000      -0.629956       -17.1420 
  17   2.0000      -0.599535       -16.3142 
  18   2.0000      -0.532899       -14.5009 
  19   2.0000      -0.494443       -13.4545 
  20   2.0000      -0.488594       -13.2953 
  21   2.0000      -0.453524       -12.3410 
  22   2.0000      -0.431418       -11.7395 
  23   2.0000      -0.415129       -11.2962 
  24   2.0000      -0.400351       -10.8941 
  25   2.0000      -0.396979       -10.8023 
  26   2.0000      -0.378667       -10.3041 
  27   2.0000      -0.360431        -9.8078 
  28   2.0000      -0.352245        -9.5851 
  29   2.0000      -0.337528        -9.1846 
  30   2.0000      -0.315075        -8.5736 
  31   2.0000      -0.303873        -8.2688 
  32   2.0000      -0.298331        -8.1180 
  33   2.0000      -0.296659        -8.0725 
  34   2.0000      -0.273704        -7.4479 
  35   2.0000      -0.250091        -6.8053 
  36   2.0000      -0.213576        -5.8117 
  37   0.0000      -0.078910        -2.1473 
  38   0.0000      -0.050387        -1.3711 
  39   0.0000       0.071588         1.9480 
  40   0.0000       0.087051         2.3688 
  41   0.0000       0.098060         2.6683 
  42   0.0000       0.105015         2.8576 
  43   0.0000       0.115577         3.1450 
  44   0.0000       0.133162         3.6235 
  45   0.0000       0.134903         3.6709 
  46   0.0000       0.138419         3.7666 
  47   0.0000       0.139669         3.8006 
*Only the first 10 virtual orbitals were printed.

                    ********************************
                    * MULLIKEN POPULATION ANALYSIS *
                    ********************************

-----------------------
MULLIKEN ATOMIC CHARGES
-----------------------
   0 C :   -0.557139
   1 C :    0.009395
   2 C :   -0.464770
   3 C :   -0.367265
   4 C :    0.296245
   5 C :   -0.242904
   6 N :   -0.154777
   7 C :   -0.068523
   8 C :   -0.065964
   9 N :   -0.180654
  10 H :    0.142108
  11 H :    0.188596
  12 H :    0.142401
  13 H :    0.151046
  14 H :    0.145098
  15 H :    0.149139
  16 H :    0.145258
  17 H :    0.172236
  18 H :    0.146354
  19 H :    0.140055
  20 H :    0.136589
  21 H :    0.137475
Sum of atomic charges:    0.0000000

--------------------------------
MULLIKEN REDUCED ORBITAL CHARGES
--------------------------------
  0 C s       :     3.371457  s :     3.371457
      pz      :     1.065659  p :     3.158915
      px      :     1.131939
      py      :     0.961318
      dz2     :     0.005738  d :     0.026766
      dxz     :     0.004477
      dyz     :     0.004473
      dx2y2   :     0.005546
      dxy     :     0.006532

  1 C s       :     3.072221  s :     3.072221
      pz      :     1.044655  p :     2.872258
      px      :     0.920352
      py      :     0.907251
      dz2     :     0.009638  d :     0.046126
      dxz     :     0.008870
      dyz     :     0.006452
      dx2y2   :     0.010656
      dxy     :     0.010510

  2 C s       :     3.327120  s :     3.327120
      pz      :     1.079855  p :     3.110510
      px      :     0.965372
      py      :     1.065282
      dz2     :     0.005466  d :     0.027140
      dxz     :     0.006850
      dyz     :     0.002369
      dx2y2   :     0.007293
      dxy     :     0.005162

  3 C s       :     3.232716  s :     3.232716
      pz      :     1.049961  p :     3.098341
      px      :     0.960996
      py      :     1.087383
      dz2     :     0.009490  d :     0.036208
      dxz     :     0.006610
      dyz     :     0.003585
      dx2y2   :     0.011643
      dxy     :     0.004880

  4 C s       :     3.148509  s :     3.148509
      pz      :     0.846018  p :     2.491355
      px      :     0.801555
      py      :     0.843782
      dz2     :     0.006203  d :     0.063891
      dxz     :     0.009505
      dyz     :     0.009072
      dx2y2   :     0.018774
      dxy     :     0.020337

  5 C s       :     3.302027  s :     3.302027
      pz      :     0.946078  p :     2.887451
      px      :     0.920218
      py      :     1.021156
      dz2     :     0.004325  d :     0.053426
      dxz     :     0.009487
      dyz     :     0.004476
      dx2y2   :     0.016543
      dxy     :     0.018595

  6 N s       :     3.481912  s :     3.481912
      pz      :     1.104981  p :     3.617864
      px      :     1.227827
      py      :     1.285057
      dz2     :     0.005217  d :     0.055001
      dxz     :     0.010158
      dyz     :     0.010590
      dx2y2   :     0.020741
      dxy     :     0.008296

  7 C s       :     3.221606  s :     3.221606
      pz      :     0.931821  p :     2.793760
      px      :     0.983040
      py      :     0.878900
      dz2     :     0.005141  d :     0.053157
      dxz     :     0.005690
      dyz     :     0.008904
      dx2y2   :     0.017258
      dxy     :     0.016164

  8 C s       :     3.214036  s :     3.214036
      pz      :     0.934615  p :     2.797957
      px      :     0.883854
      py      :     0.979488
      dz2     :     0.004327  d :     0.053971
      dxz     :     0.010093
      dyz     :     0.004759
      dx2y2   :     0.016548
      dxy     :     0.018244

  9 N s       :     3.490884  s :     3.490884
      pz      :     1.123495  p :     3.626586
      px      :     1.227568
      py      :     1.275524
      dz2     :     0.006921  d :     0.063184
      dxz     :     0.009165
      dyz     :     0.010490
      dx2y2   :     0.026036
      dxy     :     0.010571

 10 H s       :     0.839667  s :     0.839667
      pz      :     0.009659  p :     0.018225
      px      :     0.004874
      py      :     0.003693

 11 H s       :     0.792205  s :     0.792205
      pz      :     0.003560  p :     0.019199
      px      :     0.010821
      py      :     0.004818

 12 H s       :     0.839312  s :     0.839312
      pz      :     0.006721  p :     0.018286
      px      :     0.006423
      py      :     0.005142

 13 H s       :     0.831372  s :     0.831372
      pz      :     0.010003  p :     0.017582
      px      :     0.004237
      py      :     0.003342

 14 H s       :     0.836644  s :     0.836644
      pz      :     0.004224  p :     0.018257
      px      :     0.003579
      py      :     0.010454

 15 H s       :     0.832558  s :     0.832558
      pz      :     0.006364  p :     0.018303
      px      :     0.006889
      py      :     0.005050

 16 H s       :     0.836529  s :     0.836529
      pz      :     0.009877  p :     0.018213
      px      :     0.004668
      py      :     0.003669

 17 H s       :     0.809708  s :     0.809708
      pz      :     0.009878  p :     0.018056
      px      :     0.003752
      py      :     0.004426

 18 H s       :     0.835644  s :     0.835644
      pz      :     0.003560  p :     0.018001
      px      :     0.003567
      py      :     0.010875

 19 H s       :     0.840770  s :     0.840770
      pz      :     0.005170  p :     0.019175
      px      :     0.003197
      py      :     0.010807

 20 H s       :     0.844098  s :     0.844098
      pz      :     0.003978  p :     0.019314
      px      :     0.012517
      py      :     0.002819

 21 H s       :     0.843339  s :     0.843339
      pz      :     0.005192  p :     0.019186
      px      :     0.003205
      py      :     0.010788


------------------------
MULLIKEN OVERLAP CHARGES
------------------------
B(  0-C ,  1-C ) :   0.4957 B(  0-C ,  2-C ) :  -0.1976 B(  0-C ,  3-C ) :  -0.1527 
B(  0-C , 10-H ) :   0.8612 B(  0-C , 11-H ) :   0.8312 B(  0-C , 12-H ) :   0.7962 
B(  1-C ,  2-C ) :   0.4607 B(  1-C ,  3-C ) :   0.1337 B(  1-C ,  4-C ) :   0.1163 
B(  1-C , 10-H ) :  -0.0892 B(  1-C , 11-H ) :  -0.0971 B(  1-C , 12-H ) :  -0.0887 
B(  1-C , 13-H ) :   0.9142 B(  1-C , 14-H ) :  -0.0915 B(  1-C , 15-H ) :  -0.1019 
B(  1-C , 16-H ) :  -0.0787 B(  1-C , 17-H ) :  -0.0610 B(  1-C , 18-H ) :  -0.0848 
B(  2-C ,  3-C ) :  -0.1749 B(  2-C , 13-H ) :  -0.0846 B(  2-C , 14-H ) :   0.8270 
B(  2-C , 15-H ) :   0.8295 B(  2-C , 16-H ) :   0.8431 B(  3-C ,  5-C ) :  -0.1539 
B(  3-C , 13-H ) :  -0.1706 B(  3-C , 17-H ) :   0.7341 B(  3-C , 18-H ) :   0.8665 
B(  4-C ,  5-C ) :   0.6762 B(  4-C ,  6-N ) :  -0.0768 B(  4-C ,  7-C ) :  -0.1322 
B(  4-C ,  8-C ) :  -0.1667 B(  4-C ,  9-N ) :   0.5164 B(  4-C , 13-H ) :   0.0562 
B(  4-C , 18-H ) :  -0.1398 B(  4-C , 19-H ) :  -0.1872 B(  5-C ,  6-N ) :   0.9229 
B(  5-C ,  7-C ) :  -0.2250 B(  5-C ,  8-C ) :  -0.1128 B(  5-C , 19-H ) :   0.9014 
B(  6-N ,  7-C ) :   0.8797 B(  6-N ,  8-C ) :  -0.1096 B(  6-N , 19-H ) :  -0.0926 
B(  6-N , 20-H ) :  -0.1011 B(  7-C ,  8-C ) :   0.7060 B(  7-C ,  9-N ) :  -0.0796 
B(  7-C , 20-H ) :   0.8628 B(  7-C , 21-H ) :  -0.1094 B(  8-C ,  9-N ) :   0.8366 
B(  8-C , 20-H ) :  -0.1154 B(  8-C , 21-H ) :   0.8505 B(  9-N , 21-H ) :  -0.1113 



                     *******************************
                     * LOEWDIN POPULATION ANALYSIS *
                     *******************************

----------------------
LOEWDIN ATOMIC CHARGES
----------------------
   0 C :   -0.414835
   1 C :   -0.229520
   2 C :   -0.415829
   3 C :   -0.245615
   4 C :    0.155949
   5 C :    0.101999
   6 N :   -0.568024
   7 C :    0.086101
   8 C :    0.101913
   9 N :   -0.585230
  10 H :    0.149724
  11 H :    0.176741
  12 H :    0.151599
  13 H :    0.162773
  14 H :    0.151209
  15 H :    0.155278
  16 H :    0.154322
  17 H :    0.180816
  18 H :    0.169562
  19 H :    0.188102
  20 H :    0.186652
  21 H :    0.186315

-------------------------------
LOEWDIN REDUCED ORBITAL CHARGES
-------------------------------
  0 C s       :     2.969949  s :     2.969949
      pz      :     1.147050  p :     3.381808
      px      :     1.162204
      py      :     1.072554
      dz2     :     0.014174  d :     0.063078
      dxz     :     0.011349
      dyz     :     0.009715
      dx2y2   :     0.013216
      dxy     :     0.014624

  1 C s       :     2.906165  s :     2.906165
      pz      :     1.106634  p :     3.228892
      px      :     1.051673
      py      :     1.070585
      dz2     :     0.021114  d :     0.094464
      dxz     :     0.018624
      dyz     :     0.012176
      dx2y2   :     0.021587
      dxy     :     0.020961

  2 C s       :     2.971106  s :     2.971106
      pz      :     1.154413  p :     3.380944
      px      :     1.089596
      py      :     1.136935
      dz2     :     0.013710  d :     0.063779
      dxz     :     0.015718
      dyz     :     0.005738
      dx2y2   :     0.016768
      dxy     :     0.011845

  3 C s       :     2.914880  s :     2.914880
      pz      :     1.112351  p :     3.253177
      px      :     1.025741
      py      :     1.115084
      dz2     :     0.020307  d :     0.077558
      dxz     :     0.013834
      dyz     :     0.007859
      dx2y2   :     0.025853
      dxy     :     0.009705

  4 C s       :     2.794914  s :     2.794914
      pz      :     0.878249  p :     2.911681
      px      :     1.016636
      py      :     1.016795
      dz2     :     0.011891  d :     0.137456
      dxz     :     0.017909
      dyz     :     0.019982
      dx2y2   :     0.043269
      dxy     :     0.044405

  5 C s       :     2.827962  s :     2.827962
      pz      :     0.906838  p :     2.949013
      px      :     1.027977
      py      :     1.014199
      dz2     :     0.008785  d :     0.121027
      dxz     :     0.019422
      dyz     :     0.009057
      dx2y2   :     0.039840
      dxy     :     0.043922

  6 N s       :     3.239869  s :     3.239869
      pz      :     1.115660  p :     3.858981
      px      :     1.367059
      py      :     1.376262
      dz2     :     0.060635  d :     0.469174
      dxz     :     0.084577
      dyz     :     0.066107
      dx2y2   :     0.120732
      dxy     :     0.137124

  7 C s       :     2.834615  s :     2.834615
      pz      :     0.909876  p :     2.959363
      px      :     1.038009
      py      :     1.011478
      dz2     :     0.009755  d :     0.119921
      dxz     :     0.011470
      dyz     :     0.019714
      dx2y2   :     0.041642
      dxy     :     0.037341

  8 C s       :     2.831664  s :     2.831664
      pz      :     0.899155  p :     2.944485
      px      :     1.029727
      py      :     1.015603
      dz2     :     0.008736  d :     0.121938
      dxz     :     0.020845
      dyz     :     0.009459
      dx2y2   :     0.039476
      dxy     :     0.043422

  9 N s       :     3.226102  s :     3.226102
      pz      :     1.142511  p :     3.871384
      px      :     1.349781
      py      :     1.379093
      dz2     :     0.062543  d :     0.487744
      dxz     :     0.087070
      dyz     :     0.065658
      dx2y2   :     0.128639
      dxy     :     0.143834

 10 H s       :     0.806696  s :     0.806696
      pz      :     0.023824  p :     0.043580
      px      :     0.011476
      py      :     0.008280

 11 H s       :     0.775604  s :     0.775604
      pz      :     0.007924  p :     0.047655
      px      :     0.027933
      py      :     0.011798

 12 H s       :     0.804730  s :     0.804730
      pz      :     0.016195  p :     0.043671
      px      :     0.015493
      py      :     0.011984

 13 H s       :     0.794067  s :     0.794067
      pz      :     0.024568  p :     0.043160
      px      :     0.010252
      py      :     0.008339

 14 H s       :     0.805348  s :     0.805348
      pz      :     0.009406  p :     0.043443
      px      :     0.008135
      py      :     0.025903

 15 H s       :     0.801164  s :     0.801164
      pz      :     0.015289  p :     0.043559
      px      :     0.016489
      py      :     0.011781

 16 H s       :     0.802097  s :     0.802097
      pz      :     0.024676  p :     0.043580
      px      :     0.010822
      py      :     0.008082

 17 H s       :     0.774889  s :     0.774889
      pz      :     0.025031  p :     0.044294
      px      :     0.008822
      py      :     0.010441

 18 H s       :     0.786869  s :     0.786869
      pz      :     0.008374  p :     0.043569
      px      :     0.008066
      py      :     0.027130

 19 H s       :     0.770149  s :     0.770149
      pz      :     0.011196  p :     0.041750
      px      :     0.006183
      py      :     0.024371

 20 H s       :     0.771370  s :     0.771370
      pz      :     0.008363  p :     0.041978
      px      :     0.027680
      py      :     0.005935

 21 H s       :     0.772031  s :     0.772031
      pz      :     0.011107  p :     0.041654
      px      :     0.006279
      py      :     0.024267


---------------------------------
LOEWDIN BOND ORDERS (THRESH 0.050000)
---------------------------------
B(  0-C ,  1-C ) :   1.1082 B(  0-C ,  2-C ) :   0.0721 B(  0-C ,  3-C ) :   0.0662 
B(  0-C , 10-H ) :   0.9230 B(  0-C , 11-H ) :   0.8998 B(  0-C , 12-H ) :   0.9235 
B(  1-C ,  2-C ) :   1.1135 B(  1-C ,  3-C ) :   1.0440 B(  1-C ,  4-C ) :   0.0673 
B(  1-C , 13-H ) :   0.8574 B(  2-C ,  3-C ) :   0.0777 B(  2-C , 14-H ) :   0.9259 
B(  2-C , 15-H ) :   0.9217 B(  2-C , 16-H ) :   0.9209 B(  3-C ,  4-C ) :   1.0059 
B(  3-C ,  5-C ) :   0.0931 B(  3-C ,  9-N ) :   0.1710 B(  3-C , 17-H ) :   0.8579 
B(  3-C , 18-H ) :   0.8662 B(  4-C ,  5-C ) :   1.2090 B(  4-C ,  6-N ) :   0.1989 
B(  4-C ,  7-C ) :   0.1266 B(  4-C ,  8-C ) :   0.1094 B(  4-C ,  9-N ) :   1.7214 
B(  4-C , 19-H ) :   0.0534 B(  5-C ,  6-N ) :   1.8360 B(  5-C ,  7-C ) :   0.1119 
B(  5-C ,  8-C ) :   0.1327 B(  5-C ,  9-N ) :   0.1955 B(  5-C , 19-H ) :   0.7977 
B(  6-N ,  7-C ) :   1.7951 B(  6-N ,  8-C ) :   0.2053 B(  6-N ,  9-N ) :   0.1654 
B(  6-N , 19-H ) :   0.1147 B(  6-N , 20-H ) :   0.1138 B(  7-C ,  8-C ) :   1.2964 
B(  7-C ,  9-N ) :   0.2017 B(  7-C , 20-H ) :   0.8064 B(  7-C , 21-H ) :   0.0554 
B(  8-C ,  9-N ) :   1.7917 B(  8-C , 20-H ) :   0.0555 B(  8-C , 21-H ) :   0.8037 
B(  9-N , 21-H ) :   0.1156 

------------------------------------------
LOEWDIN REDUCED ORBITAL POPULATIONS PER MO
-------------------------------------------
THRESHOLD FOR PRINTING IS 0.1%%
                      0         1         2         3         4         5   
                 -14.17411 -14.17179 -10.08604 -10.07842 -10.07505 -10.07503
                   2.00000   2.00000   2.00000   2.00000   2.00000   2.00000
                  --------  --------  --------  --------  --------  --------
 4 C  s               0.0       0.0      99.2       0.0       0.1       0.0
 5 C  s               0.0       0.0       0.1       0.0      96.2       3.0
 6 N  s              99.8       0.0       0.0       0.0       0.0       0.0
 6 N  px              0.0       0.0       0.0       0.0       0.2       0.0
 6 N  py              0.0       0.0       0.0       0.0       0.0       0.1
 6 N  dyz             0.0       0.0       0.0       0.0       0.0       0.1
 6 N  dx2y2           0.0       0.0       0.0       0.0       0.3       0.1
 7 C  s               0.0       0.0       0.0       0.5       3.0      95.8
 8 C  s               0.0       0.0       0.0      98.8       0.0       0.5
 9 N  s               0.0      99.8       0.0       0.0       0.0       0.0
 9 N  px              0.0       0.0       0.0       0.1       0.0       0.0
 9 N  py              0.0       0.0       0.1       0.0       0.0       0.0
 9 N  dyz             0.0       0.0       0.1       0.0       0.0       0.0
 9 N  dx2y2           0.0       0.0       0.1       0.2       0.0       0.0

                      6         7         8         9        10        11   
                 -10.03914 -10.03758 -10.01770 -10.00605  -0.95540  -0.88117
                   2.00000   2.00000   2.00000   2.00000   2.00000   2.00000
                  --------  --------  --------  --------  --------  --------
 0 C  s               0.0       0.0       0.0      99.7       0.0       0.1
 1 C  s               0.2      99.5       0.0       0.0       0.1       0.2
 1 C  px              0.0       0.0       0.1       0.0       0.2       0.1
 2 C  s               0.0       0.0      99.7       0.0       0.0       0.0
 3 C  s              99.5       0.2       0.0       0.0       0.8       0.8
 3 C  px              0.0       0.0       0.0       0.0       0.9       0.3
 3 C  py              0.0       0.0       0.0       0.0       0.0       0.2
 4 C  s               0.0       0.0       0.0       0.0       9.5       4.3
 4 C  pz              0.0       0.0       0.0       0.0       0.4       0.9
 4 C  px              0.1       0.0       0.0       0.0       2.5       0.3
 4 C  py              0.0       0.0       0.0       0.0       0.9       5.7
 4 C  dyz             0.0       0.0       0.0       0.0       0.1       0.1
 4 C  dxy             0.0       0.0       0.0       0.0       0.0       0.2
 5 C  s               0.0       0.0       0.0       0.0       9.0       3.9
 5 C  pz              0.0       0.0       0.0       0.0       0.6       0.1
 5 C  px              0.0       0.0       0.0       0.0       1.3       7.6
 5 C  py              0.0       0.0       0.0       0.0       2.1       0.3
 5 C  dz2             0.0       0.0       0.0       0.0       0.1       0.1
 5 C  dx2y2           0.0       0.0       0.0       0.0       0.1       0.3
 5 C  dxy             0.0       0.0       0.0       0.0       0.0       0.1
 6 N  s               0.0       0.0       0.0       0.0      17.0      24.3
 6 N  pz              0.0       0.0       0.0       0.0       0.1       0.1
 6 N  px              0.0       0.0       0.0       0.0       1.3       0.8
 6 N  py              0.0       0.0       0.0       0.0       1.5       0.9
 6 N  dz2             0.0       0.0       0.0       0.0       0.4       0.0
 6 N  dyz             0.0       0.0       0.0       0.0       0.2       0.0
 6 N  dxy             0.0       0.0       0.0       0.0       0.0       0.3
 7 C  s               0.0       0.0       0.0       0.0       8.7       4.3
 7 C  pz              0.0       0.0       0.0       0.0       0.4       1.0
 7 C  px              0.0       0.0       0.0       0.0       2.9       0.2
 7 C  py              0.0       0.0       0.0       0.0       0.8       6.0
 7 C  dyz             0.0       0.0       0.0       0.0       0.1       0.2
 7 C  dx2y2           0.0       0.0       0.0       0.0       0.0       0.1
 7 C  dxy             0.0       0.0       0.0       0.0       0.0       0.2
 8 C  s               0.0       0.0       0.0       0.0       9.0       3.1
 8 C  pz              0.0       0.0       0.0       0.0       0.6       0.1
 8 C  px              0.0       0.0       0.0       0.0       1.5       6.6
 8 C  py              0.0       0.0       0.0       0.0       2.0       0.3
 8 C  dz2             0.0       0.0       0.0       0.0       0.1       0.0
 8 C  dx2y2           0.0       0.0       0.0       0.0       0.1       0.3
 9 N  s               0.0       0.0       0.0       0.0      18.2      21.6
 9 N  pz              0.0       0.0       0.0       0.0       0.1       0.1
 9 N  px              0.0       0.0       0.0       0.0       1.3       0.5
 9 N  py              0.0       0.0       0.0       0.0       1.6       0.9
 9 N  dz2             0.0       0.0       0.0       0.0       0.4       0.0
 9 N  dyz             0.0       0.0       0.0       0.0       0.3       0.0
 9 N  dxy             0.0       0.0       0.0       0.0       0.0       0.4
19 H  s               0.0       0.0       0.0       0.0       0.6       0.3
20 H  s               0.0       0.0       0.0       0.0       0.5       0.4
21 H  s               0.0       0.0       0.0       0.0       0.6       0.3

                     12        13        14        15        16        17   
                  -0.78872  -0.74801  -0.67671  -0.64859  -0.62996  -0.59954
                   2.00000   2.00000   2.00000   2.00000   2.00000   2.00000
                  --------  --------  --------  --------  --------  --------
 0 C  s               5.6       5.8       4.1      22.0       2.4       2.3
 0 C  px              0.0       0.0       0.2       0.2       0.0       0.3
 0 C  py              2.3       1.1       0.0       0.5       0.1       0.5
 1 C  s              17.5      10.2       0.7       0.1       0.0       0.9
 1 C  pz              0.9       0.0       0.9       0.1       0.0       0.6
 1 C  px              0.1       1.4       5.1       3.4       0.0       2.8
 1 C  py              0.1       0.1       1.5      12.0       0.8       1.5
 1 C  dx2y2           0.0       0.0       0.0       0.2       0.0       0.0
 2 C  s               6.3       7.4       6.2      20.2       0.7       2.7
 2 C  px              1.9       0.8       0.1       0.3       0.0       1.1
 2 C  py              0.4       0.4       0.2       0.9       0.1       0.0
 3 C  s              17.1       0.0      14.8       0.1       0.0       6.3
 3 C  pz              0.7       0.3       0.3       0.0       0.1       0.1
 3 C  px              0.1       5.0       1.0       0.1       0.1       3.3
 3 C  py              0.3       0.3       0.3       1.3       0.5       0.0
 4 C  s               5.9       7.3       1.6       0.0       0.2       6.3
 4 C  pz              0.5       0.2       0.7       0.1       1.6       0.0
 4 C  px              3.4       0.4       6.7       0.1       1.1       2.8
 4 C  py              1.3       1.0       0.7       1.0      11.9       0.5
 4 C  dx2y2           0.1       0.0       0.1       0.0       0.1       0.1
 4 C  dxy             0.0       0.0       0.0       0.0       0.2       0.1
 5 C  s               3.0       7.9       1.9       0.6      10.1       0.3
 5 C  pz              0.0       0.0       0.0       0.0       0.3       0.0
 5 C  px              0.9       1.0       2.7       0.3       1.9       9.5
 5 C  py              0.1       0.2       0.4       0.0       0.8       2.7
 5 C  dx2y2           0.0       0.0       0.0       0.0       0.0       0.2
 5 C  dxy             0.0       0.1       0.0       0.0       0.0       0.1
 6 N  s               0.1       0.0       0.6       0.3       3.0       3.6
 6 N  pz              0.2       1.0       1.1       0.0       1.0       0.7
 6 N  px              0.9       3.9       4.1       0.3       6.2       1.3
 6 N  py              0.6       2.5       3.1       0.1       2.2       3.0
 6 N  dz2             0.0       0.0       0.0       0.0       0.2       0.2
 6 N  dyz             0.1       0.3       0.3       0.0       0.1       0.1
 6 N  dx2y2           0.5       1.6       0.7       0.0       0.3       0.0
 7 C  s               1.8       8.2       8.9       0.0       0.2       5.1
 7 C  pz              0.1       0.1       0.2       0.1       1.4       0.3
 7 C  px              0.1       0.2       0.3       0.1       1.4       0.8
 7 C  py              0.6       0.8       0.7       0.6      10.8       1.0
 7 C  dxy             0.0       0.1       0.0       0.0       0.2       0.0
 8 C  s               4.8       7.4       1.4       0.6      10.5       0.7
 8 C  pz              0.0       0.0       0.0       0.0       0.3       0.1
 8 C  px              0.1       1.1       5.9       0.0       1.5       7.3
 8 C  py              0.1       0.2       0.5       0.0       0.8       3.1
 8 C  dxy             0.0       0.1       0.1       0.0       0.0       0.0
 9 N  s               1.1       0.0       2.1       0.1       3.0       1.5
 9 N  pz              0.5       0.9       0.0       0.1       1.1       1.7
 9 N  px              3.6       3.0       0.2       0.7       6.7       2.9
 9 N  py              1.2       2.4       0.1       0.1       2.5       6.2
 9 N  dz2             0.0       0.1       0.1       0.0       0.2       0.0
 9 N  dxz             0.0       0.0       0.2       0.0       0.1       0.0
 9 N  dyz             0.2       0.3       0.1       0.0       0.1       0.2
 9 N  dx2y2           0.5       1.9       0.2       0.0       0.3       0.6
 9 N  dxy             0.2       0.0       0.3       0.0       0.0       0.2
10 H  s               0.7       0.8       0.8       4.9       0.6       0.7
10 H  pz              0.0       0.1       0.1       0.3       0.0       0.0
11 H  s               0.7       0.7       0.7       5.5       0.4       0.5
11 H  px              0.0       0.1       0.0       0.4       0.0       0.0
12 H  s               0.6       0.8       1.0       4.9       0.6       1.0
12 H  pz              0.0       0.0       0.0       0.2       0.0       0.0
12 H  px              0.0       0.0       0.0       0.2       0.0       0.0
13 H  s               2.1       1.4       0.1       0.0       0.0       0.2
13 H  pz              0.2       0.1       0.0       0.0       0.0       0.0
14 H  s               0.8       1.1       1.1       5.5       0.2       0.7
14 H  py              0.1       0.1       0.1       0.4       0.0       0.0
15 H  s               0.7       1.1       1.5       4.5       0.2       1.3
15 H  pz              0.0       0.0       0.1       0.1       0.0       0.0
15 H  px              0.0       0.0       0.1       0.1       0.0       0.0
16 H  s               0.8       1.1       1.2       4.7       0.2       0.8
16 H  pz              0.1       0.1       0.1       0.3       0.0       0.1
17 H  s               2.2       0.0       3.3       0.0       0.0       2.2
17 H  pz              0.2       0.0       0.3       0.0       0.0       0.2
18 H  s               2.4       0.0       3.5       0.3       0.1       2.0
18 H  py              0.2       0.0       0.3       0.0       0.0       0.2
19 H  s               0.5       1.4       0.4       0.2       4.5       0.0
19 H  py              0.0       0.1       0.0       0.0       0.3       0.0
20 H  s               0.2       1.5       2.6       0.0       0.1       2.7
20 H  px              0.0       0.1       0.2       0.0       0.0       0.2
21 H  s               0.7       1.4       0.3       0.2       4.6       0.6
21 H  py              0.1       0.1       0.0       0.0       0.3       0.0

                     18        19        20        21        22        23   
                  -0.53290  -0.49444  -0.48859  -0.45352  -0.43142  -0.41513
                   2.00000   2.00000   2.00000   2.00000   2.00000   2.00000
                  --------  --------  --------  --------  --------  --------
 0 C  s               4.0       0.0       0.0       0.0       0.8       0.0
 0 C  pz              1.7       0.1       0.8       1.9       1.3       4.9
 0 C  px              0.4       0.3       0.0       0.1       0.1       0.0
 0 C  py              5.5       0.1       0.0       0.7       8.7       0.0
 0 C  dx2y2           0.1       0.0       0.0       0.0       0.1       0.0
 1 C  s              13.1       0.6       0.2       0.2       1.0       0.0
 1 C  pz              5.7       0.1       3.0       6.1       3.9       6.8
 1 C  px              1.7       0.2       0.0       0.6       1.5       0.1
 1 C  py              0.3       0.1       0.0       0.1       2.6       1.6
 2 C  s               3.0       0.4       0.0       0.2       0.0       0.0
 2 C  pz              1.0       0.0       0.7       2.8       1.7       7.6
 2 C  px              6.1       1.1       0.0       1.5       0.1       1.3
 2 C  py              0.8       0.1       0.0       0.1       5.5       1.0
 3 C  s               2.3       0.0       0.6       0.0       0.3       0.1
 3 C  pz              8.2       0.0       1.3       2.4       4.2       4.1
 3 C  px              1.2       0.7       1.9       9.7       0.0       3.8
 3 C  py              1.3       2.5       0.5       0.0      12.4       0.4
 4 C  s               0.0       0.0       0.1       2.0       0.6       0.2
 4 C  pz              1.4       0.6       0.1       0.2       5.1       7.4
 4 C  px              1.4       4.0       0.7       4.3       1.2       1.9
 4 C  py              0.1      10.1       2.4       0.9       0.5       1.1
 4 C  dx2y2           0.0       0.1       0.1       0.2       0.0       0.0
 4 C  dxy             0.0       0.0       0.0       0.0       0.2       0.1
 5 C  s               0.3       0.2       1.1       1.5       0.0       0.1
 5 C  pz              0.1       0.6       1.2       1.6       0.7       7.2
 5 C  px              0.0       7.2       6.1       0.4       0.4       0.1
 5 C  py              0.0       7.5       4.7       5.1       4.4       1.5
 5 C  dx2y2           0.0       0.0       0.0       0.3       0.0       0.0
 6 N  s               0.6       0.6       0.8       1.3       0.1       0.0
 6 N  pz              0.0       2.0       0.3       0.1       0.8       3.6
 6 N  px              0.9       1.7      10.5       0.1       0.5       0.1
 6 N  py              0.1       8.6       0.2       0.3       0.8       0.6
 6 N  dz2             0.0       0.0       0.0       0.2       0.0       0.0
 6 N  dxz             0.0       0.2       0.5       0.4       0.1       0.2
 6 N  dyz             0.0       0.1       0.0       0.3       0.2       0.0
 6 N  dx2y2           0.0       0.2       0.5       0.0       0.2       0.7
 6 N  dxy             0.0       1.2       2.0       1.0       0.1       0.0
 7 C  s               0.1       0.7       0.7       1.7       0.2       0.2
 7 C  pz              0.3       1.7       0.1       0.3       1.2       3.0
 7 C  px              0.1       3.6      14.8       4.1       1.0       1.9
 7 C  py              1.6       6.1       5.6       0.8       0.5       1.0
 7 C  dx2y2           0.0       0.0       0.0       0.3       0.0       0.0
 8 C  s               0.0       0.5       0.3       1.6       0.2       0.1
 8 C  pz              0.0       0.9       0.7       2.4       0.1       7.8
 8 C  px              1.9       8.4       4.9       1.1       0.1       0.1
 8 C  py              0.8       1.6       6.5       7.9       8.4       3.1
 8 C  dx2y2           0.0       0.0       0.1       0.3       0.0       0.0
 8 C  dxy             0.0       0.0       0.0       0.0       0.0       0.1
 9 N  s               0.3       0.8       1.9       1.2       0.2       0.0
 9 N  pz              0.1       0.9       1.5       0.3       2.4       4.3
 9 N  px              0.5      11.9       0.3       0.8       0.1       0.9
 9 N  py              1.8       0.7       5.1       0.3       0.9       1.4
 9 N  dz2             0.0       0.0       0.0       0.2       0.1       0.1
 9 N  dxz             0.1       0.2       0.0       0.4       0.0       0.1
 9 N  dyz             0.0       0.0       0.0       0.2       0.7       0.0
 9 N  dx2y2           0.0       0.4       0.2       0.0       0.1       0.8
 9 N  dxy             0.0       0.7       0.8       1.5       0.4       0.1
10 H  s               3.5       0.0       0.3       0.3       0.0       1.9
10 H  pz              0.2       0.0       0.0       0.0       0.0       0.0
11 H  s               1.8       0.2       0.0       0.3       1.8       0.0
11 H  px              0.1       0.0       0.0       0.0       0.1       0.0
12 H  s               2.0       0.0       0.0       0.5       2.5       0.6
13 H  s               9.5       0.2       1.1       1.3       0.6       1.6
13 H  pz              0.6       0.0       0.0       0.0       0.0       0.0
14 H  s               1.5       0.2       0.0       0.4       2.8       0.0
15 H  s               1.7       0.3       0.0       1.4       0.0       3.4
16 H  s               3.0       0.3       0.2       0.1       0.5       1.4
16 H  pz              0.2       0.0       0.0       0.0       0.0       0.0
17 H  s               3.4       0.0       1.5       1.4       2.3       1.7
17 H  pz              0.1       0.0       0.1       0.0       0.1       0.0
18 H  s               1.9       0.8       0.0       0.3       6.7       0.1
18 H  py              0.1       0.0       0.0       0.0       0.2       0.0
19 H  s               0.0       1.7       5.0       6.3       0.8       1.8
19 H  px              0.0       0.1       0.0       0.0       0.0       0.0
19 H  py              0.0       0.0       0.2       0.2       0.0       0.0
20 H  s               0.1       2.9       5.4       5.1       0.0       0.7
20 H  px              0.0       0.1       0.2       0.2       0.0       0.0
21 H  s               0.0       2.3       0.8       8.8       4.0       3.9
21 H  py              0.0       0.1       0.0       0.2       0.1       0.1

                     24        25        26        27        28        29   
                  -0.40035  -0.39698  -0.37867  -0.36043  -0.35224  -0.33753
                   2.00000   2.00000   2.00000   2.00000   2.00000   2.00000
                  --------  --------  --------  --------  --------  --------
 0 C  s               0.2       0.0       0.0       0.0       0.0       0.0
 0 C  pz              0.2       2.8       1.3       0.8      27.1       3.6
 0 C  px              0.0      18.5       7.1       0.3       3.3       9.9
 0 C  py              3.9       0.2       0.0       0.2       0.1       0.3
 0 C  dz2             0.0       0.0       0.0       0.0       0.2       0.0
 0 C  dxz             0.0       0.1       0.0       0.0       0.2       0.1
 1 C  pz              0.9       0.9       0.8       0.2       0.1       0.2
 1 C  px              0.0       9.6       1.8       2.1       0.0       0.3
 1 C  py              3.8       0.1       1.5       0.9       1.5       0.2
 1 C  dyz             0.0       0.0       0.0       0.0       0.2       0.0
 2 C  s               0.0       0.2       0.1       0.0       0.0       0.0
 2 C  pz              0.7       1.1       4.9      10.9      13.2       5.7
 2 C  px              4.6       0.4       2.9       6.5       0.2       6.0
 2 C  py              5.5      14.4       0.8       3.4       0.0       9.4
 2 C  dz2             0.1       0.0       0.0       0.2       0.1       0.0
 2 C  dxz             0.0       0.0       0.0       0.0       0.1       0.2
 3 C  s               0.0       0.3       0.2       0.2       0.1       0.1
 3 C  pz              0.1       2.6       6.9       8.7       3.3       0.1
 3 C  px              2.7       0.0       0.3       1.6       2.3       5.0
 3 C  py              4.0       6.9       3.2       1.1       1.1       6.9
 3 C  dz2             0.0       0.0       0.2       0.1       0.0       0.0
 3 C  dx2y2           0.0       0.0       0.0       0.0       0.1       0.4
 4 C  s               0.0       0.1       0.1       0.0       0.2       0.4
 4 C  pz              2.1       0.6       0.0       0.2       0.1       1.8
 4 C  px              5.3       0.0       1.8       1.6       2.2       3.3
 4 C  py              0.7       0.3       1.1       1.7       0.7       0.2
 4 C  dx2y2           0.0       0.0       0.1       0.3       0.2       0.2
 4 C  dxy             0.0       0.1       0.1       0.0       0.0       0.0
 5 C  s               0.1       0.2       0.3       0.1       0.1       0.0
 5 C  pz              1.2       1.5       4.4       0.0       0.0       0.1
 5 C  px              1.1       1.3       0.5       2.1       0.6       0.3
 5 C  py              8.0       0.2       3.3       2.9       0.3       0.1
 5 C  dx2y2           0.0       0.1       0.0       0.3       0.1       0.1
 5 C  dxy             0.0       0.0       0.1       0.0       0.0       0.0
 6 N  s               0.0       0.2       0.2       0.0       0.0       0.0
 6 N  pz              7.8       0.3       2.2       5.9       0.7       0.5
 6 N  px              0.3       0.6       3.4       1.7       0.4       0.2
 6 N  py              0.4       2.2       1.9       0.4       0.5       1.5
 6 N  dxz             0.2       0.0       0.0       0.0       0.0       0.0
 6 N  dyz             0.4       0.0       0.0       0.1       0.0       0.0
 6 N  dx2y2           0.1       0.1       0.6       0.1       0.0       0.0
 7 C  s               0.1       0.1       0.1       0.1       0.0       0.0
 7 C  pz              2.7       1.6       5.6       0.9       0.0       1.3
 7 C  px              6.7       1.6       5.6       3.5       0.8       0.1
 7 C  py              1.5       0.1       0.1       2.8       0.5       0.1
 7 C  dx2y2           0.0       0.0       0.3       0.3       0.1       0.0
 8 C  s               0.1       0.0       0.3       0.1       0.0       0.1
 8 C  pz              2.1       1.1       1.3       2.7       0.6       0.0
 8 C  px              0.5       0.1       1.9       1.3       1.0       1.0
 8 C  py              5.7       0.1       0.7       0.5       0.6       1.2
 8 C  dx2y2           0.0       0.0       0.1       0.3       0.1       0.1
 9 N  s               0.0       0.1       0.0       0.0       0.1       0.1
 9 N  pz              6.5       0.3       2.5       0.2       0.2       0.1
 9 N  px              0.1       0.2       1.2       1.9       1.7       1.7
 9 N  py              0.4       1.4       0.1       1.6       0.5       0.6
 9 N  dz2             0.1       0.1       0.0       0.1       0.0       0.1
 9 N  dxz             0.4       0.0       0.0       0.3       0.0       0.1
 9 N  dyz             0.3       0.0       0.0       0.0       0.0       0.0
 9 N  dx2y2           0.2       0.4       0.2       0.1       0.0       0.1
 9 N  dxy             0.0       0.1       0.5       0.0       0.2       0.2
10 H  s               0.0       0.0       2.0       0.6      14.6       0.1
10 H  pz              0.0       0.0       0.1       0.0       0.2       0.0
10 H  px              0.0       0.1       0.0       0.0       0.1       0.1
11 H  s               0.7       6.3       1.8       0.1       1.8       3.5
11 H  pz              0.0       0.0       0.0       0.0       0.2       0.0
11 H  px              0.0       0.1       0.0       0.0       0.0       0.0
12 H  s               1.0       4.6       0.3       0.0       2.9       6.1
12 H  px              0.0       0.0       0.0       0.0       0.2       0.0
12 H  py              0.0       0.1       0.0       0.0       0.0       0.0
13 H  s               0.3       0.0       0.5       0.0       0.0       0.1
14 H  s               2.5       5.5       0.8       3.9       0.5       3.8
14 H  pz              0.0       0.1       0.0       0.0       0.1       0.1
14 H  py              0.0       0.1       0.0       0.1       0.0       0.0
15 H  s               1.6       1.2       2.3       0.1       1.8      11.4
15 H  pz              0.1       0.0       0.0       0.1       0.0       0.1
16 H  s               1.4       0.9       0.7       8.3       6.3       0.9
16 H  pz              0.1       0.0       0.0       0.2       0.1       0.0
17 H  s               0.0       0.5       6.4       5.0       0.9       0.3
17 H  pz              0.0       0.0       0.1       0.1       0.0       0.0
18 H  s               2.4       3.6       0.8       0.4       1.0       6.4
18 H  py              0.1       0.1       0.0       0.0       0.0       0.1
19 H  s               2.8       1.3       3.4       3.1       0.8       0.4
20 H  s               2.7       1.1       5.9       3.1       0.9       0.3
20 H  px              0.0       0.0       0.1       0.0       0.0       0.0
21 H  s               1.1       0.2       0.7       2.6       1.2       1.1

[...]
 5 C  px              0.9       1.8       0.8       3.4       0.0       0.0
 5 C  py              0.0       0.2       1.2       0.0       0.0       0.0
 5 C  dz2             0.5       0.2       0.8       0.2       0.0       0.0
 5 C  dxz             0.6       0.2       0.0       0.6       0.0       0.0
 5 C  dyz             0.9       0.1       0.7       0.0       0.0       0.0
 5 C  dx2y2           0.0       2.2       7.3       2.1       0.0       0.0
 5 C  dxy             1.5       0.1       2.1       0.9       0.0       0.0
 6 N  s               7.9       0.0       2.3       0.0       0.2       0.0
 6 N  pz              0.1       1.6       0.1       1.3       0.0       0.0
 6 N  px              2.8       6.6       0.8       6.0       0.0       0.0
 6 N  py              2.4       4.5       0.2       3.4       0.0       0.0
 6 N  dz2             4.6       0.2       1.0       0.2       0.0       0.0
 6 N  dxz             0.2       0.1       3.1       0.0       0.0       0.0
 6 N  dyz             2.3       3.4       0.4       2.2       0.0       0.0
 6 N  dx2y2           0.2      17.8       3.0      11.9       0.0       0.0
 6 N  dxy             0.6       0.5       7.6       0.9       0.0       0.0
 7 C  s               2.2       2.1       0.2       1.2      30.5       0.3
 7 C  pz              0.1       0.4       0.0       0.6       0.0       0.0
 7 C  px              0.3       0.4       1.4       0.6       0.0       0.0
 7 C  py              0.5       1.6       0.0       2.4       0.0       0.0
 7 C  dz2             1.4       0.1       0.0       0.0       0.0       0.0
 7 C  dxz             1.2       0.1       0.9       0.0       0.0       0.0
 7 C  dyz             0.4       1.2       0.7       1.3       0.0       0.0
 7 C  dx2y2           2.0       1.6       6.7       3.2       0.0       0.0
 7 C  dxy             1.4       0.8       1.6       0.8       0.0       0.0
 8 C  s               4.5       1.2       0.6       1.7      22.9       1.9
 8 C  pz              0.1       0.0       0.3       0.3       0.0       0.0
 8 C  px              2.1       0.9       0.2       3.5       0.0       0.0
 8 C  py              0.2       0.0       1.3       0.3       0.0       0.0
 8 C  dz2             1.7       0.0       0.5       0.4       0.0       0.0
 8 C  dxz             1.3       0.2       0.0       0.4       0.0       0.0
 8 C  dyz             2.2       0.0       0.9       0.2       0.0       0.0
 8 C  dx2y2           0.0       0.3       6.2       4.6       0.0       0.0
 8 C  dxy             2.4       0.4       2.9       0.1       0.0       0.0
 9 N  s              11.4       1.7       2.7       0.1       0.3       0.0
 9 N  pz              0.0       1.8       0.0       1.8       0.0       0.0
 9 N  px              5.9       4.9       0.2       7.1       0.0       0.0
 9 N  py              1.6       5.9       0.1       5.1       0.0       0.0
 9 N  dz2             7.2       0.1       0.8       0.1       0.0       0.0
 9 N  dxz             1.0       0.0       2.7       0.2       0.0       0.0
 9 N  dyz             2.3       5.2       1.4       2.6       0.0       0.0
 9 N  dx2y2           2.4      12.8       0.3      14.5       0.0       0.0
 9 N  dxy             0.2       1.6       8.7       0.1       0.0       0.0
11 H  px              0.1       0.0       0.1       0.0       0.0       0.0
13 H  s               0.1       0.2       0.0       0.0       0.0       0.0
13 H  pz              0.1       0.3       0.0       0.1       0.0       0.0
17 H  py              0.0       0.1       0.0       0.0       0.0       0.0
18 H  s               0.1       0.0       0.3       0.0       0.0       0.0
18 H  py              0.2       0.0       0.5       0.0       0.0       0.0
19 H  s               0.4       0.1       1.5       0.0       0.0       0.0
19 H  pz              0.1       0.0       0.4       0.0       0.0       0.0
19 H  px              0.1       0.0       0.0       0.0       0.0       0.0
19 H  py              0.6       0.2       2.0       0.0       0.0       0.0
20 H  s               1.4       0.1       1.8       0.4       0.0       0.0
20 H  pz              0.2       0.0       0.1       0.0       0.0       0.0
20 H  px              3.0       0.1       3.1       0.4       0.0       0.0
21 H  s               1.1       0.0       1.7       0.4       0.0       0.0
21 H  pz              0.5       0.0       0.5       0.1       0.0       0.0
21 H  px              0.5       0.0       0.1       0.0       0.0       0.0
21 H  py              1.9       0.1       2.3       0.4       0.0       0.0

                    252       253       254       255       256       257   
                  21.98779  22.01698  22.08848  22.14252  22.18983  22.30431
                   0.00000   0.00000   0.00000   0.00000   0.00000   0.00000
                  --------  --------  --------  --------  --------  --------
 0 C  s              10.9      51.9      12.3       1.5       4.8       0.0
 1 C  s               4.0       0.7      53.4      29.8       4.3       0.1
 2 C  s               4.5      33.8       3.3       0.2       0.1       0.0
 3 C  s              16.8       4.6      23.1      29.8       9.2       2.3
 4 C  s              24.4       0.0       0.8      21.6      11.9      21.5
 4 C  px              0.0       0.0       0.0       0.0       0.1       0.0
 5 C  s               7.1       5.7       1.6       0.6      41.3      16.1
 6 N  s               0.0       0.0       0.0       0.0       0.1       0.0
 7 C  s              21.4       1.9       4.0      13.1       2.0      26.2
 8 C  s              10.3       1.1       1.3       3.1      25.6      33.1
 9 N  s               0.0       0.0       0.0       0.0       0.1       0.0
 9 N  px              0.1       0.0       0.0       0.0       0.0       0.1

                    258       259   
                  31.85733  32.00360
                   0.00000   0.00000
                  --------  --------
 6 N  s              65.6      34.2
 9 N  s              34.2      65.6


                      *****************************
                      * MAYER POPULATION ANALYSIS *
                      *****************************

  NA   - Mulliken gross atomic population
  ZA   - Total nuclear charge
  QA   - Mulliken gross atomic charge
  VA   - Mayer's total valence
  BVA  - Mayer's bonded valence
  FA   - Mayer's free valence

  ATOM       NA         ZA         QA         VA         BVA        FA
  0 C      6.5571     6.0000    -0.5571     3.7932     3.7932     0.0000
  1 C      5.9906     6.0000     0.0094     3.5252     3.5252    -0.0000
  2 C      6.4648     6.0000    -0.4648     3.7390     3.7390     0.0000
  3 C      6.3673     6.0000    -0.3673     3.6259     3.6259     0.0000
  4 C      5.7038     6.0000     0.2962     3.5506     3.5506     0.0000
  5 C      6.2429     6.0000    -0.2429     3.9824     3.9824    -0.0000
  6 N      7.1548     7.0000    -0.1548     2.9803     2.9803     0.0000
  7 C      6.0685     6.0000    -0.0685     3.8118     3.8118     0.0000
  8 C      6.0660     6.0000    -0.0660     3.8190     3.8190    -0.0000
  9 N      7.1807     7.0000    -0.1807     2.9217     2.9217     0.0000
 10 H      0.8579     1.0000     0.1421     0.9669     0.9669     0.0000
 11 H      0.8114     1.0000     0.1886     0.9585     0.9585    -0.0000
 12 H      0.8576     1.0000     0.1424     0.9650     0.9650     0.0000
 13 H      0.8490     1.0000     0.1510     0.9661     0.9661    -0.0000
 14 H      0.8549     1.0000     0.1451     0.9651     0.9651     0.0000
 15 H      0.8509     1.0000     0.1491     0.9644     0.9644     0.0000
 16 H      0.8547     1.0000     0.1453     0.9656     0.9656     0.0000
 17 H      0.8278     1.0000     0.1722     0.9563     0.9563     0.0000
 18 H      0.8536     1.0000     0.1464     0.9648     0.9648     0.0000
 19 H      0.8599     1.0000     0.1401     0.9683     0.9683     0.0000
 20 H      0.8634     1.0000     0.1366     0.9692     0.9692     0.0000
 21 H      0.8625     1.0000     0.1375     0.9681     0.9681    -0.0000

  Mayer bond orders larger than 0.100000
B(  0-C ,  1-C ) :   0.9082 B(  0-C , 10-H ) :   0.9858 B(  0-C , 11-H ) :   0.9659 
B(  0-C , 12-H ) :   0.9731 B(  1-C ,  2-C ) :   0.8795 B(  1-C ,  3-C ) :   0.8650 
B(  1-C , 13-H ) :   0.9770 B(  2-C , 14-H ) :   0.9806 B(  2-C , 15-H ) :   0.9779 
B(  2-C , 16-H ) :   0.9812 B(  3-C ,  4-C ) :   0.9019 B(  3-C , 17-H ) :   0.9378 
B(  3-C , 18-H ) :   0.9849 B(  4-C ,  5-C ) :   1.2947 B(  4-C ,  9-N ) :   1.2918 
B(  5-C ,  6-N ) :   1.4872 B(  5-C ,  8-C ) :   0.1199 B(  5-C , 19-H ) :   0.9750 
B(  6-N ,  7-C ) :   1.4242 B(  7-C ,  8-C ) :   1.3073 B(  7-C , 20-H ) :   0.9710 
B(  8-C ,  9-N ) :   1.4274 B(  8-C , 21-H ) :   0.9650 

-------
TIMINGS
-------

Total SCF time: 0 days 0 hours 0 min 32 sec 

Total time                  ....      32.982 sec
Sum of individual times     ....      32.425 sec  ( 98.3%)

SCF preparation             ....       0.198 sec  (  0.6%)
Fock matrix formation       ....      31.021 sec  ( 94.1%)
  Startup                   ....       0.065 sec  (  0.2% of F)
  Split-RI-J                ....       6.957 sec  ( 22.4% of F)
  XC integration            ....      23.438 sec  ( 75.6% of F)
    Basis function eval.    ....       4.483 sec  ( 19.1% of XC)
    Density eval.           ....       7.632 sec  ( 32.6% of XC)
    XC-Functional eval.     ....       2.372 sec  ( 10.1% of XC)
    XC-Potential eval.      ....       7.844 sec  ( 33.5% of XC)
Diagonalization             ....       0.000 sec  (  0.0%)
Density matrix formation    ....       0.255 sec  (  0.8%)
Total Energy calculation    ....       0.042 sec  (  0.1%)
Population analysis         ....       0.182 sec  (  0.6%)
Orbital Transformation      ....       0.088 sec  (  0.3%)
Orbital Orthonormalization  ....       0.000 sec  (  0.0%)
DIIS solution               ....       0.567 sec  (  1.7%)
  MO trafo                  ....       0.000 sec  (  0.0 % of DIIS)
  Orb grad                  ....       0.000 sec  (  0.0 % of DIIS)
  Energy W gradient         ....       0.000 sec  (  0.0 % of DIIS)
  DIIS error                ....       0.037 sec  (  6.6 % of DIIS)
  DIIS work                 ....       0.460 sec  ( 81.2 % of DIIS)
  Form Q                    ....       0.000 sec  (  0.0 % of DIIS)
  Form QpQm                 ....       0.000 sec  (  0.0 % of DIIS)
  Exp/Cayley                ....       0.000 sec  (  0.0 % of DIIS)
  Orb update                ....       0.000 sec  (  0.0 % of DIIS)
  Wake-sleep                ....       0.031 sec  (  5.5 % of DIIS)
SOSCF solution              ....       0.073 sec  (  0.2%)
  MO trafo                  ....       0.058 sec  ( 78.8 % of SOSCF)
  Orb grad                  ....       0.001 sec  (  0.8 % of SOSCF)
  Rot update                ....       0.000 sec  (  0.1 % of SOSCF)
  Step                      ....       0.015 sec  ( 20.2 % of SOSCF)
Finished LeanSCF after  33.1 sec

Maximum memory used throughout the entire LEANSCF-calculation: 29.2 MB


-------------------------------------------------------------------------------
                          DFT DISPERSION CORRECTION                            
                                                                               
                                DFTD4 V3.4.0                                   
-------------------------------------------------------------------------------
The R2SCAN3C composite method is recognized
Using three-body term ABC
Active option DFTDOPT                   ...         5   

-------------------------   ----------------
Dispersion correction           -0.007300836
-------------------------   ----------------

------------------   -----------------
gCP correction             0.012849880
------------------   -----------------

-------------------------   --------------------
FINAL SINGLE POINT ENERGY      -421.449292600287
-------------------------   --------------------


------------------------------------------------------------------------------
                              ORCA PROPERTY CALCULATIONS
------------------------------------------------------------------------------

GBWName                                 ... sp_gas.gbw
Number of atoms                         ...     22
Number of basis functions               ...    260
Max core memory                         ...   1024 MB

Electric properties:
Dipole moment                           ... YES
Quadrupole moment                       ...  NO
Static polarizability (Dipole/Dipole)   ...  NO
Static polarizability (Dipole/Quad.)    ...  NO
Static polarizability (Quad./Quad.)     ...  NO
Static polarizability (Velocity)        ...  NO

Atomic electric properties:
Dipole moment                           ...  NO
Quadrupole moment                       ...  NO
Static polarizability                   ...  NO

Choice of electric origin               ... Center of mass
Position of electric origin             ...    -0.000008     0.000002     0.000000

General magnetic properties:
Magnetizability                         ...  NO

EPR properties:
g-Tensor (aka g-matrix)                 ...  NO
Zero-Field splitting spin-orbit         ...  NO
Zero-field splitting spin-spin          ...  NO
Hyperfine couplings                     ...  NO (   0 nuclei)
Quadrupole couplings                    ...  NO (   0 nuclei)
Contact density                         ...  NO (   0 nuclei)

NMR properties:
Chemical shifts                         ...  NO (   0 nuclei)
Spin-rotation constants                 ...  NO (   0 nuclei)
Spin-spin couplings                     ...  NO (   0 nuclei,    0 pairs)

Choice of magnetic origin               ... GIAO
Position of magnetic origin             ...     0.000000     0.000000     0.000000

Properties with geometric perturbations:
SCF Hessian                             ...  NO
IR spectrum                             ...  NO
VCD spectrum                            ...  NO
X-ray spectroscopy properties:
SCF XES/XAS/RIXS spectra                ...  NO


-------------
DIPOLE MOMENT
-------------

Method             : SCF
Type of density    : Electron Density
Multiplicity       :   1
Irrep              :   0
Energy             :  -421.4548416439350831 Eh
Relativity type    : 
Basis              : AO
                                X                 Y                 Z
Electronic contribution:     14.265476310      -1.893108321      -0.154091903
Nuclear contribution   :    -14.480861948       1.950903199       0.172408682
                        -----------------------------------------
Total Dipole Moment    :     -0.215385638       0.057794878       0.018316779
                        -----------------------------------------
Magnitude (a.u.)       :      0.223755950
Magnitude (Debye)      :      0.568742427



--------------------
Rotational spectrum 
--------------------
 
Rotational constants in cm-1:             0.111659             0.025675             0.021882 
Rotational constants in MHz :          3347.454858           769.709788           656.018673 

Dipole components along the rotational axes: 
x,y,z [a.u.] :    -0.220228     0.039348     0.004257 
x,y,z [Debye]:    -0.559775     0.100014     0.010820 

 

Dipole moment calculation done in   0.0 sec 

Maximum memory used throughout the entire PROP-calculation: 17.5 MB

--------------------------------
SUGGESTED CITATIONS FOR THIS RUN
--------------------------------

Below you find a list of papers that are relevant to this ORCA run
We neither can nor want to force you to cite these papers, but we appreciate if you do
You receive ORCA, which is the product of decades of hard work by many enthusiastic individuals, for free
The only thing we kindly ask in return is that you cite our papers,
We deeply appreciate it, if you show your appreciation for ORCA by not just citing the generic ORCA reference.

Please note that relegating all ORCA citations to the supporting information does *not* help us.
SI sections are not indexed - citations you put there will not count into any citation statistics
But we need these citations in order to attract the funding resources that allow us to do what we are doing

Therefore, if you are a happy ORCA user, please consider citing a few of the papers listed below in the main body of your paper

In addition to the list printed below, the program has created the file sp_gas.bibtex that contains the list in bibtex format
You can import this file easily into all common literature databanks and citation aid programs


List of essential papers. We consider these as the minimum necessary citations

  1. Neese,F.
     Software update: the ORCA program system, version 5.0
     WIRES Comput. Molec. Sci., 2022 12(1)e1606
     doi.org/10.1002/wcms.1606
  2. Grimme,S.; Hansen,A.; Ehlert,S.; Mewes,J.
     r2SCAN-3c: A 'Swiss army knife' composite electronic-structure method
     J. Chem. Phys., 2021 154 064103
     doi.org/10.1063/5.0040021

List of papers to cite with high priority. The work reported in these papers was absolutely
necessary for this run to complete.
Our perspective: the developers of density functionals and basis sets usually get cited in chemistry papers
Good! But without the algorithms to do something with them, the functionals or basis sets would not do anything.
Hence, in our opinion, the algorithm design and method developments papers are equally worthy of getting cited

  1. Neese,F.
     An improvement of the resolution of the identity approximation for the formation of the Coulomb matrix
     J. Comp. Chem., 2003 24(14)1740-1747
     doi.org/10.1002/jcc.10318
  2. Neese,F.
     The SHARK Integral Generation and Digestion System
     J. Comp. Chem., 2022  1-16
     doi.org/10.1002/jcc.26942
  3. Lehtola,S.; Steigemann,C.; Oliveira,M.; Marques,M.
     Recent developments in Libxc - A comprehensive library of functionals for density functional theory
     Software X, 2018 7 
     doi.org/10.1016/j.softx.2017.11.002
  4. Caldeweyher,E.; Bannwarth,C.; Grimme,S.
     Extension of the D3 dispersion coefficient model
     J. Chem. Phys., 2017 147 034112-XXXX
     doi.org/10.1063/1.4993215
  5. Caldeweyher,E.; Ehlert,S.; Hansen,A.; Neugebauer,H.; Spicher,S.; Bannwarth,C.; Grimme,S.
     A generally applicable atomic-charge dependent London dispersion correction
     J. Chem. Phys., 2019 150 154122-XXXX
     doi.org/10.1063/1.5090222
  6. Caldeweyher,E.; Mewes,J.; Ehlert,S.; Grimme,S.
     Extension and evaluation of the D4 London-dispersion model for periodic systems
     Phys. Chem. Chem. Phys., 2020 22(16)8499-8512
     doi.org/10.1039/D0CP00502A

List of suggested additional citations. These are papers that are important in the 'surrounding' of 
of this run, or papers that preceded the highly important papers. If you like your results we are grateful for a citation.

  1. Neese,F.
     The ORCA program system
     WIRES Comput. Molec. Sci., 2012 2(1)73-78
     doi.org/10.1002/wcms.81
  2. Neese,F.
     Software update: the ORCA program system, version 4.0
     WIRES Comput. Molec. Sci., 2018 8(1)1-6
     doi.org/10.1002/wcms.1327
  3. Neese,F.; Wennmohs,F.; Becker,U.; Riplinger,C.
     The ORCA quantum chemistry program package
     J. Chem. Phys., 2020 152 Art. No. L224108
     doi.org/10.1063/5.0004608

List of optional additional citations

  1. Neese,F.
     Approximate second-order SCF convergence for spin unrestricted wavefunctions
     Chem. Phys. Lett., 2000 325(1-3)93-98
     doi.org/10.1016/s0009-2614(00)00662-x

Timings for individual modules:

Sum of individual times          ...       35.127 sec (=   0.585 min)
Startup calculation              ...        1.559 sec (=   0.026 min)   4.4 %
SCF iterations                   ...       33.449 sec (=   0.557 min)  95.2 %
Property calculations            ...        0.119 sec (=   0.002 min)   0.3 %
                             ****ORCA TERMINATED NORMALLY****
TOTAL RUN TIME: 0 days 0 hours 0 minutes 35 seconds 957 msec
