 Entering Gaussian System
 *********************************************
 Gaussian 98:
 frequency output generated by the xtb code
 *********************************************
                         Standard orientation:
 --------------------------------------------------------------------
  Center     Atomic     Atomic              Coordinates (Angstroms)
  Number     Number      Type              X           Y           Z
 --------------------------------------------------------------------
    1          6             0       -1.445119    0.081134    0.625922
    2          6             0        0.061039    0.349434    0.515601
    3          6             0        0.796288   -0.884149   -0.023184
    4          8             0        2.192000   -0.715267   -0.002546
    5          8             0        0.367062    1.413555   -0.360449
    6          8             0       -1.943851   -0.341335   -0.623120
    7          1             0       -1.949470    1.002458    0.948953
    8          1             0       -1.598015   -0.691318    1.389869
    9          1             0        0.443024    0.577454    1.523974
   10          1             0        0.439940   -1.077267   -1.042023
   11          1             0        0.581444   -1.749233    0.605722
   12          1             0        2.399293    0.090366   -0.498998
   13          1             0       -0.148676    2.195590   -0.122235
   14          1             0       -2.889977   -0.524903   -0.545885
 --------------------------------------------------------------------
     1 basis functions        1 primitive gaussians
     1 alpha electrons        1 beta electrons
 
 Harmonic frequencies (cm**-1), IR intensities (km*mol⁻¹),
 Raman scattering activities (A**4/amu), Raman depolarization ratios,
 reduced masses (AMU), force constants (mDyne/A) and normal coordinates:
                      1                      2                      3
                        a                      a                      a 
 Frequencies --    83.4373               100.1605               189.1832
 Red. masses --    10.7020                11.8697                11.7184
 Frc consts  --     0.0000                 0.0000                 0.0000
 IR Inten    --    12.2986                 9.1000                28.2812
 Raman Activ --     0.0000                 0.0000                 0.0000
 Depolar     --     0.0000                 0.0000                 0.0000
 Atom AN      X      Y      Z        X      Y      Z        X      Y      Z
   1   6     0.03   0.12  -0.02    -0.10   0.22  -0.12    -0.10   0.10  -0.09
   2   6     0.03   0.10  -0.13    -0.05   0.06   0.14    -0.03  -0.21  -0.10
   3   6    -0.08   0.16  -0.40    -0.16  -0.02   0.17     0.12  -0.09  -0.13
   4   8    -0.04  -0.29   0.28    -0.19   0.08  -0.40     0.09   0.40   0.12
   5   8     0.01   0.31   0.06     0.29   0.06   0.27     0.35  -0.24   0.01
   6   8    -0.00  -0.42   0.18     0.22  -0.44  -0.05    -0.49  -0.06   0.11
   7   1     0.01   0.07  -0.10    -0.04   0.12  -0.20     0.05   0.08  -0.06
   8   1     0.02   0.11   0.08    -0.10   0.17   0.06    -0.06   0.08   0.03
   9   1     0.04  -0.03  -0.03    -0.05  -0.00   0.06    -0.03  -0.10  -0.01
  10   1     0.08   0.21  -0.18    -0.14  -0.07   0.09     0.09  -0.01  -0.06
  11   1    -0.17  -0.02  -0.26     0.02   0.03   0.12     0.07  -0.06  -0.07
  12   1     0.13  -0.06   0.14    -0.12   0.03  -0.12    -0.05   0.17   0.12
  13   1     0.07   0.09   0.11     0.16   0.06   0.10     0.29   0.04   0.13
  14   1    -0.00  -0.08   0.07     0.04  -0.05  -0.06    -0.14   0.12   0.08
                      4                      5                      6
                        a                      a                      a 
 Frequencies --   232.7985               260.6295               288.7013
 Red. masses --     4.2777                 2.1267                10.8916
 Frc consts  --     0.0000                 0.0000                 0.0000
 IR Inten    --   169.7489               213.8440                 4.3729
 Raman Activ --     0.0000                 0.0000                 0.0000
 Depolar     --     0.0000                 0.0000                 0.0000
 Atom AN      X      Y      Z        X      Y      Z        X      Y      Z
   1   6     0.01  -0.05   0.07    -0.00  -0.09  -0.01     0.01   0.11   0.19
   2   6     0.00   0.00   0.03    -0.01   0.08  -0.03    -0.02  -0.12   0.10
   3   6    -0.01   0.01   0.02    -0.02   0.03   0.08    -0.20  -0.04  -0.22
   4   8    -0.00  -0.00   0.03    -0.02  -0.04   0.02    -0.28   0.25   0.06
   5   8    -0.33  -0.08  -0.19    -0.02   0.02  -0.11    -0.01  -0.36  -0.15
   6   8     0.23  -0.05   0.00    -0.08   0.17  -0.08     0.47   0.14   0.05
   7   1    -0.00  -0.02   0.01    -0.05  -0.07   0.06     0.00   0.05   0.01
   8   1    -0.02  -0.03   0.01     0.06  -0.08  -0.05    -0.05   0.05   0.06
   9   1     0.03   0.02  -0.01    -0.01   0.03  -0.01     0.07  -0.04  -0.00
  10   1    -0.01   0.00   0.01    -0.02  -0.03   0.03    -0.01   0.13  -0.11
  11   1    -0.01   0.01   0.01    -0.00   0.03   0.06    -0.07  -0.09  -0.19
  12   1     0.01  -0.05  -0.08     0.01  -0.07  -0.08    -0.13   0.23   0.26
  13   1     0.46   0.19   0.42     0.46   0.20   0.35     0.03  -0.06  -0.07
  14   1    -0.07   0.55  -0.19     0.14  -0.67   0.17     0.16  -0.19  -0.04
                      7                      8                      9
                        a                      a                      a 
 Frequencies --   357.3656               410.1600               459.6561
 Red. masses --     8.8635                 4.8552                 9.7940
 Frc consts  --     0.0000                 0.0000                 0.0000
 IR Inten    --    36.1520               263.3356                18.2295
 Raman Activ --     0.0000                 0.0000                 0.0000
 Depolar     --     0.0000                 0.0000                 0.0000
 Atom AN      X      Y      Z        X      Y      Z        X      Y      Z
   1   6    -0.11   0.38  -0.05     0.00  -0.05   0.07     0.24   0.02  -0.05
   2   6     0.00  -0.23   0.05    -0.04  -0.04  -0.03     0.14  -0.15  -0.37
   3   6     0.22  -0.13  -0.06    -0.09   0.01  -0.16    -0.11  -0.42  -0.01
   4   8     0.28  -0.03  -0.01    -0.17   0.28   0.26    -0.24   0.16   0.15
   5   8    -0.44  -0.10   0.12     0.18  -0.07   0.04    -0.10   0.37   0.07
   6   8     0.04   0.11  -0.01     0.08   0.00   0.03     0.09   0.03   0.05
   7   1     0.10   0.25  -0.21    -0.02  -0.04   0.05     0.10   0.02   0.00
   8   1    -0.23   0.26   0.09     0.03  -0.04   0.00     0.09   0.02   0.00
   9   1     0.03  -0.08   0.01     0.03  -0.05  -0.01     0.12  -0.12  -0.11
  10   1     0.08  -0.04  -0.02     0.02   0.03  -0.06     0.00  -0.36   0.03
  11   1     0.09  -0.05  -0.02    -0.03  -0.02  -0.07     0.01   0.00   0.18
  12   1     0.09  -0.13  -0.19     0.05  -0.44  -0.71    -0.17   0.08   0.06
  13   1    -0.11  -0.05   0.13    -0.03  -0.04  -0.08    -0.10  -0.00   0.16
  14   1     0.05  -0.19   0.03     0.02   0.01  -0.02     0.03   0.01   0.05
                     10                     11                     12
                        a                      a                      a 
 Frequencies --   632.8603               859.5683               925.9711
 Red. masses --    10.7350                 9.4128                 6.8206
 Frc consts  --     0.0000                 0.0000                 0.0000
 IR Inten    --    31.5438                31.9781                22.4446
 Raman Activ --     0.0000                 0.0000                 0.0000
 Depolar     --     0.0000                 0.0000                 0.0000
 Atom AN      X      Y      Z        X      Y      Z        X      Y      Z
   1   6    -0.49   0.00   0.30    -0.18   0.01   0.16     0.13   0.30  -0.31
   2   6    -0.36  -0.02  -0.30     0.22   0.04   0.34    -0.32   0.11  -0.07
   3   6     0.10  -0.11  -0.09     0.04  -0.45   0.08     0.01  -0.26   0.11
   4   8     0.23  -0.07  -0.04     0.07   0.05   0.01     0.14  -0.00  -0.04
   5   8     0.20   0.18  -0.03     0.05   0.36  -0.25    -0.09  -0.08   0.10
   6   8     0.23   0.06   0.17    -0.11  -0.06  -0.15     0.12  -0.01   0.18
   7   1    -0.19  -0.04   0.12    -0.12  -0.03   0.00    -0.15  -0.12   0.18
   8   1    -0.07  -0.04   0.06    -0.11  -0.03   0.00     0.39  -0.09  -0.16
   9   1    -0.08  -0.04  -0.08     0.14   0.13   0.02    -0.27   0.06   0.05
  10   1     0.09  -0.19  -0.01     0.03   0.19  -0.05     0.08   0.15  -0.04
  11   1     0.06   0.03   0.08    -0.01  -0.31  -0.25    -0.03  -0.22  -0.19
  12   1     0.07   0.01   0.04    -0.21   0.02  -0.08    -0.14   0.01  -0.06
  13   1     0.04   0.06  -0.06    -0.01   0.06  -0.02     0.01   0.01   0.00
  14   1     0.05  -0.03  -0.21    -0.03  -0.02  -0.09     0.03   0.05   0.15
                     13                     14                     15
                        a                      a                      a 
 Frequencies --   944.2647              1036.0252              1059.7408
 Red. masses --     7.7303                 6.1822                 9.7787
 Frc consts  --     0.0000                 0.0000                 0.0000
 IR Inten    --    42.6646                28.6385               114.9756
 Raman Activ --     0.0000                 0.0000                 0.0000
 Depolar     --     0.0000                 0.0000                 0.0000
 Atom AN      X      Y      Z        X      Y      Z        X      Y      Z
   1   6     0.09  -0.38  -0.14     0.15  -0.16  -0.10     0.13  -0.14   0.17
   2   6    -0.21  -0.27  -0.13    -0.26   0.15   0.36    -0.06   0.23  -0.14
   3   6     0.03   0.07   0.27     0.06  -0.22  -0.33    -0.44  -0.09   0.03
   4   8    -0.05  -0.02  -0.04    -0.02   0.00   0.05     0.51   0.05  -0.00
   5   8     0.09   0.22  -0.13    -0.06   0.09  -0.01    -0.05  -0.13   0.16
   6   8     0.11   0.16   0.22     0.04   0.06   0.02    -0.05   0.01  -0.15
   7   1     0.31   0.13  -0.20     0.06   0.02  -0.15     0.09   0.05  -0.12
   8   1    -0.21   0.12   0.14    -0.10   0.04   0.03    -0.07   0.08   0.13
   9   1    -0.28   0.09   0.01    -0.10   0.01   0.11     0.08  -0.03  -0.04
  10   1     0.03   0.26   0.01    -0.06  -0.27  -0.02     0.08  -0.01  -0.05
  11   1    -0.06  -0.12  -0.15     0.20   0.02   0.09    -0.38   0.06   0.01
  12   1    -0.10  -0.01  -0.05     0.12  -0.01   0.05    -0.25   0.06  -0.08
  13   1     0.00   0.03   0.01     0.21   0.28  -0.38     0.08   0.08  -0.14
  14   1     0.03   0.01   0.04     0.02   0.07   0.25    -0.01   0.01   0.02
                     16                     17                     18
                        a                      a                      a 
 Frequencies --  1095.8046              1103.8660              1143.5921
 Red. masses --    10.5426                10.8612                 3.8070
 Frc consts  --     0.0000                 0.0000                 0.0000
 IR Inten    --   106.7509               207.3334                34.3794
 Raman Activ --     0.0000                 0.0000                 0.0000
 Depolar     --     0.0000                 0.0000                 0.0000
 Atom AN      X      Y      Z        X      Y      Z        X      Y      Z
   1   6     0.15   0.01   0.32     0.29   0.22   0.42     0.10  -0.12   0.08
   2   6    -0.08   0.23  -0.21    -0.36  -0.31  -0.00     0.04   0.26  -0.12
   3   6     0.52  -0.03   0.04    -0.14   0.08   0.13    -0.17  -0.22  -0.08
   4   8    -0.36  -0.10  -0.02     0.05   0.02  -0.03     0.04   0.09   0.02
   5   8    -0.07  -0.14   0.21     0.07   0.14  -0.11     0.02  -0.11   0.09
   6   8    -0.09  -0.04  -0.23    -0.05  -0.14  -0.42    -0.08   0.05  -0.00
   7   1     0.05   0.05  -0.04     0.07   0.03   0.11     0.02   0.03  -0.14
   8   1     0.05   0.09   0.16     0.07  -0.02   0.01     0.14   0.14   0.21
   9   1    -0.07   0.11  -0.03     0.01  -0.06  -0.05    -0.20   0.33  -0.01
  10   1     0.22   0.03  -0.04    -0.06   0.07   0.04    -0.28   0.04   0.04
  11   1    -0.02  -0.03  -0.07     0.16  -0.09  -0.05     0.30  -0.17  -0.06
  12   1    -0.26   0.01  -0.04     0.24  -0.03   0.04     0.36  -0.03   0.07
  13   1     0.09   0.09  -0.13    -0.01   0.00   0.02    -0.09  -0.14   0.19
  14   1    -0.02  -0.02  -0.11    -0.00   0.05   0.23    -0.03  -0.07  -0.31
                     19                     20                     21
                        a                      a                      a 
 Frequencies --  1167.5203              1218.9125              1229.8476
 Red. masses --     2.7206                 3.8334                 3.4443
 Frc consts  --     0.0000                 0.0000                 0.0000
 IR Inten    --   103.7034                82.0813                50.0066
 Raman Activ --     0.0000                 0.0000                 0.0000
 Depolar     --     0.0000                 0.0000                 0.0000
 Atom AN      X      Y      Z        X      Y      Z        X      Y      Z
   1   6    -0.14  -0.14   0.04    -0.08  -0.08  -0.12    -0.12   0.08   0.02
   2   6    -0.01   0.18  -0.11     0.05   0.04  -0.19     0.16   0.13  -0.25
   3   6     0.06  -0.03   0.01    -0.08  -0.00   0.32    -0.03  -0.11   0.04
   4   8    -0.05  -0.00  -0.01    -0.09   0.04  -0.08    -0.02   0.05  -0.00
   5   8     0.08  -0.09   0.02    -0.11  -0.02   0.15    -0.06  -0.07   0.17
   6   8     0.13   0.07  -0.09     0.01   0.06   0.08     0.06  -0.12   0.00
   7   1    -0.31  -0.08  -0.26    -0.14  -0.04  -0.15     0.34   0.11   0.33
   8   1    -0.16   0.02   0.04     0.10   0.05   0.07    -0.45  -0.23  -0.35
   9   1     0.12   0.17  -0.10     0.45  -0.30  -0.14    -0.05   0.23  -0.07
  10   1     0.06  -0.00  -0.02     0.08   0.15   0.01    -0.14   0.11   0.03
  11   1     0.03  -0.03  -0.03     0.18  -0.22  -0.15     0.05  -0.07  -0.04
  12   1     0.02  -0.00   0.01     0.31  -0.03   0.05     0.14  -0.01   0.03
  13   1    -0.14  -0.21   0.27     0.16   0.22  -0.30     0.08   0.10  -0.14
  14   1     0.05   0.19   0.66     0.00   0.00  -0.02     0.02   0.02   0.17
                     22                     23                     24
                        a                      a                      a 
 Frequencies --  1282.2222              1298.7379              1320.8845
 Red. masses --     3.7167                 3.6608                 3.1178
 Frc consts  --     0.0000                 0.0000                 0.0000
 IR Inten    --    19.3141               101.1665                27.0665
 Raman Activ --     0.0000                 0.0000                 0.0000
 Depolar     --     0.0000                 0.0000                 0.0000
 Atom AN      X      Y      Z        X      Y      Z        X      Y      Z
   1   6     0.13  -0.03  -0.07    -0.05   0.03   0.12     0.01   0.02  -0.11
   2   6    -0.21   0.24   0.19     0.31  -0.10  -0.05    -0.16  -0.30   0.10
   3   6    -0.10  -0.05   0.10     0.02  -0.16   0.09     0.11  -0.09  -0.04
   4   8    -0.11   0.04  -0.13    -0.10   0.15  -0.12    -0.02   0.07  -0.04
   5   8     0.08  -0.02  -0.08    -0.06   0.03  -0.03     0.01   0.01   0.12
   6   8    -0.04  -0.03   0.06     0.02   0.01  -0.07    -0.01   0.02   0.03
   7   1     0.20   0.06   0.09    -0.17  -0.06  -0.04    -0.04  -0.02  -0.01
   8   1    -0.16  -0.05  -0.10     0.04   0.03   0.07     0.13   0.02   0.02
   9   1     0.14   0.02  -0.02    -0.45  -0.10   0.21     0.33   0.62  -0.28
  10   1     0.62  -0.25  -0.15     0.16   0.00  -0.04    -0.05   0.04   0.01
  11   1    -0.08  -0.08  -0.07    -0.45   0.08   0.04    -0.37   0.15   0.09
  12   1     0.26  -0.02   0.04     0.45  -0.03   0.06     0.17  -0.01   0.03
  13   1    -0.11  -0.15   0.21     0.05   0.08  -0.11     0.06   0.07  -0.08
  14   1    -0.01  -0.05  -0.15     0.01   0.03   0.10    -0.01  -0.01  -0.06
                     25                     26                     27
                        a                      a                      a 
 Frequencies --  1347.2189              1358.5404              1456.0372
 Red. masses --     4.6553                 4.3347                 1.8095
 Frc consts  --     0.0000                 0.0000                 0.0000
 IR Inten    --    16.1722                 6.0649                 1.0483
 Raman Activ --     0.0000                 0.0000                 0.0000
 Depolar     --     0.0000                 0.0000                 0.0000
 Atom AN      X      Y      Z        X      Y      Z        X      Y      Z
   1   6    -0.38  -0.06  -0.04     0.24   0.11   0.08    -0.01   0.00   0.02
   2   6     0.23  -0.12   0.04     0.17  -0.25  -0.08     0.01   0.01  -0.00
   3   6    -0.21   0.15  -0.00    -0.23   0.19   0.01     0.11   0.23   0.07
   4   8     0.00  -0.04   0.00     0.02  -0.06   0.01     0.04   0.02   0.01
   5   8    -0.04   0.01   0.05    -0.04   0.01   0.08    -0.00  -0.01   0.00
   6   8     0.07  -0.02  -0.14    -0.05   0.02   0.10     0.00   0.00   0.01
   7   1     0.29   0.12   0.18    -0.39  -0.14  -0.23     0.01   0.02  -0.05
   8   1     0.40   0.12   0.23    -0.24  -0.11  -0.17     0.02  -0.04  -0.04
   9   1    -0.09   0.25   0.00    -0.18   0.32  -0.02    -0.00   0.01   0.00
  10   1     0.30  -0.18  -0.08     0.28  -0.16  -0.07    -0.28  -0.59   0.21
  11   1     0.23  -0.07  -0.05     0.27  -0.07  -0.05    -0.28  -0.30  -0.53
  12   1    -0.09  -0.00  -0.02    -0.13   0.00  -0.03     0.01   0.00   0.00
  13   1     0.04   0.06  -0.08     0.07   0.10  -0.13     0.00   0.00  -0.01
  14   1     0.02   0.06   0.21    -0.02  -0.03  -0.13     0.00  -0.00  -0.00
                     28                     29                     30
                        a                      a                      a 
 Frequencies --  1465.8649              2846.0780              2868.9647
 Red. masses --     1.8107                 1.7073                 1.9288
 Frc consts  --     0.0000                 0.0000                 0.0000
 IR Inten    --     1.9915                93.5582               101.6170
 Raman Activ --     0.0000                 0.0000                 0.0000
 Depolar     --     0.0000                 0.0000                 0.0000
 Atom AN      X      Y      Z        X      Y      Z        X      Y      Z
   1   6    -0.15   0.02   0.21     0.01   0.00  -0.00     0.09  -0.27   0.02
   2   6    -0.01   0.01   0.02     0.09   0.07   0.22     0.00  -0.01  -0.00
   3   6     0.00  -0.04  -0.01    -0.00   0.00  -0.01     0.00   0.00   0.00
   4   8    -0.00   0.01  -0.00    -0.00  -0.00  -0.00     0.00   0.00  -0.00
   5   8     0.00   0.00  -0.01    -0.00  -0.01   0.02    -0.00   0.00  -0.00
   6   8     0.00   0.01   0.06     0.00  -0.00  -0.00    -0.00  -0.01  -0.01
   7   1     0.20   0.31  -0.57    -0.02   0.04   0.01    -0.40   0.72   0.25
   8   1     0.34  -0.44  -0.38    -0.00  -0.04   0.04     0.08   0.28  -0.30
   9   1    -0.01  -0.01   0.01    -0.34  -0.20  -0.88     0.00   0.00   0.01
  10   1     0.02   0.05  -0.02     0.02   0.01   0.07    -0.00  -0.00  -0.01
  11   1    -0.01   0.03   0.05    -0.00  -0.01   0.00    -0.00  -0.01   0.01
  12   1     0.01  -0.00   0.00     0.00   0.00   0.00    -0.00  -0.00  -0.00
  13   1    -0.01  -0.01   0.01    -0.00  -0.00  -0.00     0.00   0.00  -0.00
  14   1    -0.00  -0.00  -0.01     0.00   0.00   0.00    -0.00   0.01  -0.00
                     31                     32                     33
                        a                      a                      a 
 Frequencies --  2904.0865              2918.8663              2991.9826
 Red. masses --     1.4841                 1.7462                 1.6946
 Frc consts  --     0.0000                 0.0000                 0.0000
 IR Inten    --    76.0399                78.1947                53.8448
 Raman Activ --     0.0000                 0.0000                 0.0000
 Depolar     --     0.0000                 0.0000                 0.0000
 Atom AN      X      Y      Z        X      Y      Z        X      Y      Z
   1   6     0.09   0.07  -0.17    -0.00   0.00   0.01    -0.00  -0.00   0.00
   2   6    -0.00  -0.00  -0.02     0.01   0.01   0.03    -0.00  -0.01   0.01
   3   6     0.00  -0.00   0.01     0.07   0.03   0.25    -0.05  -0.20   0.13
   4   8     0.00  -0.00   0.00     0.01   0.00   0.01    -0.01  -0.00  -0.00
   5   8     0.00   0.00  -0.00     0.00  -0.00  -0.00     0.00   0.00  -0.00
   6   8    -0.01  -0.00  -0.02     0.00  -0.00   0.00    -0.00   0.00   0.00
   7   1    -0.19   0.39   0.09     0.01  -0.03  -0.01    -0.00   0.00   0.00
   8   1    -0.11  -0.63   0.59     0.00   0.02  -0.02     0.00   0.01  -0.01
   9   1     0.02   0.01   0.06    -0.03  -0.01  -0.06    -0.00  -0.00  -0.01
  10   1    -0.02  -0.01  -0.04    -0.30  -0.16  -0.90     0.02  -0.02   0.08
  11   1     0.00   0.01  -0.01     0.02   0.06  -0.00     0.19   0.76  -0.56
  12   1    -0.00   0.00  -0.00     0.00  -0.00  -0.00    -0.00  -0.01   0.01
  13   1    -0.00   0.00   0.00    -0.00   0.00   0.00     0.00  -0.00  -0.00
  14   1    -0.00  -0.00   0.00    -0.00  -0.00  -0.00     0.00  -0.00   0.00
                     34                     35                     36
                        a                      a                      a 
 Frequencies --  3474.6693              3497.0398              3500.5535
 Red. masses --     1.8757                 1.8790                 1.8752
 Frc consts  --     0.0000                 0.0000                 0.0000
 IR Inten    --    94.6721               103.4916                57.2065
 Raman Activ --     0.0000                 0.0000                 0.0000
 Depolar     --     0.0000                 0.0000                 0.0000
 Atom AN      X      Y      Z        X      Y      Z        X      Y      Z
   1   6     0.00   0.00  -0.00    -0.00  -0.00  -0.00     0.00   0.00  -0.00
   2   6    -0.00   0.00  -0.00    -0.00   0.00  -0.00    -0.00   0.01  -0.00
   3   6     0.01   0.01  -0.00     0.00   0.00   0.00    -0.00   0.00  -0.00
   4   8     0.05   0.20  -0.12    -0.00  -0.00   0.00    -0.00  -0.01   0.00
   5   8    -0.00   0.01   0.00    -0.03   0.05   0.01    -0.13   0.19   0.06
   6   8    -0.00  -0.00   0.00    -0.23  -0.04   0.02     0.06   0.01  -0.00
   7   1    -0.00   0.00   0.00     0.00   0.00  -0.00     0.00  -0.00  -0.00
   8   1    -0.00  -0.00   0.00     0.00  -0.00   0.00    -0.00  -0.00   0.00
   9   1     0.00   0.00   0.00     0.00   0.00   0.00     0.00   0.00   0.00
  10   1    -0.00  -0.00  -0.00    -0.00  -0.00  -0.00    -0.00  -0.00  -0.00
  11   1    -0.00  -0.01   0.01    -0.00  -0.00   0.00    -0.00   0.00   0.00
  12   1    -0.22  -0.80   0.50     0.00   0.01  -0.01     0.01   0.02  -0.02
  13   1     0.02  -0.03  -0.01     0.13  -0.20  -0.06     0.50  -0.76  -0.23
  14   1     0.01   0.00  -0.00     0.92   0.18  -0.07    -0.24  -0.05   0.02
