
                                 *****************
                                 * O   R   C   A *
                                 *****************

                                            #,                                       
                                            ###                                      
                                            ####                                     
                                            #####                                    
                                            ######                                   
                                           ########,                                 
                                     ,,################,,,,,                         
                               ,,#################################,,                 
                          ,,##########################################,,             
                       ,#########################################, ''#####,          
                    ,#############################################,,   '####,        
                  ,##################################################,,,,####,       
                ,###########''''           ''''###############################       
              ,#####''   ,,,,##########,,,,          '''####'''          '####       
            ,##' ,,,,###########################,,,                        '##       
           ' ,,###''''                  '''############,,,                           
         ,,##''                                '''############,,,,        ,,,,,,###''
      ,#''                                            '''#######################'''  
     '                                                          ''''####''''         
             ,#######,   #######,   ,#######,      ##                                
            ,#'     '#,  ##    ##  ,#'     '#,    #''#        ,####,   ,####,        
            ##       ##  ##   ,#'  ##            #'  '#       #'       #'  '#        
            ##       ##  #######   ##           ,######,      #####,   #    #        
            '#,     ,#'  ##    ##  '#,     ,#' ,#      #,     #,   #   #,  ,#        
             '#######'   ##     ##  '#######'  #'      '#     '####' # '####'        



                #########################################################
                #                        -***-                          #
                #          Department of theory and spectroscopy        #
                #                                                       #
                #                      Frank Neese                      #
                #                                                       #
                #     Directorship, Architecture, Infrastructure        #
                #                    SHARK, DRIVERS                     #
                #        Core code/Algorithms in most modules           #
                #                                                       #
                #        Max Planck Institute fuer Kohlenforschung      #
                #                Kaiser Wilhelm Platz 1                 #
                #                 D-45470 Muelheim/Ruhr                 #
                #                      Germany                          #
                #                                                       #
                #                  All rights reserved                  #
                #                        -***-                          #
                #########################################################


                         Program Version 6.0.0  -   RELEASE  -


 With contributions from (in alphabetic order):
   Daniel Aravena         : Magnetic Suceptibility
   Michael Atanasov       : Ab Initio Ligand Field Theory (pilot matlab implementation)
   Alexander A. Auer      : GIAO ZORA, VPT2 properties, NMR spectrum
   Ute Becker             : All parallelization in ORCA, NUMFREQ, NUMCALC
   Giovanni Bistoni       : ED, misc. LED, open-shell LED, HFLD
   Martin Brehm           : Molecular dynamics
   Dmytro Bykov           : pre 5.0 version of the SCF Hessian
   Marcos Casanova-Páez   : Triplet and SCS-CIS(D). UHF-(DLPNO)-IP/EA/STEOM-CCSD. UHF-CVS-IP/STEOM-CCSD
   Vijay G. Chilkuri      : MRCI spin determinant printing, contributions to CSF-ICE
   Pauline Colinet        : FMM embedding
   Dipayan Datta          : RHF DLPNO-CCSD density
   Achintya Kumar Dutta   : EOM-CC, STEOM-CC
   Nicolas Foglia         : Exact transition moments, OPA infrastructure, MCD improvements
   Dmitry Ganyushin       : Spin-Orbit,Spin-Spin,Magnetic field MRCI
   Miquel Garcia          : C-PCM and meta-GGA Hessian, CCSD/C-PCM, Gaussian charge scheme
   Tiago L. C. Gouveia    : GS-ROHF, GS-ROCIS
   Yang Guo               : DLPNO-NEVPT2, F12-NEVPT2, CIM, IAO-localization
   Andreas Hansen         : Spin unrestricted coupled pair/coupled cluster methods
   Ingolf Harden          : AUTO-CI MPn and infrastructure 
   Benjamin Helmich-Paris : MC-RPA, TRAH-(SCF,CASSCF), AVAS, COSX integrals, SCF dyn. polar.
   Lee Huntington         : MR-EOM, pCC
   Robert Izsak           : Overlap fitted RIJCOSX, COSX-SCS-MP3, EOM
   Riya Kayal             : Wick's Theorem for AUTO-CI, AUTO-CI UHF-CCSDT
   Emily Kempfer          : AUTO-CI, RHF CISDT and CCSDT
   Christian Kollmar      : KDIIS, OOCD, Brueckner-CCSD(T), CCSD density, CASPT2, CASPT2-K, improved NEVPT2
   Axel Koslowski         : Symmetry handling
   Simone Kossmann        : Meta GGA functionals, TD-DFT gradient, OOMP2, (MP2 Hessian; deprecated post 5.0)
   Lucas Lang             : DCDCAS
   Marvin Lechner         : AUTO-CI (C++ implementation), FIC-MRCC
   Spencer Leger          : CASSCF response
   Dagmar Lenk            : GEPOL surface, SMD, ORCA-2-JSON
   Dimitrios Liakos       : Extrapolation schemes; Compound Job, initial MDCI parallelization
   Dimitrios Manganas     : Further ROCIS development; embedding schemes. LFT, Crystal Embedding
   Dimitrios Pantazis     : SARC Basis sets
   Anastasios Papadopoulos: AUTO-CI, single reference methods and gradients
   Taras Petrenko         : pre 6.0 DFT Hessian and TD-DFT gradient, (ASA, deprecated), ECA, 1-Electron XAS/XES, NRVS
   Peter Pinski           : DLPNO-MP2, DLPNO-MP2 Gradient
   Christoph Reimann      : Effective Core Potentials
   Marius Retegan         : Local ZFS, SOC
   Christoph Riplinger    : Optimizer, TS searches, QM/MM, DLPNO-CCSD(T), (RO)-DLPNO pert. Triples
   Michael Roemelt        : Original ROCIS implementation
   Masaaki Saitow         : Open-shell DLPNO-CCSD energy and density
   Barbara Sandhoefer     : DKH picture change effects
   Kantharuban Sivalingam : CASSCF convergence/infrastructure, NEVPT2 and variants, FIC-MRCI
   Bernardo de Souza      : ESD, SOC TD-DFT
   Georgi Stoychev        : AutoAux, RI-MP2 NMR, DLPNO-MP2 response, X2C
   Van Anh Tran           : RI-MP2 g-tensors
   Willem Van den Heuvel  : Paramagnetic NMR
   Zikuan Wang            : NOTCH, Electric field optimization 
   Frank Wennmohs         : Technical directorship and infrastructure
   Hang Xu                : AUTO-CI-Response properties 


 We gratefully acknowledge several colleagues who have allowed us to
 interface, adapt or use parts of their codes:
   Stefan Grimme, W. Hujo, H. Kruse, P. Pracht,  : VdW corrections, initial TS optimization,
                  C. Bannwarth, S. Ehlert,         DFT functionals, gCP, sTDA/sTD-DF
                  L. Wittmann, M. Mueller
   Ed Valeev, F. Pavosevic, A. Kumar             : LibInt (2-el integral package), F12 methods
   Garnet Chan, S. Sharma, J. Yang, R. Olivares  : DMRG
   Ulf Ekstrom                                   : XCFun DFT Library
   Mihaly Kallay                                 : mrcc  (arbitrary order and MRCC methods)
   Frank Weinhold                                : gennbo (NPA and NBO analysis)
   Simon Mueller                                 : openCOSMO-RS
   Christopher J. Cramer and Donald G. Truhlar   : smd solvation model
   Lars Goerigk                                  : TD-DFT with DH, B97 family of functionals
   V. Asgeirsson, H. Jonsson                     : NEB implementation
   FAccTs GmbH                                   : IRC, NEB, NEB-TS, DLPNO-Multilevel, CI-OPT
                                                   MM, QMMM, 2- and 3-layer-ONIOM, Crystal-QMMM,
                                                   LR-CPCM, SF, NACMEs, symmetry and pop. for TD-DFT,
                                                   nearIR, NL-DFT gradient (VV10), updates on ESD,
                                                   ML-optimized integration grids, MBIS, APM,
                                                   GOAT, DOCKER, SOLVATOR, interface openCOSMO-RS
   S Lehtola, MJT Oliveira, MAL Marques          : LibXC Library
   Liviu Ungur et al                             : ANISO software


 Your calculation uses the libint2 library for the computation of 2-el integrals
 For citations please refer to: http://libint.valeyev.net

 Your ORCA version has been built with support for libXC version: 6.2.2
 For citations please refer to: https://libxc.gitlab.io

 This ORCA versions uses:
   CBLAS   interface :  Fast vector & matrix operations
   LAPACKE interface :  Fast linear algebra routines
   SCALAPACK package :  Parallel linear algebra routines
   Shared memory     :  Shared parallel matrices
   BLAS/LAPACK       :  OpenBLAS 0.3.27  USE64BITINT DYNAMIC_ARCH NO_AFFINITY SkylakeX SINGLE_THREADED
        Core in use  :  SkylakeX
   Copyright (c) 2011-2014, The OpenBLAS Project


Your calculation utilizes the geometrical counterpoise correction gCP
Please cite in your paper:
H.Kruse, S. Grimme J.Chem.Phys., 136, (2012), 154101 
   

Your calculation utilizes the atom-pairwise dispersion correction
based on EEQ partial charges (D4)


================================================================================

----- Orbital basis set information -----
Your calculation utilizes the basis: def2-mTZVPP
   Stefan Grimme, Andreas Hansen, Sebastian Ehlert, and Jan-Michael Mewes 
   J. Chem. Phys. 154, 064103 (2021). DOI: 10.1063/5.0040021

----- AuxJ basis set information -----
Your calculation utilizes the auxiliary basis: def2/J
   F. Weigend, Phys. Chem. Chem. Phys. 8, 1057 (2006).

================================================================================
                                        WARNINGS
                       Please study these warnings very carefully!
================================================================================

Using LibXC functional ID 497 : Re-regularized SCAN exchange by Furness et al
[ 1]  J. W. Furness, A. D. Kaplan, J. Ning, J. P. Perdew, and J. Sun.,  J. Phys. Chem. Lett. 11, 8208-8215 (2020)
[ 2]  J. W. Furness, A. D. Kaplan, J. Ning, J. P. Perdew, and J. Sun.,  J. Phys. Chem. Lett. 11, 9248-9248 (2020)
Using LibXC functional ID 498 : Re-regularized SCAN correlation by Furness et al
[ 1]  J. W. Furness, A. D. Kaplan, J. Ning, J. P. Perdew, and J. Sun.,  J. Phys. Chem. Lett. 11, 8208-8215 (2020)
[ 2]  J. W. Furness, A. D. Kaplan, J. Ning, J. P. Perdew, and J. Sun.,  J. Phys. Chem. Lett. 11, 9248-9248 (2020)
Using LibXC functional ID 497 : Re-regularized SCAN exchange by Furness et al
[ 1]  J. W. Furness, A. D. Kaplan, J. Ning, J. P. Perdew, and J. Sun.,  J. Phys. Chem. Lett. 11, 8208-8215 (2020)
[ 2]  J. W. Furness, A. D. Kaplan, J. Ning, J. P. Perdew, and J. Sun.,  J. Phys. Chem. Lett. 11, 9248-9248 (2020)
Using LibXC functional ID 498 : Re-regularized SCAN correlation by Furness et al
[ 1]  J. W. Furness, A. D. Kaplan, J. Ning, J. P. Perdew, and J. Sun.,  J. Phys. Chem. Lett. 11, 8208-8215 (2020)
[ 2]  J. W. Furness, A. D. Kaplan, J. Ning, J. P. Perdew, and J. Sun.,  J. Phys. Chem. Lett. 11, 9248-9248 (2020)

================================================================================
                                       INPUT FILE
================================================================================
NAME = sp_gas.inp
|  1> ! r2scan-3c def2/J RI DEFGRID2 scfconv6 printgap
|  2> %output
|  3>     printlevel normal
|  4> end
|  5> * xyz 0 1
|  6> C 2.7020407374 -1.4311973052 9.05245e-05
|  7> O 1.2898840116 -1.3572966529 -0.0002375993
|  8> C 0.7060708523 -0.1206655569 -3.89966e-05
|  9> C 1.3867141229 1.08390247 0.0004814169
| 10> C 0.6887270219 2.2849834722 0.000174065
| 11> C -0.6886610294 2.2849832479 -0.0003504894
| 12> C -1.3866798164 1.08390959 -0.0002020993
| 13> C -0.7060958672 -0.1206961584 -0.0001816568
| 14> O -1.2899488045 -1.3572760024 -0.0006934831
| 15> C -2.702022652 -1.4311227641 0.0008279612
| 16> H 3.1228881002 -0.962988009 -0.8938433634
| 17> H 2.9303409006 -2.4945684463 -0.001492642
| 18> H 3.1223239586 -0.9657477138 0.8957382999
| 19> H 2.4641019965 1.1009308225 0.0013482696
| 20> H 1.2361302186 3.2142330436 0.000756224
| 21> H -1.2360911635 3.2142246364 -0.0003873876
| 22> H -2.4640742456 1.1010805272 -0.0004680693
| 23> H -2.9304113645 -2.4944763561 -0.0006935243
| 24> H -3.1237719756 -0.9627845197 -0.8926214769
| 25> H -3.1215205749 -0.9658036488 0.8969015365
| 26> *
| 27> 
| 28>                          ****END OF INPUT****
================================================================================

                       ****************************
                       * Single Point Calculation *
                       ****************************

---------------------------------
CARTESIAN COORDINATES (ANGSTROEM)
---------------------------------
  C      2.702041   -1.431197    0.000091
  O      1.289884   -1.357297   -0.000238
  C      0.706071   -0.120666   -0.000039
  C      1.386714    1.083902    0.000481
  C      0.688727    2.284983    0.000174
  C     -0.688661    2.284983   -0.000350
  C     -1.386680    1.083910   -0.000202
  C     -0.706096   -0.120696   -0.000182
  O     -1.289949   -1.357276   -0.000693
  C     -2.702023   -1.431123    0.000828
  H      3.122888   -0.962988   -0.893843
  H      2.930341   -2.494568   -0.001493
  H      3.122324   -0.965748    0.895738
  H      2.464102    1.100931    0.001348
  H      1.236130    3.214233    0.000756
  H     -1.236091    3.214225   -0.000387
  H     -2.464074    1.101081   -0.000468
  H     -2.930411   -2.494476   -0.000694
  H     -3.123772   -0.962785   -0.892621
  H     -3.121521   -0.965804    0.896902

----------------------------
CARTESIAN COORDINATES (A.U.)
----------------------------
  NO LB      ZA    FRAG     MASS         X           Y           Z
   0 C     6.0000    0    12.011    5.106117   -2.704571    0.000171
   1 O     8.0000    0    15.999    2.437528   -2.564919   -0.000449
   2 C     6.0000    0    12.011    1.334281   -0.228025   -0.000074
   3 C     6.0000    0    12.011    2.620510    2.048279    0.000910
   4 C     6.0000    0    12.011    1.301505    4.317993    0.000329
   5 C     6.0000    0    12.011   -1.301381    4.317993   -0.000662
   6 C     6.0000    0    12.011   -2.620445    2.048292   -0.000382
   7 C     6.0000    0    12.011   -1.334328   -0.228083   -0.000343
   8 O     8.0000    0    15.999   -2.437650   -2.564880   -0.001310
   9 C     6.0000    0    12.011   -5.106083   -2.704430    0.001565
  10 H     1.0000    0     1.008    5.901403   -1.819784   -1.689119
  11 H     1.0000    0     1.008    5.537542   -4.714051   -0.002821
  12 H     1.0000    0     1.008    5.900337   -1.824999    1.692700
  13 H     1.0000    0     1.008    4.656478    2.080458    0.002548
  14 H     1.0000    0     1.008    2.335948    6.074020    0.001429
  15 H     1.0000    0     1.008   -2.335874    6.074004   -0.000732
  16 H     1.0000    0     1.008   -4.656425    2.080741   -0.000885
  17 H     1.0000    0     1.008   -5.537675   -4.713877   -0.001311
  18 H     1.0000    0     1.008   -5.903074   -1.819399   -1.686810
  19 H     1.0000    0     1.008   -5.898819   -1.825104    1.694898

--------------------------------
INTERNAL COORDINATES (ANGSTROEM)
--------------------------------
 C      0   0   0     0.000000000000     0.00000000     0.00000000
 O      1   0   0     1.414089117523     0.00000000     0.00000000
 C      2   1   0     1.367513916569   118.26763476     0.00000000
 C      3   2   1     1.383567730208   125.25932321     0.00000000
 C      4   3   2     1.389165814967   120.36903602   179.97772462
 C      5   4   3     1.377388151184   120.16225251     0.00000000
 C      6   5   4     1.389175359962   120.16354565     0.00000000
 C      7   6   5     1.383571292491   120.37066977   359.96860042
 O      8   7   6     1.367484634264   125.25980280   180.03345911
 C      9   8   7     1.414004317462   118.26801063   359.90227360
 H      1   2   3     1.093366472762   111.21168700   298.68825022
 H      1   2   3     1.087603629388   105.11278005   180.07338415
 H      1   2   3     1.093373790492   111.21131922    61.45720102
 H      4   3   2     1.077522782313   120.37419963   359.96424958
 H      5   4   3     1.078496807883   119.33619979   179.98980521
 H      6   5   4     1.078503273608   120.50297013   179.98743915
 H      7   6   5     1.077531283952   119.25046648   179.99084262
 H     10   9   8     1.087604974490   105.11545327   179.95782139
 H     10   9   8     1.093373267263   111.22037425    61.34061544
 H     10   9   8     1.093365555856   111.21124722   298.57207595

---------------------------
INTERNAL COORDINATES (A.U.)
---------------------------
 C      0   0   0     0.000000000000     0.00000000     0.00000000
 O      1   0   0     2.672241161077     0.00000000     0.00000000
 C      2   1   0     2.584226786641   118.26763476     0.00000000
 C      3   2   1     2.614564097824   125.25932321     0.00000000
 C      4   3   2     2.625142944893   120.36903602   179.97772462
 C      5   4   3     2.602886385845   120.16225251     0.00000000
 C      6   5   4     2.625160982320   120.16354565     0.00000000
 C      7   6   5     2.614570829563   120.37066977   359.96860042
 O      8   7   6     2.584171451104   125.25980280   180.03345911
 C      9   8   7     2.672080912184   118.26801063   359.90227360
 H      1   2   3     2.066163197531   111.21168700   298.68825022
 H      1   2   3     2.055273001802   105.11278005   180.07338415
 H      1   2   3     2.066177026038   111.21131922    61.45720102
 H      4   3   2     2.036222961632   120.37419963   359.96424958
 H      5   4   3     2.038063603207   119.33619979   179.98980521
 H      6   5   4     2.038075821657   120.50297013   179.98743915
 H      7   6   5     2.036239027402   119.25046648   179.99084262
 H     10   9   8     2.055275543676   105.11545327   179.95782139
 H     10   9   8     2.066176037278   111.22037425    61.34061544
 H     10   9   8     2.066161464830   111.21124722   298.57207595

---------------------
BASIS SET INFORMATION
---------------------
There are 3 groups of distinct atoms

 Group   1 Type C   : 11s6p1d contracted to 5s3p1d pattern {62111/411/1}
 Group   2 Type O   : 11s6p2d contracted to 5s3p2d pattern {62111/411/11}
 Group   3 Type H   : 4s1p contracted to 2s1p pattern {31/1}

Atom   0C    basis set group =>   1
Atom   1O    basis set group =>   2
Atom   2C    basis set group =>   1
Atom   3C    basis set group =>   1
Atom   4C    basis set group =>   1
Atom   5C    basis set group =>   1
Atom   6C    basis set group =>   1
Atom   7C    basis set group =>   1
Atom   8O    basis set group =>   2
Atom   9C    basis set group =>   1
Atom  10H    basis set group =>   3
Atom  11H    basis set group =>   3
Atom  12H    basis set group =>   3
Atom  13H    basis set group =>   3
Atom  14H    basis set group =>   3
Atom  15H    basis set group =>   3
Atom  16H    basis set group =>   3
Atom  17H    basis set group =>   3
Atom  18H    basis set group =>   3
Atom  19H    basis set group =>   3
---------------------------------
AUXILIARY/J BASIS SET INFORMATION
---------------------------------
There are 3 groups of distinct atoms

 Group   1 Type C   : 12s5p4d2f1g contracted to 6s4p3d1f1g pattern {711111/2111/211/2/1}
 Group   2 Type O   : 12s5p4d2f1g contracted to 6s4p3d1f1g pattern {711111/2111/211/2/1}
 Group   3 Type H   : 5s2p1d contracted to 3s1p1d pattern {311/2/1}

Atom   0C    basis set group =>   1
Atom   1O    basis set group =>   2
Atom   2C    basis set group =>   1
Atom   3C    basis set group =>   1
Atom   4C    basis set group =>   1
Atom   5C    basis set group =>   1
Atom   6C    basis set group =>   1
Atom   7C    basis set group =>   1
Atom   8O    basis set group =>   2
Atom   9C    basis set group =>   1
Atom  10H    basis set group =>   3
Atom  11H    basis set group =>   3
Atom  12H    basis set group =>   3
Atom  13H    basis set group =>   3
Atom  14H    basis set group =>   3
Atom  15H    basis set group =>   3
Atom  16H    basis set group =>   3
Atom  17H    basis set group =>   3
Atom  18H    basis set group =>   3
Atom  19H    basis set group =>   3

Checking for AutoStart:
The File: sp_gas.gbw exists
Trying to determine its content:
     ... Fine, the file contains calculation information
     ... Fine, the calculation information was read
     ... Fine, the file contains a basis set
     ... Fine, the basis set was read
     ... Fine, the file contains a geometry
     ... Fine, the geometry was read
     ... Fine, the file contains a set of orbitals
     ... Fine, the orbitals can be read
     => possible old guess file was deleted
     => GBW file was renamed to GES file
     => GES file is set as startup file
     => Guess is set to MORead
     ... now leaving AutoStart

------------------------------------------------------------------------------
                             ORCA STARTUP CALCULATIONS
                           -- RI-GTO INTEGRALS CHOSEN --
------------------------------------------------------------------------------
------------------------------------------------------------------------------
                   ___                                                        
                  /   \      - P O W E R E D   B Y -                         
                 /     \                                                     
                 |  |  |   _    _      __       _____    __    __             
                 |  |  |  | |  | |    /  \     |  _  \  |  |  /  |          
                  \  \/   | |  | |   /    \    | | | |  |  | /  /          
                 / \  \   | |__| |  /  /\  \   | |_| |  |  |/  /          
                |  |  |   |  __  | /  /__\  \  |    /   |      \           
                |  |  |   | |  | | |   __   |  |    \   |  |\   \          
                \     /   | |  | | |  |  |  |  | |\  \  |  | \   \       
                 \___/    |_|  |_| |__|  |__|  |_| \__\ |__|  \__/        
                                                                              
                      - O R C A' S   B I G   F R I E N D -                    
                                      &                                       
                       - I N T E G R A L  F E E D E R -                       
                                                                              
 v1 FN, 2020, v2 2021, v3 2022-2024                                           
------------------------------------------------------------------------------


----------------------
SHARK INTEGRAL PACKAGE
----------------------

Number of atoms                             ...     20
Number of basis functions                   ...    250
Number of shells                            ...    122
Maximum angular momentum                    ...      2
Integral batch strategy                     ... SHARK/LIBINT Hybrid
RI-J (if used) integral strategy            ... SPLIT-RIJ (Revised 2003 algorithm where possible)
Printlevel                                  ...      1
Contraction scheme used                     ... SEGMENTED contraction
Prescreening option                         ... SCHWARTZ
   Thresh                                   ... 1.000e-10
   Tcut                                     ... 1.000e-11
   Tpresel                                  ... 1.000e-11 
Coulomb Range Separation                    ... NOT USED
Exchange Range Separation                   ... NOT USED
Multipole approximations                    ... NOT USED
Finite Nucleus Model                        ... NOT USED
CABS basis                                  ... NOT available
Auxiliary Coulomb fitting basis             ... AVAILABLE
   # of basis functions in Aux-J            ...    600
   # of shells in Aux-J                     ...    200
   Maximum angular momentum in Aux-J        ...      4
Auxiliary J/K fitting basis                 ... NOT available
Auxiliary Correlation fitting basis         ... NOT available
Auxiliary 'external' fitting basis          ... NOT available

Checking pre-screening integrals            ... done (  0.0 sec) Dimension = 122
Check shell pair data                       ... done (  0.0 sec)
Shell pair information
Shell pair cut-off parameter TPreSel        ...   1.0e-11
Total number of shell pairs                 ...      7503
Shell pairs after pre-screening             ...      6462
Total number of primitive shell pairs       ...     27278
Primitive shell pairs kept                  ...     16278
          la=0 lb=0:   2070 shell pairs
          la=1 lb=0:   2428 shell pairs
          la=1 lb=1:    735 shell pairs
          la=2 lb=0:    726 shell pairs
          la=2 lb=1:    430 shell pairs
          la=2 lb=2:     73 shell pairs

Calculating one electron integrals          ... done (  0.0 sec)
Calculating RI/J V-Matrix + Cholesky decomp.... done (  0.1 sec)
Calculating Nuclear repulsion               ... done (  0.0 sec) ENN=    522.523764977489 Eh

Diagonalization of the overlap matrix:
Smallest eigenvalue                        ... 2.299e-05
Time for diagonalization                   ...    0.011 sec
Threshold for overlap eigenvalues          ... 1.000e-07
Number of eigenvalues below threshold      ... 0
Time for construction of square roots      ...    0.017 sec
Total time needed                          ...    0.036 sec

-------------------
DFT GRID GENERATION
-------------------

General Integration Accuracy     IntAcc      ... 4.388
Radial Grid Type                 RadialGrid  ... OptM3 with GC (2021)
Angular Grid (max. ang.)         AngularGrid ... 4 (Lebedev-302)
Angular grid pruning method      GridPruning ... 4 (adaptive)
Weight generation scheme         WeightScheme... mBecke (2022)
Basis function cutoff            BFCut       ... 1.0000e-10
Integration weight cutoff        WCut        ... 1.0000e-14
Partially contracted basis set               ... off
Rotationally invariant grid construction     ... off
Angular grids for H and He will be reduced by one unit
Diffuse basis detected: some atoms will have their outermost
                        angular grid increased by 1.

Total number of grid points                  ...    92859
Total number of batches                      ...     1462
Average number of points per batch           ...       63
Average number of grid points per atom       ...     4643
Initializing property integral containers    ... done (  0.0 sec)

SHARK setup successfully completed in   1.4 seconds

Maximum memory used throughout the entire STARTUP-calculation: 43.0 MB
-------------------------------------------------------------------------------
                                 ORCA GUESS
                   Start orbitals & Density for SCF / CASSCF
-------------------------------------------------------------------------------

------------
SCF SETTINGS
------------
Hamiltonian:
 Density Functional     Method          .... DFT(GTOs)
  Functional kind                       .... Exchange
  Functional name                       .... Re-regularized SCAN exchange by Furness et al
  Functional family                     .... MGGA
  Functional refs                              
    [ 0] J. W. Furness, A. D. Kaplan, J. Ning, J. P. Perdew, and J. Sun.,  J. Phys. Chem. Lett. 11, 8208-8215 (2020), doi: 10.1021/acs.jpclett.0c02405
    [ 1] J. W. Furness, A. D. Kaplan, J. Ning, J. P. Perdew, and J. Sun.,  J. Phys. Chem. Lett. 11, 9248-9248 (2020), doi: 10.1021/acs.jpclett.0c03077
  Functional external parameters        .... 6
    Parameter  0 _c1        =  6.670000e-01 : c1 parameter        
    Parameter  1 _c2        =  8.000000e-01 : c2 parameter        
    Parameter  2 _d         =  1.240000e+00 : d parameter         
    Parameter  3 _k1        =  6.500000e-02 : k1 parameter        
    Parameter  4 _eta       =  1.000000e-03 : eta parameter       
    Parameter  5 _dp2       =  3.610000e-01 : dp2 parameter       
  Functional kind                       .... Correlation
  Functional name                       .... Re-regularized SCAN correlation by Furness et al
  Functional family                     .... MGGA
  Functional refs                              
    [ 0] J. W. Furness, A. D. Kaplan, J. Ning, J. P. Perdew, and J. Sun.,  J. Phys. Chem. Lett. 11, 8208-8215 (2020), doi: 10.1021/acs.jpclett.0c02405
    [ 1] J. W. Furness, A. D. Kaplan, J. Ning, J. P. Perdew, and J. Sun.,  J. Phys. Chem. Lett. 11, 9248-9248 (2020), doi: 10.1021/acs.jpclett.0c03077
  Functional external parameters        .... 1
    Parameter  0 _eta       =  1.000000e-03 : Regularization parameter
 Gradients option       PostSCFGGA      .... off
 RI-approximation to the Coulomb term is turned on
   Number of AuxJ basis functions       .... 600


General Settings:
 Integral files         IntName         .... sp_gas
 Hartree-Fock type      HFTyp           .... RHF
 Total Charge           Charge          ....    0
 Multiplicity           Mult            ....    1
 Number of Electrons    NEL             ....   74
 Basis Dimension        Dim             ....  250
 Nuclear Repulsion      ENuc            ....    522.5237649775 Eh

Convergence Acceleration:
 AO-DIIS                CNVDIIS         .... on
   Start iteration      DIISMaxIt       ....    12
   Startup error        DIISStart       ....  0.200000
   # of expansion vecs  DIISMaxEq       ....     5
   Bias factor          DIISBfac        ....   1.050
   Max. coefficient     DIISMaxC        ....  10.000
 MO-DIIS                CNVKDIIS        .... off
 Trust-Rad. Augm. Hess. CNVTRAH         .... auto
   Auto Start mean grad. ratio tolernc. ....  1.125000
   Auto Start start iteration           ....     1
   Auto Start num. interpolation iter.  ....    10
   Max. Number of Micro iterations      ....    24
   Max. Number of Macro iterations      .... Maxiter - #DIIS iter
   Number of Davidson start vectors     ....     2
   Converg. threshold    (grad. norm)   ....   3.330e-04
   Grad. Scal. Fac. for Micro threshold ....   0.100
   Minimum threshold for Micro iter.    ....   1.000e-02
   NR start threshold (gradient norm)   ....   1.000e-04
   Initial trust radius                 ....   0.400
   Minimum AH scaling param. (alpha)    ....   1.000
   Maximum AH scaling param. (alpha)    .... 1000.000
   Quad. conv. algorithm                .... NR
   White noise on init. David. guess    .... on
   Maximum white noise                  ....   0.010
   Pseudo random numbers                .... off
   Inactive MOs                         .... canonical
   Orbital update algorithm             .... Taylor
   Preconditioner                       .... Diag
   Full preconditioner red. dimension   ....   250
   COSX micro iterations for RIJONX calc.... off
 SOSCF                  CNVSOSCF        .... on
   Start iteration      SOSCFMaxIt      ....   150
   Startup grad/error   SOSCFStart      ....  0.003300
   Hessian update       SOSCFHessUp     .... L-BFGS
 Level Shifting         CNVShift        .... on
   Level shift para.    LevelShift      ....    0.2500
   Turn off err/grad.   ShiftErr        ....    0.0010
 Zerner damping         CNVZerner       .... off
 Static damping         CNVDamp         .... on
   Fraction old density DampFac         ....    0.7000
   Max. Damping (<1)    DampMax         ....    0.9800
   Min. Damping (>=0)   DampMin         ....    0.0000
   Turn off err/grad.   DampErr         ....    0.1000

SCF Procedure:
 Maximum # iterations   MaxIter         ....   125
 SCF integral mode      SCFMode         .... Direct
   Integral package                     .... SHARK and LIBINT hybrid scheme
 Reset frequency        DirectResetFreq ....    20
 Integral Threshold     Thresh          ....  1.000e-10 Eh
 Primitive CutOff       TCut            ....  1.000e-11 Eh

Convergence Tolerance:
 Convergence Check Mode ConvCheckMode   .... Total+1el-Energy
 Convergence forced     ConvForced      .... 0
 Energy Change          TolE            ....  1.000e-06 Eh
 1-El. energy change                    ....  1.000e-03 Eh
 Orbital Gradient       TolG            ....  3.330e-04
 Orbital Rotation angle TolX            ....  3.330e-04
 DIIS Error             TolErr          ....  1.000e-06

---------------------
INITIAL GUESS: MOREAD
---------------------
Guess MOs are being read from file: sp_gas.ges
Input Geometry matches current geometry (good)
Atom 0: N(Shells)= 9 and 6 - projection required
Input basis set needs projection
NBasis(read)= 160
NBasis(calc)= 250
Basis set overlap was calculated
Using GuessMode=FMatrix for the initial guess
C*T matrix was formed
Effective Fockian was calculated
Effective Fockian was diagonalized
Initial density was built
                      ------------------
                      INITIAL GUESS DONE (   0.0 sec)
                      ------------------
             **** ENERGY FILE WAS UPDATED (sp_gas.en.tmp) ****
Finished Guess after   0.3 sec
Maximum memory used throughout the entire GUESS-calculation: 18.3 MB

-------------------------------------------------------------------------------------------
                                      ORCA LEAN-SCF
                              memory conserving SCF solver
-------------------------------------------------------------------------------------------

----------------------------------------D-I-I-S--------------------------------------------
Iteration    Energy (Eh)           Delta-E    RMSDP     MaxDP     DIISErr   Damp  Time(sec)
-------------------------------------------------------------------------------------------
               ***  Starting incremental Fock matrix formation  ***
    1    -460.9639527506127479     0.00e+00  1.48e-02  5.71e-01  6.27e-01  0.700   3.3
    2    -461.0293735244728168    -6.54e-02  1.10e-02  4.13e-01  4.41e-01  0.700   3.1
    3    -461.0755252019482668    -4.62e-02  7.83e-03  2.88e-01  3.09e-01  0.700   3.0
    4    -461.1079045059332202    -3.24e-02  5.50e-03  2.00e-01  2.16e-01  0.700   2.9
                               ***Turning on AO-DIIS***
    5    -461.1306040358932705    -2.27e-02  3.86e-03  1.39e-01  1.51e-01  0.700   2.9
    6    -461.1465086744923383    -1.59e-02  2.70e-03  9.66e-02  1.06e-01  0.700   2.9
    7    -461.1576544136203211    -1.11e-02  1.89e-03  6.75e-02  7.42e-02  0.700   2.8
    8    -461.1654613894173735    -7.81e-03  4.41e-03  1.57e-01  5.20e-02  0.000   2.8
                              *** Initializing SOSCF ***
---------------------------------------S-O-S-C-F--------------------------------------
Iteration    Energy (Eh)           Delta-E    RMSDP     MaxDP     MaxGrad    Time(sec)
--------------------------------------------------------------------------------------
    9    -461.1836950570689169    -1.82e-02  7.05e-06  1.25e-04  1.51e-04     3.0
               *** Restarting incremental Fock matrix formation ***
   10    -461.1836951559156432    -9.88e-08  7.83e-06  1.82e-04  3.54e-05     3.3
                  *** Gradient check signals convergence ***

               *****************************************************
               *                     SUCCESS                       *
               *           SCF CONVERGED AFTER  10 CYCLES          *
               *****************************************************

             **** ENERGY FILE WAS UPDATED (sp_gas.en.tmp) ****

----------------
TOTAL SCF ENERGY
----------------

Total Energy       :       -461.18369515591564 Eh          -12549.44635 eV

Components:
Nuclear Repulsion  :        522.52376497748878 Eh           14218.59450 eV
Electronic Energy  :       -983.70746013340442 Eh          -26768.04085 eV
One Electron Energy:      -1662.09891659898517 Eh          -45228.01087 eV
Two Electron Energy:        678.39145646558075 Eh           18459.97002 eV

Virial components:
Potential Energy   :       -920.48652459348932 Eh          -25047.71174 eV
Kinetic Energy     :        459.30282943757368 Eh           12498.26539 eV
Virial Ratio       :          2.00409504491981

DFT components:
N(Alpha)           :       36.999946946743 electrons
N(Beta)            :       36.999946946743 electrons
N(Total)           :       73.999893893486 electrons
E(X)               :      -61.793749960990 Eh       
E(C)               :       -2.396787536448 Eh       
E(XC)              :      -64.190537497438 Eh       

---------------
SCF CONVERGENCE
---------------

  Last Energy change         ...    9.8847e-08  Tolerance :   1.0000e-06
  Last MAX-Density change    ...    1.8171e-04  Tolerance :   1.0000e-05
  Last RMS-Density change    ...    7.8344e-06  Tolerance :   1.0000e-06
  Last DIIS Error            ...    1.5063e-04  Tolerance :   1.0000e-06
  Last Orbital Gradient      ...    3.5433e-05  Tolerance :   3.3300e-04
  Last Orbital Rotation      ...    8.7190e-05  Tolerance :   3.3300e-04


----------------
ORBITAL ENERGIES
----------------

  NO   OCC          E(Eh)            E(eV) 
   0   2.0000     -18.980229      -516.4783 
   1   2.0000     -18.980215      -516.4779 
   2   2.0000     -10.089759      -274.5563 
   3   2.0000     -10.089399      -274.5465 
   4   2.0000     -10.082956      -274.3712 
   5   2.0000     -10.082949      -274.3710 
   6   2.0000     -10.029436      -272.9148 
   7   2.0000     -10.029427      -272.9146 
   8   2.0000     -10.025174      -272.7988 
   9   2.0000     -10.024679      -272.7854 
  10   2.0000      -1.036536       -28.2056 
  11   2.0000      -1.017216       -27.6799 
  12   2.0000      -0.817504       -22.2454 
  13   2.0000      -0.729693       -19.8560 
  14   2.0000      -0.714916       -19.4539 
  15   2.0000      -0.671315       -18.2674 
  16   2.0000      -0.654422       -17.8077 
  17   2.0000      -0.567537       -15.4435 
  18   2.0000      -0.560001       -15.2384 
  19   2.0000      -0.510117       -13.8810 
  20   2.0000      -0.475616       -12.9422 
  21   2.0000      -0.460902       -12.5418 
  22   2.0000      -0.439805       -11.9677 
  23   2.0000      -0.427596       -11.6355 
  24   2.0000      -0.424872       -11.5613 
  25   2.0000      -0.417619       -11.3640 
  26   2.0000      -0.398965       -10.8564 
  27   2.0000      -0.377338       -10.2679 
  28   2.0000      -0.357030        -9.7153 
  29   2.0000      -0.346292        -9.4231 
  30   2.0000      -0.332692        -9.0530 
  31   2.0000      -0.300069        -8.1653 
  32   2.0000      -0.290956        -7.9173 
  33   2.0000      -0.290559        -7.9065 
  34   2.0000      -0.288952        -7.8628 
  35   2.0000      -0.219560        -5.9745 
  36   2.0000      -0.184104        -5.0097 
  37   0.0000      -0.017739        -0.4827 
  38   0.0000      -0.010350        -0.2816 
  39   0.0000       0.049497         1.3469 
  40   0.0000       0.090565         2.4644 
  41   0.0000       0.091231         2.4825 
  42   0.0000       0.094660         2.5758 
  43   0.0000       0.109931         2.9914 
  44   0.0000       0.128719         3.5026 
  45   0.0000       0.142540         3.8787 
  46   0.0000       0.142593         3.8802 
  47   0.0000       0.159017         4.3271 
*Only the first 10 virtual orbitals were printed.

                    ********************************
                    * MULLIKEN POPULATION ANALYSIS *
                    ********************************

-----------------------
MULLIKEN ATOMIC CHARGES
-----------------------
   0 C :   -0.315080
   1 O :   -0.185688
   2 C :    0.193538
   3 C :   -0.260097
   4 C :   -0.182906
   5 C :   -0.182898
   6 C :   -0.260098
   7 C :    0.193527
   8 O :   -0.185624
   9 C :   -0.315113
  10 H :    0.151496
  11 H :    0.154511
  12 H :    0.151553
  13 H :    0.148118
  14 H :    0.144553
  15 H :    0.144552
  16 H :    0.148121
  17 H :    0.154504
  18 H :    0.151424
  19 H :    0.151608
Sum of atomic charges:    0.0000000

--------------------------------
MULLIKEN REDUCED ORBITAL CHARGES
--------------------------------
  0 C s       :     3.330698  s :     3.330698
      pz      :     1.086241  p :     2.937705
      px      :     0.705117
      py      :     1.146347
      dz2     :     0.006961  d :     0.046678
      dxz     :     0.014110
      dyz     :     0.003524
      dx2y2   :     0.013641
      dxy     :     0.008443

  1 O s       :     3.720633  s :     3.720633
      pz      :     1.807509  p :     4.436122
      px      :     1.222615
      py      :     1.405998
      dz2     :     0.004239  d :     0.028933
      dxz     :     0.000830
      dyz     :     0.004751
      dx2y2   :     0.014082
      dxy     :     0.005031

  2 C s       :     3.119130  s :     3.119130
      pz      :     0.994099  p :     2.616952
      px      :     0.864617
      py      :     0.758235
      dz2     :     0.004902  d :     0.070381
      dxz     :     0.007634
      dyz     :     0.015442
      dx2y2   :     0.023948
      dxy     :     0.018455

  3 C s       :     3.199064  s :     3.199064
      pz      :     1.081302  p :     3.024755
      px      :     1.025565
      py      :     0.917889
      dz2     :     0.003459  d :     0.036278
      dxz     :     0.002233
      dyz     :     0.007527
      dx2y2   :     0.012167
      dxy     :     0.010892

  4 C s       :     3.193744  s :     3.193744
      pz      :     1.013905  p :     2.950871
      px      :     0.948504
      py      :     0.988462
      dz2     :     0.003330  d :     0.038291
      dxz     :     0.006335
      dyz     :     0.003766
      dx2y2   :     0.011696
      dxy     :     0.013164

  5 C s       :     3.193738  s :     3.193738
      pz      :     1.013912  p :     2.950870
      px      :     0.948496
      py      :     0.988462
      dz2     :     0.003330  d :     0.038290
      dxz     :     0.006335
      dyz     :     0.003766
      dx2y2   :     0.011696
      dxy     :     0.013164

  6 C s       :     3.199051  s :     3.199051
      pz      :     1.081297  p :     3.024770
      px      :     1.025585
      py      :     0.917888
      dz2     :     0.003459  d :     0.036277
      dxz     :     0.002233
      dyz     :     0.007527
      dx2y2   :     0.012168
      dxy     :     0.010891

  7 C s       :     3.119116  s :     3.119116
      pz      :     0.994098  p :     2.616973
      px      :     0.864626
      py      :     0.758249
      dz2     :     0.004902  d :     0.070384
      dxz     :     0.007634
      dyz     :     0.015443
      dx2y2   :     0.023949
      dxy     :     0.018456

  8 O s       :     3.720589  s :     3.720589
      pz      :     1.807486  p :     4.436102
      px      :     1.222589
      py      :     1.406028
      dz2     :     0.004239  d :     0.028934
      dxz     :     0.000829
      dyz     :     0.004752
      dx2y2   :     0.014083
      dxy     :     0.005031

  9 C s       :     3.330680  s :     3.330680
      pz      :     1.086252  p :     2.937747
      px      :     0.705135
      py      :     1.146360
      dz2     :     0.006961  d :     0.046687
      dxz     :     0.014114
      dyz     :     0.003524
      dx2y2   :     0.013642
      dxy     :     0.008446

 10 H s       :     0.831028  s :     0.831028
      pz      :     0.008839  p :     0.017476
      px      :     0.003623
      py      :     0.005014

 11 H s       :     0.827958  s :     0.827958
      pz      :     0.003687  p :     0.017531
      px      :     0.002582
      py      :     0.011263

 12 H s       :     0.830973  s :     0.830973
      pz      :     0.008859  p :     0.017474
      px      :     0.003619
      py      :     0.004996

 13 H s       :     0.831501  s :     0.831501
      pz      :     0.004783  p :     0.020381
      px      :     0.012360
      py      :     0.003237

 14 H s       :     0.835705  s :     0.835705
      pz      :     0.004498  p :     0.019742
      px      :     0.005388
      py      :     0.009856

 15 H s       :     0.835707  s :     0.835707
      pz      :     0.004498  p :     0.019741
      px      :     0.005388
      py      :     0.009855

 16 H s       :     0.831498  s :     0.831498
      pz      :     0.004783  p :     0.020380
      px      :     0.012360
      py      :     0.003237

 17 H s       :     0.827964  s :     0.827964
      pz      :     0.003687  p :     0.017531
      px      :     0.002582
      py      :     0.011263

 18 H s       :     0.831099  s :     0.831099
      pz      :     0.008833  p :     0.017476
      px      :     0.003629
      py      :     0.005015

 19 H s       :     0.830918  s :     0.830918
      pz      :     0.008864  p :     0.017474
      px      :     0.003614
      py      :     0.004996


------------------------
MULLIKEN OVERLAP CHARGES
------------------------
B(  0-C ,  1-O ) :   0.3807 B(  0-C ,  2-C ) :  -0.2894 B(  0-C , 10-H ) :   0.8284 
B(  0-C , 11-H ) :   0.7787 B(  0-C , 12-H ) :   0.8284 B(  1-O ,  2-C ) :   0.5805 
B(  1-O ,  3-C ) :  -0.1406 B(  1-O ,  7-C ) :  -0.1322 B(  1-O , 10-H ) :  -0.0830 
B(  1-O , 11-H ) :  -0.0882 B(  1-O , 12-H ) :  -0.0831 B(  2-C ,  3-C ) :   0.6535 
B(  2-C ,  4-C ) :  -0.0686 B(  2-C ,  5-C ) :  -0.0638 B(  2-C ,  6-C ) :  -0.1451 
B(  2-C ,  7-C ) :   0.8679 B(  2-C ,  8-O ) :  -0.1322 B(  3-C ,  4-C ) :   0.7680 
B(  3-C ,  5-C ) :  -0.2007 B(  3-C ,  7-C ) :  -0.1451 B(  3-C , 13-H ) :   0.7598 
B(  3-C , 14-H ) :  -0.0522 B(  4-C ,  5-C ) :   1.0480 B(  4-C ,  6-C ) :  -0.2008 
B(  4-C ,  7-C ) :  -0.0637 B(  4-C , 14-H ) :   0.7907 B(  5-C ,  6-C ) :   0.7679 
B(  5-C ,  7-C ) :  -0.0685 B(  5-C , 15-H ) :   0.7907 B(  6-C ,  7-C ) :   0.6532 
B(  6-C ,  8-O ) :  -0.1406 B(  6-C , 15-H ) :  -0.0522 B(  6-C , 16-H ) :   0.7598 
B(  7-C ,  8-O ) :   0.5806 B(  7-C ,  9-C ) :  -0.2895 B(  8-O ,  9-C ) :   0.3807 
B(  8-O , 17-H ) :  -0.0883 B(  8-O , 18-H ) :  -0.0830 B(  8-O , 19-H ) :  -0.0831 
B(  9-C , 17-H ) :   0.7787 B(  9-C , 18-H ) :   0.8284 B(  9-C , 19-H ) :   0.8285 
B( 10-H , 12-H ) :  -0.0820 B( 18-H , 19-H ) :  -0.0820 


                     *******************************
                     * LOEWDIN POPULATION ANALYSIS *
                     *******************************

----------------------
LOEWDIN ATOMIC CHARGES
----------------------
   0 C :   -0.050456
   1 O :   -0.662213
   2 C :    0.210956
   3 C :   -0.169673
   4 C :   -0.179025
   5 C :   -0.179031
   6 C :   -0.169671
   7 C :    0.210955
   8 O :   -0.662193
   9 C :   -0.050456
  10 H :    0.164080
  11 H :    0.180425
  12 H :    0.164071
  13 H :    0.175481
  14 H :    0.166354
  15 H :    0.166354
  16 H :    0.175480
  17 H :    0.180424
  18 H :    0.164046
  19 H :    0.164093

-------------------------------
LOEWDIN REDUCED ORBITAL CHARGES
-------------------------------
  0 C s       :     2.899469  s :     2.899469
      pz      :     1.101388  p :     3.039408
      px      :     0.821836
      py      :     1.116184
      dz2     :     0.016588  d :     0.111579
      dxz     :     0.032806
      dyz     :     0.009003
      dx2y2   :     0.033517
      dxy     :     0.019665

  1 O s       :     3.468300  s :     3.468300
      pz      :     1.788653  p :     4.700606
      px      :     1.382283
      py      :     1.529670
      dz2     :     0.050306  d :     0.493307
      dxz     :     0.089817
      dyz     :     0.060472
      dx2y2   :     0.147010
      dxy     :     0.145703

  2 C s       :     2.769842  s :     2.769842
      pz      :     0.937104  p :     2.866397
      px      :     0.995027
      py      :     0.934266
      dz2     :     0.010633  d :     0.152805
      dxz     :     0.014158
      dyz     :     0.028799
      dx2y2   :     0.055967
      dxy     :     0.043248

  3 C s       :     2.887403  s :     2.887403
      pz      :     1.046278  p :     3.203163
      px      :     1.098420
      py      :     1.058465
      dz2     :     0.005756  d :     0.079107
      dxz     :     0.003336
      dyz     :     0.013783
      dx2y2   :     0.030175
      dxy     :     0.026057

  4 C s       :     2.897863  s :     2.897863
      pz      :     1.006520  p :     3.197401
      px      :     1.100239
      py      :     1.090642
      dz2     :     0.005632  d :     0.083762
      dxz     :     0.011561
      dyz     :     0.006444
      dx2y2   :     0.028189
      dxy     :     0.031935

  5 C s       :     2.897866  s :     2.897866
      pz      :     1.006527  p :     3.197405
      px      :     1.100238
      py      :     1.090640
      dz2     :     0.005632  d :     0.083761
      dxz     :     0.011561
      dyz     :     0.006444
      dx2y2   :     0.028188
      dxy     :     0.031935

  6 C s       :     2.887408  s :     2.887408
      pz      :     1.046272  p :     3.203157
      px      :     1.098422
      py      :     1.058462
      dz2     :     0.005756  d :     0.079106
      dxz     :     0.003336
      dyz     :     0.013783
      dx2y2   :     0.030176
      dxy     :     0.026055

  7 C s       :     2.769831  s :     2.769831
      pz      :     0.937100  p :     2.866400
      px      :     0.995030
      py      :     0.934270
      dz2     :     0.010634  d :     0.152814
      dxz     :     0.014159
      dyz     :     0.028801
      dx2y2   :     0.055970
      dxy     :     0.043251

  8 O s       :     3.468247  s :     3.468247
      pz      :     1.788628  p :     4.700607
      px      :     1.382291
      py      :     1.529688
      dz2     :     0.050306  d :     0.493339
      dxz     :     0.089830
      dyz     :     0.060473
      dx2y2   :     0.147013
      dxy     :     0.145716

  9 C s       :     2.899433  s :     2.899433
      pz      :     1.101381  p :     3.039419
      px      :     0.821864
      py      :     1.116175
      dz2     :     0.016589  d :     0.111603
      dxz     :     0.032817
      dyz     :     0.009002
      dx2y2   :     0.033522
      dxy     :     0.019673

 10 H s       :     0.795085  s :     0.795085
      pz      :     0.021485  p :     0.040835
      px      :     0.007956
      py      :     0.011393

 11 H s       :     0.780136  s :     0.780136
      pz      :     0.007565  p :     0.039438
      px      :     0.004863
      py      :     0.027011

 12 H s       :     0.795098  s :     0.795098
      pz      :     0.021535  p :     0.040831
      px      :     0.007947
      py      :     0.011348

 13 H s       :     0.778213  s :     0.778213
      pz      :     0.010685  p :     0.046306
      px      :     0.028598
      py      :     0.007022

 14 H s       :     0.788807  s :     0.788807
      pz      :     0.009728  p :     0.044839
      px      :     0.012384
      py      :     0.022727

 15 H s       :     0.788808  s :     0.788808
      pz      :     0.009728  p :     0.044838
      px      :     0.012384
      py      :     0.022726

 16 H s       :     0.778215  s :     0.778215
      pz      :     0.010685  p :     0.046305
      px      :     0.028598
      py      :     0.007022

 17 H s       :     0.780138  s :     0.780138
      pz      :     0.007566  p :     0.039438
      px      :     0.004863
      py      :     0.027009

 18 H s       :     0.795120  s :     0.795120
      pz      :     0.021469  p :     0.040833
      px      :     0.007968
      py      :     0.011396

 19 H s       :     0.795076  s :     0.795076
      pz      :     0.021548  p :     0.040831
      px      :     0.007937
      py      :     0.011346


---------------------------------
LOEWDIN BOND ORDERS (THRESH 0.050000)
---------------------------------
B(  0-C ,  1-O ) :   1.3966 B(  0-C ,  2-C ) :   0.0805 B(  0-C , 10-H ) :   0.8591 
B(  0-C , 11-H ) :   0.8593 B(  0-C , 12-H ) :   0.8591 B(  1-O ,  2-C ) :   1.4334 
B(  1-O ,  3-C ) :   0.2147 B(  1-O ,  7-C ) :   0.1853 B(  1-O ,  8-O ) :   0.1110 
B(  1-O , 10-H ) :   0.1047 B(  1-O , 11-H ) :   0.1028 B(  1-O , 12-H ) :   0.1047 
B(  2-C ,  3-C ) :   1.3568 B(  2-C ,  4-C ) :   0.0949 B(  2-C ,  5-C ) :   0.1046 
B(  2-C ,  6-C ) :   0.0876 B(  2-C ,  7-C ) :   1.1144 B(  2-C ,  8-O ) :   0.1853 
B(  2-C , 13-H ) :   0.0533 B(  3-C ,  4-C ) :   1.4585 B(  3-C ,  5-C ) :   0.0908 
B(  3-C ,  6-C ) :   0.1076 B(  3-C ,  7-C ) :   0.0876 B(  3-C , 13-H ) :   0.8561 
B(  3-C , 14-H ) :   0.0547 B(  4-C ,  5-C ) :   1.5351 B(  4-C ,  6-C ) :   0.0908 
B(  4-C ,  7-C ) :   0.1046 B(  4-C , 13-H ) :   0.0528 B(  4-C , 14-H ) :   0.8733 
B(  4-C , 15-H ) :   0.0550 B(  5-C ,  6-C ) :   1.4585 B(  5-C ,  7-C ) :   0.0949 
B(  5-C , 14-H ) :   0.0550 B(  5-C , 15-H ) :   0.8733 B(  5-C , 16-H ) :   0.0528 
B(  6-C ,  7-C ) :   1.3568 B(  6-C ,  8-O ) :   0.2147 B(  6-C , 15-H ) :   0.0547 
B(  6-C , 16-H ) :   0.8561 B(  7-C ,  8-O ) :   1.4334 B(  7-C ,  9-C ) :   0.0805 
B(  7-C , 16-H ) :   0.0533 B(  8-O ,  9-C ) :   1.3967 B(  8-O , 17-H ) :   0.1028 
B(  8-O , 18-H ) :   0.1047 B(  8-O , 19-H ) :   0.1047 B(  9-C , 17-H ) :   0.8593 
B(  9-C , 18-H ) :   0.8591 B(  9-C , 19-H ) :   0.8591 

------------------------------------------
LOEWDIN REDUCED ORBITAL POPULATIONS PER MO
-------------------------------------------
THRESHOLD FOR PRINTING IS 0.1%%
                      0         1         2         3         4         5   
                 -18.98023 -18.98022 -10.08976 -10.08940 -10.08296 -10.08295
                   2.00000   2.00000   2.00000   2.00000   2.00000   2.00000
                  --------  --------  --------  --------  --------  --------
 0 C  s               0.0       0.0       0.0       0.0      98.5       1.0
 1 O  s              19.1      80.8       0.0       0.0       0.0       0.0
 1 O  px              0.0       0.0       0.0       0.0       0.1       0.0
 1 O  dx2y2           0.0       0.0       0.0       0.1       0.2       0.0
 2 C  s               0.0       0.0      49.3      50.0       0.0       0.0
 7 C  s               0.0       0.0      49.9      49.4       0.0       0.0
 8 O  s              80.8      19.1       0.0       0.0       0.0       0.0
 8 O  px              0.0       0.0       0.0       0.0       0.0       0.1
 8 O  dx2y2           0.0       0.0       0.0       0.1       0.0       0.2
 9 C  s               0.0       0.0       0.0       0.0       1.0      98.5

                      6         7         8         9        10        11   
                 -10.02944 -10.02943 -10.02517 -10.02468  -1.03654  -1.01722
                   2.00000   2.00000   2.00000   2.00000   2.00000   2.00000
                  --------  --------  --------  --------  --------  --------
 0 C  s               0.0       0.0       0.0       0.0       3.3       3.9
 0 C  px              0.0       0.0       0.0       0.0       3.5       3.7
 0 C  dx2y2           0.0       0.0       0.0       0.0       0.2       0.3
 1 O  s               0.0       0.0       0.0       0.0      27.5      29.4
 1 O  px              0.0       0.0       0.0       0.0       0.1       0.6
 1 O  py              0.0       0.0       0.0       0.0       1.2       0.9
 1 O  dz2             0.0       0.0       0.0       0.0       0.4       0.1
 1 O  dxy             0.0       0.0       0.0       0.0       0.1       0.0
 2 C  s               0.0       0.0       0.0       0.0       6.6       2.6
 2 C  px              0.0       0.0       0.0       0.0       0.2       3.5
 2 C  py              0.1       0.1       0.0       0.0       3.7       2.9
 2 C  dz2             0.0       0.0       0.0       0.0       0.2       0.1
 2 C  dx2y2           0.0       0.0       0.0       0.0       0.1       0.2
 2 C  dxy             0.0       0.0       0.0       0.0       0.2       0.3
 3 C  s              48.6      50.7       0.1       0.1       0.6       0.2
 3 C  px              0.0       0.0       0.0       0.0       0.1       0.0
 3 C  py              0.0       0.0       0.1       0.0       0.8       0.5
 4 C  s               0.1       0.2      49.7      49.6       0.1       0.0
 4 C  py              0.0       0.1       0.0       0.0       0.1       0.0
 5 C  s               0.1       0.1      49.6      49.8       0.1       0.0
 5 C  py              0.1       0.1       0.0       0.0       0.1       0.0
 6 C  s              50.7      48.6       0.1       0.1       0.6       0.2
 6 C  px              0.0       0.0       0.0       0.0       0.1       0.0
 6 C  py              0.0       0.0       0.1       0.0       0.8       0.5
 7 C  s               0.0       0.0       0.0       0.0       6.6       2.6
 7 C  px              0.0       0.0       0.0       0.0       0.2       3.5
 7 C  py              0.1       0.1       0.0       0.0       3.8       2.9
 7 C  dz2             0.0       0.0       0.0       0.0       0.2       0.1
 7 C  dx2y2           0.0       0.0       0.0       0.0       0.1       0.2
 7 C  dxy             0.0       0.0       0.0       0.0       0.2       0.3
 8 O  s               0.0       0.0       0.0       0.0      27.6      29.3
 8 O  px              0.0       0.0       0.0       0.0       0.1       0.6
 8 O  py              0.0       0.0       0.0       0.0       1.2       0.9
 8 O  dz2             0.0       0.0       0.0       0.0       0.4       0.1
 8 O  dxy             0.0       0.0       0.0       0.0       0.1       0.0
 9 C  s               0.0       0.0       0.0       0.0       3.3       3.9
 9 C  px              0.0       0.0       0.0       0.0       3.5       3.7
 9 C  dx2y2           0.0       0.0       0.0       0.0       0.2       0.3
10 H  s               0.0       0.0       0.0       0.0       0.2       0.3
11 H  s               0.0       0.0       0.0       0.0       0.2       0.3
12 H  s               0.0       0.0       0.0       0.0       0.2       0.3
17 H  s               0.0       0.0       0.0       0.0       0.2       0.3
18 H  s               0.0       0.0       0.0       0.0       0.2       0.3
19 H  s               0.0       0.0       0.0       0.0       0.2       0.3

                     12        13        14        15        16        17   
                  -0.81750  -0.72969  -0.71492  -0.67132  -0.65442  -0.56754
                   2.00000   2.00000   2.00000   2.00000   2.00000   2.00000
                  --------  --------  --------  --------  --------  --------
 0 C  s               0.7       7.1       1.6      14.6       7.3       3.2
 0 C  px              0.2       0.2       0.1       0.8       1.0       2.9
 0 C  py              0.1       0.1       0.3       0.1       0.0       0.4
 1 O  s               1.1       0.1       0.3       1.7       2.4       0.8
 1 O  px              1.2       8.0       1.2       7.1       3.1       0.7
 1 O  py              0.9       2.5       1.8       2.0       0.2       0.0
 1 O  dz2             0.1       0.0       0.0       0.5       0.4       0.2
 1 O  dx2y2           0.4       0.5       1.1       1.7       0.0       0.8
 1 O  dxy             0.2       0.4       0.0       0.0       0.1       1.0
 2 C  s               7.8       6.1       4.0       0.6       2.2       1.6
 2 C  px              1.1       2.9       3.5       0.4       0.1      10.2
 2 C  py              4.4       0.8       2.8       2.4       5.6       1.0
 2 C  dx2y2           0.0       0.0       0.1       0.1       0.1       0.2
 2 C  dxy             0.0       0.0       0.1       0.1       0.0       0.0
 3 C  s              11.2       0.6      17.0       2.0       1.8       6.3
 3 C  px              2.7       0.0       0.2       0.1       0.1       3.7
 3 C  py              0.1       3.9       0.0       0.4       4.8       0.0
 3 C  dz2             0.1       0.0       0.1       0.0       0.0       0.0
 3 C  dxy             0.0       0.1       0.0       0.0       0.2       0.0
 4 C  s              12.0       9.3       4.0       1.0       7.1       0.9
 4 C  px              0.7       0.9       4.6       1.1       1.9       4.0
 4 C  py              2.0       0.1       1.8       0.2       2.1       2.0
 4 C  dz2             0.1       0.1       0.0       0.0       0.0       0.0
 4 C  dx2y2           0.0       0.0       0.1       0.0       0.1       0.0
 5 C  s              12.0       9.3       4.0       1.0       7.1       0.9
 5 C  px              0.7       0.9       4.6       1.1       1.9       4.0
 5 C  py              2.0       0.1       1.8       0.2       2.1       2.0
 5 C  dz2             0.1       0.1       0.0       0.0       0.0       0.0
 5 C  dx2y2           0.0       0.0       0.1       0.0       0.1       0.0
 6 C  s              11.2       0.6      17.0       2.0       1.8       6.3
 6 C  px              2.7       0.0       0.2       0.1       0.1       3.7
 6 C  py              0.1       3.9       0.0       0.4       4.8       0.0
 6 C  dz2             0.1       0.0       0.1       0.0       0.0       0.0
 6 C  dxy             0.0       0.1       0.0       0.0       0.2       0.0
 7 C  s               7.8       6.1       3.9       0.6       2.2       1.6
 7 C  px              1.1       2.9       3.5       0.4       0.1      10.2
 7 C  py              4.4       0.8       2.8       2.4       5.6       1.0
 7 C  dx2y2           0.0       0.0       0.1       0.1       0.1       0.2
 7 C  dxy             0.0       0.0       0.1       0.1       0.0       0.0
 8 O  s               1.1       0.1       0.3       1.7       2.4       0.8
 8 O  px              1.2       8.0       1.2       7.1       3.1       0.7
 8 O  py              0.9       2.5       1.8       2.0       0.2       0.0
 8 O  dz2             0.1       0.0       0.0       0.5       0.4       0.2
 8 O  dx2y2           0.4       0.5       1.1       1.7       0.0       0.8
 8 O  dxy             0.2       0.4       0.0       0.0       0.1       1.0
 9 C  s               0.7       7.1       1.6      14.6       7.3       3.2
 9 C  px              0.2       0.2       0.1       0.8       1.0       2.9
 9 C  py              0.1       0.1       0.3       0.1       0.0       0.4
10 H  s               0.1       1.2       0.2       3.6       2.2       1.3
10 H  pz              0.0       0.1       0.0       0.2       0.1       0.1
11 H  s               0.1       1.6       0.5       4.1       1.9       1.8
11 H  py              0.0       0.1       0.0       0.3       0.1       0.1
12 H  s               0.1       1.2       0.2       3.6       2.2       1.3
12 H  pz              0.0       0.1       0.0       0.2       0.1       0.1
13 H  s               1.0       0.1       3.0       0.6       0.6       4.4
13 H  px              0.1       0.0       0.3       0.0       0.0       0.3
14 H  s               1.1       1.4       0.7       0.2       1.9       0.3
14 H  py              0.1       0.1       0.1       0.0       0.1       0.0
15 H  s               1.1       1.4       0.7       0.2       1.9       0.3
15 H  py              0.1       0.1       0.1       0.0       0.1       0.0
16 H  s               1.0       0.1       3.0       0.6       0.6       4.4
16 H  px              0.1       0.0       0.3       0.0       0.0       0.3
17 H  s               0.1       1.6       0.5       4.1       1.9       1.8
17 H  py              0.0       0.1       0.0       0.3       0.1       0.1
18 H  s               0.1       1.2       0.2       3.6       2.2       1.3
18 H  pz              0.0       0.1       0.0       0.2       0.1       0.1
19 H  s               0.1       1.2       0.2       3.6       2.2       1.3
19 H  pz              0.0       0.1       0.0       0.2       0.1       0.1

                     18        19        20        21        22        23   
                  -0.56000  -0.51012  -0.47562  -0.46090  -0.43980  -0.42760
                   2.00000   2.00000   2.00000   2.00000   2.00000   2.00000
                  --------  --------  --------  --------  --------  --------
 0 C  s               1.1       0.8       0.9       0.1       0.0       0.0
 0 C  pz              0.0       0.0       0.0       0.0      16.7      21.9
 0 C  px              2.7       5.9       8.6       0.7       0.0       0.0
 0 C  py              0.8       2.3       1.1       4.8       0.0       0.0
 0 C  dz2             0.1       0.1       0.1       0.0       0.0       0.0
 0 C  dyz             0.0       0.0       0.0       0.0       0.1       0.1
 0 C  dx2y2           0.1       0.1       0.1       0.0       0.0       0.0
 1 O  s               2.3       1.0       0.1       0.6       0.0       0.0
 1 O  pz              0.0       0.0       0.0       0.0      15.1      12.3
 1 O  px              0.3       3.9       8.1       4.6       0.0       0.0
 1 O  py              4.6       7.2       6.9       5.9       0.0       0.0
 1 O  dz2             0.3       0.1       0.0       0.0       0.0       0.0
 1 O  dxz             0.0       0.0       0.0       0.0       0.3       1.5
 1 O  dyz             0.0       0.0       0.0       0.0       0.3       0.1
 1 O  dx2y2           0.1       0.2       0.2       0.6       0.0       0.0
 1 O  dxy             0.0       0.1       0.0       0.5       0.0       0.0
 2 C  s               3.4       0.0       0.1       0.3       0.0       0.0
 2 C  pz              0.0       0.0       0.0       0.0       7.2       1.4
 2 C  px              2.6       2.0       0.0       5.2       0.0       0.0
 2 C  py              0.6       4.9       5.8       1.3       0.0       0.0
 2 C  dxy             0.1       0.0       0.4       0.0       0.0       0.0
 3 C  s               0.0       0.4       1.5       1.0       0.0       0.0
 3 C  pz              0.0       0.0       0.0       0.0       1.4       0.4
 3 C  px              0.0       7.1       0.0       0.8       0.0       0.0
 3 C  py             12.3       0.1       2.2       8.0       0.0       0.0
 3 C  dxy             0.2       0.0       0.1       0.0       0.0       0.0
 4 C  s               6.3       0.4       2.0       0.1       0.0       0.0
 4 C  pz              0.0       0.0       0.0       0.0       0.3       0.0
 4 C  px              5.3       1.2       1.6       7.6       0.0       0.0
 4 C  py              0.2       3.1       1.5       3.5       0.0       0.0
 5 C  s               6.3       0.4       2.0       0.1       0.0       0.0
 5 C  pz              0.0       0.0       0.0       0.0       0.3       0.0
 5 C  px              5.3       1.2       1.6       7.6       0.0       0.0
 5 C  py              0.2       3.1       1.5       3.5       0.0       0.0
 6 C  s               0.0       0.4       1.5       1.0       0.0       0.0
 6 C  pz              0.0       0.0       0.0       0.0       1.4       0.4
 6 C  px              0.0       7.1       0.0       0.8       0.0       0.0
 6 C  py             12.3       0.1       2.2       8.0       0.0       0.0
 6 C  dxy             0.2       0.0       0.1       0.0       0.0       0.0
 7 C  s               3.4       0.0       0.1       0.3       0.0       0.0
 7 C  pz              0.0       0.0       0.0       0.0       7.2       1.4
 7 C  px              2.6       2.0       0.0       5.2       0.0       0.0
 7 C  py              0.6       4.9       5.8       1.3       0.0       0.0
 7 C  dxy             0.1       0.0       0.4       0.0       0.0       0.0
 8 O  s               2.3       1.0       0.1       0.6       0.0       0.0
 8 O  pz              0.0       0.0       0.0       0.0      15.1      12.2
 8 O  px              0.3       3.9       8.1       4.6       0.0       0.0
 8 O  py              4.6       7.2       6.9       5.9       0.0       0.0
 8 O  dz2             0.3       0.1       0.0       0.0       0.0       0.0
 8 O  dxz             0.0       0.0       0.0       0.0       0.3       1.5
 8 O  dyz             0.0       0.0       0.0       0.0       0.3       0.1
 8 O  dx2y2           0.1       0.2       0.2       0.6       0.0       0.0
 8 O  dxy             0.0       0.1       0.0       0.5       0.0       0.0
 9 C  s               1.1       0.8       0.9       0.1       0.0       0.0
 9 C  pz              0.0       0.0       0.0       0.0      16.7      21.9
 9 C  px              2.7       6.0       8.6       0.7       0.0       0.0
 9 C  py              0.9       2.3       1.1       4.8       0.0       0.0
 9 C  dz2             0.1       0.1       0.1       0.0       0.0       0.0
 9 C  dyz             0.0       0.0       0.0       0.0       0.1       0.1
 9 C  dx2y2           0.1       0.1       0.1       0.0       0.0       0.0
10 H  s               1.1       1.9       2.1       0.0       4.1       5.8
10 H  pz              0.1       0.1       0.1       0.0       0.0       0.0
11 H  s               0.1       0.0       0.1       2.3       0.0       0.0
11 H  pz              0.0       0.0       0.0       0.0       0.1       0.1
12 H  s               1.1       1.9       2.1       0.0       4.1       5.8
12 H  pz              0.1       0.1       0.1       0.0       0.0       0.0
13 H  s               0.0       2.9       0.5       1.2       0.0       0.0
13 H  px              0.0       0.1       0.0       0.1       0.0       0.0
14 H  s               3.8       1.7       3.1       0.1       0.0       0.0
14 H  py              0.2       0.1       0.1       0.0       0.0       0.0
15 H  s               3.8       1.7       3.1       0.1       0.0       0.0
15 H  py              0.2       0.1       0.1       0.0       0.0       0.0
16 H  s               0.0       2.9       0.5       1.2       0.0       0.0
16 H  px              0.0       0.1       0.0       0.1       0.0       0.0
17 H  s               0.1       0.0       0.1       2.3       0.0       0.0
17 H  pz              0.0       0.0       0.0       0.0       0.1       0.1
18 H  s               1.1       1.9       2.1       0.0       4.1       5.8
18 H  pz              0.1       0.1       0.1       0.0       0.0       0.0
19 H  s               1.1       1.9       2.1       0.0       4.1       5.8
19 H  pz              0.1       0.1       0.1       0.0       0.0       0.0

                     24        25        26        27        28        29   
                  -0.42487  -0.41762  -0.39896  -0.37734  -0.35703  -0.34629
                   2.00000   2.00000   2.00000   2.00000   2.00000   2.00000
                  --------  --------  --------  --------  --------  --------
 0 C  s               0.0       0.1       0.2       0.1       0.0       0.0
 0 C  pz              0.0       0.0       0.0       0.0       8.8       0.0
 0 C  px              1.8       0.9       1.9       1.4       0.0       0.6
 0 C  py              1.9      13.0       5.7      12.9       0.0       3.5
 0 C  dxz             0.0       0.0       0.0       0.0       0.2       0.0
 0 C  dx2y2           0.0       0.1       0.1       0.2       0.0       0.0
 1 O  s               0.0       0.1       0.8       0.1       0.0       0.6
 1 O  pz              0.0       0.0       0.0       0.0       1.9       0.0
 1 O  px              1.5       2.5       7.5       4.0       0.0       1.0
 1 O  py              2.3       0.8       2.3       0.2       0.0       0.6
 1 O  dz2             0.1       0.0       0.0       0.0       0.0       0.1
 1 O  dxz             0.0       0.0       0.0       0.0       1.5       0.0
 1 O  dyz             0.0       0.0       0.0       0.0       0.6       0.0
 1 O  dx2y2           0.2       0.3       0.1       0.4       0.0       0.1
 1 O  dxy             0.4       1.6       0.3       0.1       0.0       0.2
 2 C  s               1.1       1.6       0.4       0.0       0.0       0.3
 2 C  pz              0.0       0.0       0.0       0.0      14.9       0.0
 2 C  px              1.8       0.1       0.3       8.0       0.0       0.8
 2 C  py              1.5       0.8       1.6       0.1       0.0       0.1
 2 C  dx2y2           0.3       0.3       0.0       0.3       0.0       0.2
 3 C  s               0.1       0.1       0.8       0.2       0.0       0.7
 3 C  pz              0.0       0.0       0.0       0.0       8.3       0.0
 3 C  px              2.6      12.2      11.1       0.3       0.0       3.7
 3 C  py              2.1       0.3       0.5       4.5       0.0       5.9
 3 C  dx2y2           0.0       0.2       0.3       0.0       0.0       0.0
 3 C  dxy             0.4       0.0       0.0       0.0       0.0       0.1
 4 C  s               0.4       0.3       1.2       0.0       0.0       0.1
 4 C  pz              0.0       0.0       0.0       0.0       6.2       0.0
 4 C  px              2.9       0.0       0.2       6.8       0.0       0.6
 4 C  py             17.7       0.5       0.6       0.2       0.0      15.4
 4 C  dx2y2           0.0       0.1       0.2       0.1       0.0       0.0
 4 C  dxy             0.0       0.0       0.1       0.0       0.0       1.0
 5 C  s               0.4       0.3       1.2       0.0       0.0       0.1
 5 C  pz              0.0       0.0       0.0       0.0       6.2       0.0
 5 C  px              2.9       0.0       0.2       6.8       0.0       0.6
 5 C  py             17.7       0.5       0.6       0.2       0.0      15.4
 5 C  dx2y2           0.0       0.1       0.2       0.1       0.0       0.0
 5 C  dxy             0.0       0.0       0.1       0.0       0.0       1.0
 6 C  s               0.1       0.1       0.8       0.2       0.0       0.7
 6 C  pz              0.0       0.0       0.0       0.0       8.3       0.0
 6 C  px              2.6      12.2      11.1       0.3       0.0       3.7
 6 C  py              2.1       0.3       0.4       4.5       0.0       5.9
 6 C  dx2y2           0.0       0.2       0.3       0.0       0.0       0.0
 6 C  dxy             0.4       0.0       0.0       0.0       0.0       0.1
 7 C  s               1.1       1.6       0.4       0.0       0.0       0.3
 7 C  pz              0.0       0.0       0.0       0.0      14.9       0.0
 7 C  px              1.8       0.1       0.3       8.0       0.0       0.8
 7 C  py              1.5       0.8       1.6       0.1       0.0       0.1
 7 C  dx2y2           0.3       0.3       0.0       0.3       0.0       0.2
 8 O  s               0.0       0.1       0.8       0.1       0.0       0.6
 8 O  pz              0.0       0.0       0.0       0.0       1.9       0.0
 8 O  px              1.5       2.5       7.5       4.0       0.0       1.0
 8 O  py              2.3       0.8       2.3       0.2       0.0       0.6
 8 O  dz2             0.1       0.0       0.0       0.0       0.0       0.1
 8 O  dxz             0.0       0.0       0.0       0.0       1.5       0.0
 8 O  dyz             0.0       0.0       0.0       0.0       0.6       0.0
 8 O  dx2y2           0.2       0.2       0.1       0.4       0.0       0.1
 8 O  dxy             0.4       1.6       0.3       0.1       0.0       0.2
 9 C  s               0.0       0.1       0.2       0.1       0.0       0.0
 9 C  pz              0.0       0.0       0.0       0.0       8.8       0.0
 9 C  px              1.8       0.9       1.9       1.4       0.0       0.6
 9 C  py              1.9      13.0       5.7      12.9       0.0       3.5
 9 C  dxz             0.0       0.0       0.0       0.0       0.2       0.0
 9 C  dx2y2           0.0       0.1       0.1       0.2       0.0       0.0
10 H  s               0.7       0.4       0.1       0.6       3.6       0.8
11 H  s               0.3       6.5       3.5       7.6       0.0       1.9
11 H  py              0.0       0.2       0.1       0.1       0.0       0.0
12 H  s               0.7       0.4       0.1       0.6       3.6       0.8
13 H  s               0.9       6.3       8.2       0.2       0.0       0.6
13 H  px              0.0       0.1       0.2       0.0       0.0       0.0
14 H  s               7.8       0.0       1.8       0.5       0.0       9.7
14 H  py              0.1       0.0       0.0       0.0       0.0       0.1
15 H  s               7.8       0.0       1.8       0.5       0.0       9.7
15 H  py              0.1       0.0       0.0       0.0       0.0       0.1
16 H  s               0.9       6.3       8.2       0.2       0.0       0.6
16 H  px              0.0       0.1       0.2       0.0       0.0       0.0
17 H  s               0.3       6.5       3.5       7.6       0.0       1.9
17 H  py              0.0       0.2       0.1       0.1       0.0       0.0
18 H  s               0.7       0.4       0.1       0.6       3.6       0.8
19 H  s               0.7       0.4       0.1       0.6       3.6       0.8

                     30        31        32        33        34        35   
                  -0.33269  -0.30007  -0.29096  -0.29056  -0.28895  -0.21956
                   2.00000   2.00000   2.00000   2.00000   2.00000   2.00000
                  --------  --------  --------  --------  --------  --------
 0 C  s               0.1       0.2       0.0       0.0       0.2       0.0
 0 C  pz              0.0       0.0       5.5       1.9       0.0       0.1
 0 C  px              0.0       2.8       0.0       0.0       1.3       0.0
 0 C  py              3.8       1.6       0.0       0.0       3.1       0.0
 0 C  dxz             0.0       0.0       0.6       0.3       0.0       0.2
 0 C  dxy             0.2       0.2       0.0       0.0       0.4       0.0
 1 O  s               0.6       2.0       0.0       0.0       2.2       0.0
 1 O  pz              0.0       0.0      22.7      12.8       0.0       8.6
 1 O  px              1.2       6.9       0.0       0.0       5.5       0.0
 1 O  py              9.8       7.4       0.0       0.0      19.0       0.0
 1 O  dz2             0.0       0.1       0.0       0.0       0.1       0.0
 1 O  dxz             0.0       0.0       0.5       0.7       0.0       0.0
 1 O  dyz             0.0       0.0       0.3       0.0       0.0       0.4
 1 O  dx2y2           0.1       0.0       0.0       0.0       0.3       0.0
 1 O  dxy             0.3       1.4       0.0       0.0       0.2       0.0
 2 C  s               0.2       0.2       0.0       0.0       0.0       0.0
 2 C  pz              0.0       0.0       7.2       1.3       0.0       2.1
 2 C  px              3.3       3.4       0.0       0.0       0.2       0.0
 2 C  py              0.3       3.5       0.0       0.0       2.7       0.0
 2 C  dxz             0.0       0.0       0.3       0.0       0.0       0.1
 2 C  dyz             0.0       0.0       0.1       0.3       0.0       0.5
 2 C  dx2y2           0.1       0.7       0.0       0.0       0.1       0.0
 2 C  dxy             0.1       0.0       0.0       0.0       0.5       0.0
 3 C  s               0.1       0.2       0.0       0.0       0.0       0.0
 3 C  pz              0.0       0.0       4.4       7.0       0.0      28.4
 3 C  px              5.1       4.7       0.0       0.0       0.2       0.0
 3 C  py              1.0       1.4       0.0       0.0       3.7       0.0
 3 C  dyz             0.0       0.0       0.0       0.2       0.0       0.0
 3 C  dx2y2           0.7       0.2       0.0       0.0       0.0       0.0
 4 C  s               0.0       0.1       0.0       0.0       0.0       0.0
 4 C  pz              0.0       0.0       0.6      21.9       0.0       7.8
 4 C  px             11.6       3.6       0.0       0.0       0.1       0.0
 4 C  py              0.3       0.7       0.0       0.0       2.6       0.0
 4 C  dxz             0.0       0.0       0.0       0.1       0.0       0.3
 4 C  dyz             0.0       0.0       0.0       0.0       0.0       0.2
 4 C  dx2y2           0.3       0.3       0.0       0.0       0.0       0.0
 4 C  dxy             0.0       0.0       0.0       0.0       0.2       0.0
[...]
 4 C  px              0.1       0.9       0.0       0.0       0.0       0.0
 4 C  py              0.4       1.1       0.0       0.3       0.0       0.3
 4 C  dz2             0.1       0.4       0.0       0.0       0.0       0.0
 4 C  dx2y2           0.0       3.2       0.0       0.0       0.0       0.3
 4 C  dxy             1.5       7.8       0.1       0.7       0.0       1.2
 5 C  s               0.1       0.4       0.0       0.0       0.0       0.1
 5 C  px              0.1       0.9       0.0       0.0       0.0       0.0
 5 C  py              0.4       1.1       0.0       0.3       0.0       0.3
 5 C  dz2             0.1       0.4       0.0       0.0       0.0       0.0
 5 C  dx2y2           0.0       3.2       0.0       0.0       0.0       0.3
 5 C  dxy             1.5       7.8       0.1       0.7       0.0       1.2
 6 C  s               0.2       0.3       0.1       0.1       0.0       0.1
 6 C  px              0.0       1.0       0.2       0.1       0.2       0.5
 6 C  py              0.5       0.1       0.1       0.2       0.0       0.0
 6 C  dx2y2           0.2       6.3       0.4       0.4       0.4       2.0
 6 C  dxy             0.8       0.3       0.0       0.1       0.0       0.0
 7 C  s               0.5       0.6       1.0       0.1       0.8       0.8
 7 C  px              0.1       0.9       0.3       0.1       0.2       1.0
 7 C  py              2.1       0.2       0.9       0.1       1.8       3.1
 7 C  dz2             0.4       0.2       0.7       0.2       0.3       0.7
 7 C  dx2y2           0.4       0.4       1.0       0.5       0.7       3.1
 7 C  dxy             2.9       1.5       1.1       0.0       1.7       3.1
 8 O  s              16.7       5.6      16.5       9.6       0.1       5.8
 8 O  px              3.9       2.0       1.0       8.3      13.8       7.0
 8 O  py              6.3       0.4       3.9       0.2       5.0       5.4
 8 O  dz2             1.4       1.0       9.4       6.0       0.0       1.3
 8 O  dx2y2           4.3       0.4       0.6       6.9      12.6       5.5
 8 O  dxy             2.3       0.8       5.0       1.2       1.7       3.6
 9 C  s               1.3       0.2       0.3       1.0       1.2       0.9
 9 C  px              0.4       0.0       1.8       4.2       3.2       0.9
 9 C  dz2             0.2       0.0       1.3       1.9       0.9       0.2
 9 C  dx2y2           0.1       0.0       2.2       5.2       3.7       0.8
 9 C  dxy             0.2       0.0       0.0       0.0       0.0       0.0
10 H  s               0.1       0.0       0.1       0.1       0.0       0.0
10 H  pz              0.1       0.0       0.2       0.2       0.1       0.0
11 H  s               0.0       0.0       0.0       0.1       0.2       0.0
11 H  px              0.1       0.0       0.2       0.2       0.1       0.0
11 H  py              0.0       0.0       0.1       0.3       0.3       0.0
12 H  s               0.1       0.0       0.1       0.1       0.0       0.0
12 H  pz              0.1       0.0       0.2       0.2       0.1       0.0
13 H  s               0.1       1.4       0.2       0.2       0.2       0.6
13 H  px              0.4       2.8       0.5       0.3       0.3       0.9
14 H  s               0.4       3.1       0.0       0.2       0.0       0.3
14 H  px              0.1       1.4       0.1       0.1       0.0       0.1
14 H  py              0.8       4.9       0.0       0.3       0.0       0.3
15 H  s               0.4       3.1       0.0       0.2       0.0       0.3
15 H  px              0.1       1.4       0.1       0.1       0.0       0.1
15 H  py              0.8       4.9       0.0       0.3       0.0       0.3
16 H  s               0.1       1.4       0.2       0.2       0.2       0.6
16 H  px              0.4       2.8       0.5       0.3       0.3       0.9
17 H  s               0.0       0.0       0.0       0.1       0.2       0.0
17 H  px              0.1       0.0       0.2       0.2       0.1       0.0
17 H  py              0.0       0.0       0.1       0.3       0.3       0.0
18 H  s               0.1       0.0       0.1       0.1       0.0       0.0
18 H  pz              0.1       0.0       0.2       0.2       0.1       0.0
19 H  s               0.1       0.0       0.1       0.1       0.0       0.0
19 H  pz              0.1       0.0       0.2       0.2       0.1       0.0

                    240       241       242       243       244       245   
                  21.46083  21.97896  21.99633  22.01251  22.01512  22.20337
                   0.00000   0.00000   0.00000   0.00000   0.00000   0.00000
                  --------  --------  --------  --------  --------  --------
 0 C  s               0.1      35.9      42.0       6.3      13.6       0.1
 2 C  s              11.5       6.7       0.0       8.1      16.9      14.6
 2 C  py              0.0       0.0       0.0       0.1       0.0       0.0
 3 C  s              18.4       0.1       5.3      29.2       1.9      29.5
 4 C  s              19.8       7.1       2.4       6.0      17.3       5.5
 5 C  s              19.8       7.1       2.5       5.8      17.4       5.5
 6 C  s              18.4       0.1       5.3      29.3       1.8      29.5
 7 C  s              11.5       6.7       0.0       8.2      16.7      14.6
 7 C  py              0.0       0.0       0.0       0.1       0.0       0.0
 9 C  s               0.1      35.7      42.1       6.2      13.8       0.1

                    246       247       248       249   
                  22.24591  22.39350  43.68370  44.06353
                   0.00000   0.00000   0.00000   0.00000
                  --------  --------  --------  --------
 0 C  s               1.0       0.4       0.0       0.0
 1 O  s               0.0       0.0      50.0      49.9
 2 C  s              12.5      29.0       0.0       0.0
 3 C  s               1.5      13.7       0.0       0.0
 4 C  s              34.8       6.7       0.0       0.0
 5 C  s              34.8       6.7       0.0       0.0
 6 C  s               1.5      13.7       0.0       0.0
 7 C  s              12.5      29.0       0.0       0.0
 8 O  s               0.0       0.0      50.0      49.9
 9 C  s               1.0       0.4       0.0       0.0


                      *****************************
                      * MAYER POPULATION ANALYSIS *
                      *****************************

  NA   - Mulliken gross atomic population
  ZA   - Total nuclear charge
  QA   - Mulliken gross atomic charge
  VA   - Mayer's total valence
  BVA  - Mayer's bonded valence
  FA   - Mayer's free valence

  ATOM       NA         ZA         QA         VA         BVA        FA
  0 C      6.3151     6.0000    -0.3151     3.7724     3.7724     0.0000
  1 O      8.1857     8.0000    -0.1857     2.0092     2.0092     0.0000
  2 C      5.8065     6.0000     0.1935     3.8934     3.8934     0.0000
  3 C      6.2601     6.0000    -0.2601     3.7420     3.7420     0.0000
  4 C      6.1829     6.0000    -0.1829     3.8478     3.8478     0.0000
  5 C      6.1829     6.0000    -0.1829     3.8478     3.8478     0.0000
  6 C      6.2601     6.0000    -0.2601     3.7420     3.7420    -0.0000
  7 C      5.8065     6.0000     0.1935     3.8935     3.8935    -0.0000
  8 O      8.1856     8.0000    -0.1856     2.0093     2.0093    -0.0000
  9 C      6.3151     6.0000    -0.3151     3.7725     3.7725    -0.0000
 10 H      0.8485     1.0000     0.1515     0.9537     0.9537     0.0000
 11 H      0.8455     1.0000     0.1545     0.9574     0.9574     0.0000
 12 H      0.8484     1.0000     0.1516     0.9536     0.9536     0.0000
 13 H      0.8519     1.0000     0.1481     0.9691     0.9691     0.0000
 14 H      0.8554     1.0000     0.1446     0.9699     0.9699     0.0000
 15 H      0.8554     1.0000     0.1446     0.9699     0.9699     0.0000
 16 H      0.8519     1.0000     0.1481     0.9691     0.9691    -0.0000
 17 H      0.8455     1.0000     0.1545     0.9574     0.9574    -0.0000
 18 H      0.8486     1.0000     0.1514     0.9537     0.9537    -0.0000
 19 H      0.8484     1.0000     0.1516     0.9536     0.9536    -0.0000

  Mayer bond orders larger than 0.100000
B(  0-C ,  1-O ) :   0.8546 B(  0-C , 10-H ) :   0.9633 B(  0-C , 11-H ) :   0.9685 
B(  0-C , 12-H ) :   0.9632 B(  1-O ,  2-C ) :   1.0726 B(  2-C ,  3-C ) :   1.3332 
B(  2-C ,  7-C ) :   1.4714 B(  3-C ,  4-C ) :   1.3482 B(  3-C , 13-H ) :   0.9320 
B(  4-C ,  5-C ) :   1.4748 B(  4-C , 14-H ) :   0.9493 B(  5-C ,  6-C ) :   1.3482 
B(  5-C , 15-H ) :   0.9493 B(  6-C ,  7-C ) :   1.3332 B(  6-C , 16-H ) :   0.9320 
B(  7-C ,  8-O ) :   1.0726 B(  8-O ,  9-C ) :   0.8546 B(  9-C , 17-H ) :   0.9685 
B(  9-C , 18-H ) :   0.9633 B(  9-C , 19-H ) :   0.9633 

-------
TIMINGS
-------

Total SCF time: 0 days 0 hours 0 min 30 sec 

Total time                  ....      30.489 sec
Sum of individual times     ....      29.992 sec  ( 98.4%)

SCF preparation             ....       0.202 sec  (  0.7%)
Fock matrix formation       ....      28.681 sec  ( 94.1%)
  Startup                   ....       0.067 sec  (  0.2% of F)
  Split-RI-J                ....       6.772 sec  ( 23.6% of F)
  XC integration            ....      21.269 sec  ( 74.2% of F)
    XC Preparation          ....       0.000 sec  (  0.0% of XC)
    Basis function eval.    ....       3.825 sec  ( 18.0% of XC)
    Density eval.           ....       6.328 sec  ( 29.8% of XC)
    XC-Functional eval.     ....       2.500 sec  ( 11.8% of XC)
    XC-Potential eval.      ....       7.619 sec  ( 35.8% of XC)
Diagonalization             ....       0.000 sec  (  0.0%)
Density matrix formation    ....       0.258 sec  (  0.8%)
Total Energy calculation    ....       0.040 sec  (  0.1%)
Population analysis         ....       0.150 sec  (  0.5%)
Orbital Transformation      ....       0.067 sec  (  0.2%)
Orbital Orthonormalization  ....       0.000 sec  (  0.0%)
DIIS solution               ....       0.533 sec  (  1.7%)
  MO trafo                  ....       0.000 sec  (  0.0 % of DIIS)
  Orb grad                  ....       0.000 sec  (  0.0 % of DIIS)
  Energy W gradient         ....       0.000 sec  (  0.0 % of DIIS)
  DIIS error                ....       0.042 sec  (  7.8 % of DIIS)
  DIIS work                 ....       0.433 sec  ( 81.2 % of DIIS)
  Form Q                    ....       0.000 sec  (  0.0 % of DIIS)
  Form QpQm                 ....       0.000 sec  (  0.0 % of DIIS)
  Exp/Cayley                ....       0.000 sec  (  0.0 % of DIIS)
  Orb update                ....       0.000 sec  (  0.0 % of DIIS)
  Wake-sleep                ....       0.025 sec  (  4.6 % of DIIS)
SOSCF solution              ....       0.062 sec  (  0.2%)
  MO trafo                  ....       0.046 sec  ( 75.5 % of SOSCF)
  Orb grad                  ....       0.001 sec  (  1.1 % of SOSCF)
  Rot update                ....       0.000 sec  (  0.1 % of SOSCF)
  Step                      ....       0.014 sec  ( 23.2 % of SOSCF)
Finished LeanSCF after  30.6 sec

Maximum memory used throughout the entire LEANSCF-calculation: 27.7 MB


-------------------------------------------------------------------------------
                          DFT DISPERSION CORRECTION                            
                                                                               
                                DFTD4 V3.4.0                                   
-------------------------------------------------------------------------------
The R2SCAN3C composite method is recognized
Using three-body term ABC
Active option DFTDOPT                   ...         5   

-------------------------   ----------------
Dispersion correction           -0.006459582
-------------------------   ----------------

------------------   -----------------
gCP correction             0.011427853
------------------   -----------------

-------------------------   --------------------
FINAL SINGLE POINT ENERGY      -461.178726884851
-------------------------   --------------------


------------------------------------------------------------------------------
                              ORCA PROPERTY CALCULATIONS
------------------------------------------------------------------------------

GBWName                                 ... sp_gas.gbw
Number of atoms                         ...     20
Number of basis functions               ...    250
Max core memory                         ...   1024 MB

Electric properties:
Dipole moment                           ... YES
Quadrupole moment                       ...  NO
Static polarizability (Dipole/Dipole)   ...  NO
Static polarizability (Dipole/Quad.)    ...  NO
Static polarizability (Quad./Quad.)     ...  NO
Static polarizability (Velocity)        ...  NO

Atomic electric properties:
Dipole moment                           ...  NO
Quadrupole moment                       ...  NO
Static polarizability                   ...  NO

Choice of electric origin               ... Center of mass
Position of electric origin             ...     0.000000     0.000015     0.000000

General magnetic properties:
Magnetizability                         ...  NO

EPR properties:
g-Tensor (aka g-matrix)                 ...  NO
Zero-Field splitting spin-orbit         ...  NO
Zero-field splitting spin-spin          ...  NO
Hyperfine couplings                     ...  NO (   0 nuclei)
Quadrupole couplings                    ...  NO (   0 nuclei)
Contact density                         ...  NO (   0 nuclei)

NMR properties:
Chemical shifts                         ...  NO (   0 nuclei)
Spin-rotation constants                 ...  NO (   0 nuclei)
Spin-spin couplings                     ...  NO (   0 nuclei,    0 pairs)

Choice of magnetic origin               ... GIAO
Position of magnetic origin             ...     0.000000     0.000000     0.000000

Properties with geometric perturbations:
SCF Hessian                             ...  NO
IR spectrum                             ...  NO
VCD spectrum                            ...  NO
X-ray spectroscopy properties:
SCF XES/XAS/RIXS spectra                ...  NO


-------------
DIPOLE MOMENT
-------------

Method             : SCF
Type of density    : Electron Density
Multiplicity       :   1
Irrep              :   0
Energy             :  -461.1836951559156432 Eh
Relativity type    : 
Basis              : AO
                                X                 Y                 Z
Electronic contribution:      0.000155814       0.237482223      -0.003945992
Nuclear contribution   :     -0.000079907      -0.242771089       0.004900212
                        -----------------------------------------
Total Dipole Moment    :      0.000075908      -0.005288866       0.000954220
                        -----------------------------------------
Magnitude (a.u.)       :      0.005374793
Magnitude (Debye)      :      0.013661638



--------------------
Rotational spectrum 
--------------------
 
Rotational constants in cm-1:             0.055282             0.045151             0.025092 
Rotational constants in MHz :          1657.315380          1353.585934           752.225473 

Dipole components along the rotational axes: 
x,y,z [a.u.] :     0.000076    -0.005289     0.000954 
x,y,z [Debye]:     0.000193    -0.013443     0.002425 

 

Dipole moment calculation done in   0.0 sec 

Maximum memory used throughout the entire PROP-calculation: 16.7 MB

--------------------------------
SUGGESTED CITATIONS FOR THIS RUN
--------------------------------

Below you find a list of papers that are relevant to this ORCA run
We neither can nor want to force you to cite these papers, but we appreciate if you do
You receive ORCA, which is the product of decades of hard work by many enthusiastic individuals, for free
The only thing we kindly ask in return is that you cite our papers,
We deeply appreciate it, if you show your appreciation for ORCA by not just citing the generic ORCA reference.

Please note that relegating all ORCA citations to the supporting information does *not* help us.
SI sections are not indexed - citations you put there will not count into any citation statistics
But we need these citations in order to attract the funding resources that allow us to do what we are doing

Therefore, if you are a happy ORCA user, please consider citing a few of the papers listed below in the main body of your paper

In addition to the list printed below, the program has created the file sp_gas.bibtex that contains the list in bibtex format
You can import this file easily into all common literature databanks and citation aid programs


List of essential papers. We consider these as the minimum necessary citations

  1. Neese,F.
     Software update: the ORCA program system, version 5.0
     WIRES Comput. Molec. Sci., 2022 12(1)e1606
     doi.org/10.1002/wcms.1606
  2. Grimme,S.; Hansen,A.; Ehlert,S.; Mewes,J.
     r2SCAN-3c: A 'Swiss army knife' composite electronic-structure method
     J. Chem. Phys., 2021 154 064103
     doi.org/10.1063/5.0040021

List of papers to cite with high priority. The work reported in these papers was absolutely
necessary for this run to complete.
Our perspective: the developers of density functionals and basis sets usually get cited in chemistry papers
Good! But without the algorithms to do something with them, the functionals or basis sets would not do anything.
Hence, in our opinion, the algorithm design and method developments papers are equally worthy of getting cited

  1. Neese,F.
     An improvement of the resolution of the identity approximation for the formation of the Coulomb matrix
     J. Comp. Chem., 2003 24(14)1740-1747
     doi.org/10.1002/jcc.10318
  2. Neese,F.
     The SHARK Integral Generation and Digestion System
     J. Comp. Chem., 2022  1-16
     doi.org/10.1002/jcc.26942
  3. Lehtola,S.; Steigemann,C.; Oliveira,M.; Marques,M.
     Recent developments in Libxc - A comprehensive library of functionals for density functional theory
     Software X, 2018 7 
     doi.org/10.1016/j.softx.2017.11.002
  4. Caldeweyher,E.; Bannwarth,C.; Grimme,S.
     Extension of the D3 dispersion coefficient model
     J. Chem. Phys., 2017 147 034112-XXXX
     doi.org/10.1063/1.4993215
  5. Caldeweyher,E.; Ehlert,S.; Hansen,A.; Neugebauer,H.; Spicher,S.; Bannwarth,C.; Grimme,S.
     A generally applicable atomic-charge dependent London dispersion correction
     J. Chem. Phys., 2019 150 154122-XXXX
     doi.org/10.1063/1.5090222
  6. Caldeweyher,E.; Mewes,J.; Ehlert,S.; Grimme,S.
     Extension and evaluation of the D4 London-dispersion model for periodic systems
     Phys. Chem. Chem. Phys., 2020 22(16)8499-8512
     doi.org/10.1039/D0CP00502A

List of suggested additional citations. These are papers that are important in the 'surrounding' of 
of this run, or papers that preceded the highly important papers. If you like your results we are grateful for a citation.

  1. Neese,F.
     The ORCA program system
     WIRES Comput. Molec. Sci., 2012 2(1)73-78
     doi.org/10.1002/wcms.81
  2. Neese,F.
     Software update: the ORCA program system, version 4.0
     WIRES Comput. Molec. Sci., 2018 8(1)1-6
     doi.org/10.1002/wcms.1327
  3. Neese,F.; Wennmohs,F.; Becker,U.; Riplinger,C.
     The ORCA quantum chemistry program package
     J. Chem. Phys., 2020 152 Art. No. L224108
     doi.org/10.1063/5.0004608

List of optional additional citations

  1. Neese,F.
     Approximate second-order SCF convergence for spin unrestricted wavefunctions
     Chem. Phys. Lett., 2000 325(1-3)93-98
     doi.org/10.1016/s0009-2614(00)00662-x

Timings for individual modules:

Sum of individual times          ...       32.548 sec (=   0.542 min)
Startup calculation              ...        1.496 sec (=   0.025 min)   4.6 %
SCF iterations                   ...       30.932 sec (=   0.516 min)  95.0 %
Property calculations            ...        0.120 sec (=   0.002 min)   0.4 %
                             ****ORCA TERMINATED NORMALLY****
TOTAL RUN TIME: 0 days 0 hours 0 minutes 33 seconds 324 msec
