21
 energy: -312.209653231302 gnorm: 0.033472101843 xtb: 6.7.1 (edcfbbe)
C            1.60434512501093        0.36470472646161        1.34354438429536
C            1.19373840322898        0.43990115769493       -0.12326321105462
H            0.91891396900720        1.47848967735516       -0.36527403026186
C            0.02797886361240       -0.49932769252127       -0.46157055680453
C           -1.27281221026402       -0.24884940681027        0.30911238883698
C           -1.84438025061729        1.13923319270482        0.02758219651222
C           -2.29682378031778       -1.31891911558445       -0.07046962793123
O            2.34268811103811        0.08960275473971       -0.88612750599267
H            1.78621441049152       -0.66926810189657        1.62420116021973
H            2.52441190511863        0.92611765121039        1.48332592175730
H            0.83264707786897        0.78493060724782        1.97966108717724
H           -0.18368165368139       -0.41642182528453       -1.53175517057876
H            0.36455195666154       -1.52130869037413       -0.26891537191916
H           -1.07179479317494       -0.33566911214874        1.38099376881195
H           -2.80110353554124        1.25835964215761        0.53058246293512
H           -2.00018518298634        1.27579589446534       -1.04039620796103
H           -1.17657233152137        1.91918238935044        0.38308940796976
H           -2.53080080202146       -1.26113353615884       -1.13133008990132
H           -1.91143152524701       -2.31305158782497        0.14283512606329
H           -3.21723812062564       -1.18027302012301        0.49137311291774
H            2.11852375153877        0.10073396024464       -1.82601768690916
21
 energy: -312.210613580626 gnorm: 0.014013142224 xtb: 6.7.1 (edcfbbe)
C            1.60906350048072        0.36751466206250        1.33809900703334
C            1.19433193608828        0.44050673224163       -0.12358079471635
H            0.91263740981425        1.47721722484339       -0.36430167121174
C            0.03248527608121       -0.49855599424183       -0.45928951580262
C           -1.27477259820688       -0.25119067849268        0.30350937028690
C           -1.84187925291914        1.14348586109647        0.03339248524139
C           -2.30034813452967       -1.32369387633239       -0.06939655659872
O            2.35242211032244        0.08287382858295       -0.89336506159536
H            1.79105728624740       -0.67102084224720        1.62994786081307
H            2.52699059324335        0.93995779286194        1.49339322831979
H            0.83186416635286        0.78378531396075        1.98048842948700
H           -0.17639662433204       -0.41881249364271       -1.53512699388547
H            0.37255453255081       -1.52432129050669       -0.26831858139332
H           -1.07193435211916       -0.33963235067642        1.37805359448468
H           -2.80518821314053        1.26942597525679        0.53561026131333
H           -1.99942975602986        1.28434953254898       -1.04087785461003
H           -1.17526664645998        1.93424856197234        0.38615272498376
H           -2.53723904094320       -1.26656185615140       -1.13657408957823
H           -1.91808567979259       -2.32658300752941        0.14082147044203
H           -3.22899034119781       -1.18734614740056        0.49171274161741
H            2.11331326424584        0.09718270261187       -1.82916836207010
21
 energy: -312.210814166830 gnorm: 0.004736826625 xtb: 6.7.1 (edcfbbe)
C            1.61142969072717        0.37091157035515        1.33586325085893
C            1.19166326057932        0.43959451422628       -0.12052180887929
H            0.91203917325981        1.47483020850261       -0.36687077822820
C            0.03513546731640       -0.50124449897100       -0.45755625424904
C           -1.27346915235680       -0.25283744764946        0.30459552760670
C           -1.83960134285304        1.14347451929306        0.03628285696889
C           -2.30077402774857       -1.32226491948332       -0.07266177378378
O            2.35491313634195        0.07776713699908       -0.90016034150938
H            1.79883938118104       -0.66762647911983        1.63557210063267
H            2.52440001694777        0.95377378414191        1.49908813120013
H            0.83046498552915        0.78131774351323        1.98254195771248
H           -0.16988075355995       -0.42510906003247       -1.53694995830993
H            0.37571416532202       -1.52870801753675       -0.26594441689414
H           -1.07098149273022       -0.34455270412510        1.38072046669953
H           -2.80523598198387        1.27421881006257        0.53849951772714
H           -1.99853711032590        1.29175541212877       -1.04021442722889
H           -1.17270790918548        1.93715600378471        0.38957994731352
H           -2.54097928497471       -1.26765713696452       -1.14249592700780
H           -1.92192083893372       -2.32956433722103        0.13605914590508
H           -3.23303649531170       -1.18776439221077        0.48786901766549
H            2.09971486101148        0.09535897769269       -1.83211412655369
21
 energy: -312.210851276092 gnorm: 0.002365756123 xtb: 6.7.1 (edcfbbe)
C            1.61201735612037        0.37320115943792        1.33517818930198
C            1.19070696083158        0.43873595673524       -0.11922679531590
H            0.91342476581575        1.47308024317712       -0.36996181090794
C            0.03570635066778       -0.50276954450242       -0.45501773595612
C           -1.27484229650365       -0.25414757805069        0.30418987163986
C           -1.83763162038422        1.14361906368918        0.03823359727512
C           -2.30222861281355       -1.32206428611510       -0.07522113453647
O            2.35633789125939        0.07620801880946       -0.90316205985683
H            1.80580091372221       -0.66344598780213        1.63670897284457
H            2.52072855022999        0.96220813672960        1.49819718021242
H            0.82908372869057        0.77911241739409        1.98262762990615
H           -0.16768435628509       -0.42894175164509       -1.53476438769177
H            0.37577820696417       -1.52988424917969       -0.26122574690189
H           -1.07372909480421       -0.34794773865200        1.38031635305620
H           -2.80312239320884        1.27500019128354        0.54020967034853
H           -1.99587905530107        1.29450194510229       -1.03786532412490
H           -1.16983068162296        1.93558290639105        0.39342460071040
H           -2.54123705983307       -1.26596547970880       -1.14508164378510
H           -1.92490141712573       -2.33005168063420        0.13246170186023
H           -3.23496295839839       -1.18760646636084        0.48425605729459
H            2.09365485341942        0.09440447942779       -1.83309464243619
21
 energy: -312.210873454814 gnorm: 0.001451885873 xtb: 6.7.1 (edcfbbe)
C            1.61263288421165        0.37703818400189        1.33451405282173
C            1.18849938399118        0.43772153203481       -0.11822503927602
H            0.91327318920525        1.47088921394928       -0.37413288194374
C            0.03582344487479       -0.50611913071179       -0.45230646335895
C           -1.27586626508250       -0.25586567917755        0.30485013528843
C           -1.83498740624592        1.14333995224023        0.04128729755060
C           -2.30397811713153       -1.32077892150996       -0.07951396828702
O            2.35624858679805        0.07406728543419       -0.90506947670303
H            1.81662461356476       -0.65688560439462        1.63636334152722
H            2.51544112138688        0.97457417113967        1.49544069492461
H            0.82666775418319        0.77596848474152        1.98210344015173
H           -0.16650022999300       -0.43580656607637       -1.53197112164484
H            0.37583722807743       -1.53200722467534       -0.25428540559672
H           -1.07735881952956       -0.35262775757751        1.38090200246282
H           -2.80011795435601        1.27521776081307        0.54258460711593
H           -1.99133632282489        1.29721394695327       -1.03397536554871
H           -1.16544674802107        1.93159428115994        0.39983063731886
H           -2.54054449219668       -1.26149435132851       -1.14910984330418
H           -1.92866018603803       -2.32925224702329        0.12662729173650
H           -3.23686663892715       -1.18591897704121        0.47852484539244
H            2.08780544288579        0.09196151150431       -1.83325550418059
21
 energy: -312.210888476906 gnorm: 0.002131289122 xtb: 6.7.1 (edcfbbe)
C            1.61298275488675        0.38236145294201        1.33339509566029
C            1.18698017607009        0.43658616711077       -0.11902686545589
H            0.91093038265168        1.46815350015075       -0.37946586278745
C            0.03578224697671       -0.51021288150945       -0.44871564911725
C           -1.27691512786520       -0.25846570569099        0.30642851467694
C           -1.83139956555933        1.14291752407854        0.04570604065002
C           -2.30679840643074       -1.31925933336695       -0.08458027146298
O            2.35569718871913        0.07187143885521       -0.90634998818034
H            1.83000752977099       -0.64858857002420        1.63470594912156
H            2.50884554185496        0.99038819761387        1.49155247732667
H            0.82310590446692        0.77234838348952        1.98107176182879
H           -0.16641173367663       -0.44470374754333       -1.52825096329377
H            0.37656265771826       -1.53444626086426       -0.24541597176424
H           -1.08152798009614       -0.35918281849752        1.38244587986517
H           -2.79681247608230        1.27522666437389        0.54540023431454
H           -1.98458852606158        1.30046519790338       -1.02893054997091
H           -1.16020764199241        1.92708035705962        0.40891256093013
H           -2.53978214156638       -1.25471754369623       -1.15416328430361
H           -1.93423665795086       -2.32887591167192        0.11875284535217
H           -3.24029431197583       -1.18388257382183        0.47150074203966
H            2.08527119682451        0.08776650368567       -1.83378845020732
21
 energy: -312.210906056439 gnorm: 0.002099867850 xtb: 6.7.1 (edcfbbe)
C            1.61355835386709        0.38955573134327        1.33151849346880
C            1.18521347608171        0.43521063387688       -0.12088151579391
H            0.90634087408975        1.46474945971065       -0.38626854033302
C            0.03590585485884       -0.51597557817181       -0.44481082039737
C           -1.27759294092794       -0.26186193948291        0.30833262620488
C           -1.82668785669173        1.14255916223000        0.05199544275118
C           -2.31022436097832       -1.31735977545302       -0.09065093776529
O            2.35400814135203        0.06923409310711       -0.90690929717790
H            1.84589848903892       -0.63801215656263        1.63307986630730
H            2.50115419947802        1.01028664908296        1.48755363819144
H            0.81873686783898        0.76883087357482        1.97929849147048
H           -0.16649013755268       -0.45684501518441       -1.52460483620295
H            0.37821727047664       -1.53843563162183       -0.23545462439747
H           -1.08579456678002       -0.36780987628881        1.38450259410464
H           -2.79343418150253        1.27558634095216        0.54881457415544
H           -1.97532973788488        1.30532733520753       -1.02243573560434
H           -1.15424732146049        1.92267647648106        0.42139871005714
H           -2.53960012577963       -1.24601986178545       -1.16051127221916
H           -1.94177120450835       -2.32929894047963        0.10836125422734
H           -3.24478135979762       -1.18143198182557        0.46336144914647
H            2.08411192951533        0.08186429151938       -1.83450408817812
21
 energy: -312.210921634348 gnorm: 0.001291142053 xtb: 6.7.1 (edcfbbe)
C            1.61416787333272        0.40575620558632        1.32670260144358
C            1.18256427343124        0.43190525751281       -0.12586634113982
H            0.89587256791552        1.45667408829704       -0.40187716174653
C            0.03653073873262       -0.52826193477090       -0.43606334000868
C           -1.27885806877071       -0.26988052319832        0.31256417198913
C           -1.81587497256638        1.14133846195324        0.06626901633469
C           -2.31811459594470       -1.31301530102841       -0.10359468849694
O            2.35081112791438        0.06361201622017       -0.90852775914535
H            1.87845795911513       -0.61412659607228        1.63065162917716
H            2.48382202030493        1.05355141567295        1.47891056612397
H            0.80879545980464        0.76282277998952        1.97455752529112
H           -0.16582331714346       -0.48340729642691       -1.51679315619713
H            0.38221847863258       -1.54712074301902       -0.21401405525382
H           -1.09443917849437       -0.38778374251311        1.38902965366034
H           -2.78655836609323        1.27537380531239        0.55554295605527
H           -1.95327524876640        1.31727029397868       -1.00799177698036
H           -1.14167589403654        1.91290917478754        0.45101237541500
H           -2.54081545286512       -1.22663692541834       -1.17405159465878
H           -1.95882581856631       -2.33051943555200        0.08490559279068
H           -3.25486378257088       -1.17629941987681        0.44672725252113
H            2.08307726037779        0.06866930427331       -1.83690530109644
21
 energy: -312.210926001068 gnorm: 0.000759637693 xtb: 6.7.1 (edcfbbe)
C            1.61321731796564        0.40406919061856        1.32668632484363
C            1.18325937890895        0.43228875147499       -0.12597671755005
H            0.89673798081647        1.45758163457286       -0.40024122243778
C            0.03669121954976       -0.52675631539901       -0.43808499881907
C           -1.27815274562582       -0.26904517349763        0.31150040834866
C           -1.81703026920713        1.14127003973817        0.06509533879621
C           -2.31665533843731       -1.31361650939130       -0.10135250678442
O            2.35092451884441        0.06431568636278       -0.90761494336368
H            1.86900089276838       -0.61637424934897        1.63228880070321
H            2.48642162977803        1.04487126883088        1.48014088439391
H            0.81074927055288        0.76714862945908        1.97390527739082
H           -0.16540752852041       -0.47981859699675       -1.51879991578937
H            0.38217667232466       -1.54624518140174       -0.21854160843358
H           -1.09205960965561       -0.38538884999936        1.38775333322979
H           -2.78818811645197        1.27445741028138        0.55393334910088
H           -1.95446828070782        1.31658469211900       -1.00922851125429
H           -1.14441419630372        1.91437181372885        0.44930145784028
H           -2.54212711462726       -1.22910130659373       -1.17138221391972
H           -1.95599502304777       -2.33061865807850        0.08737675680459
H           -3.25252867845842       -1.17737039042365        0.45096517030955
H            2.08504082519360        0.07020695569724       -1.83653668472051
21
 energy: -312.210926001068 gnorm: 0.000759637693 xtb: 6.7.1 (edcfbbe)
C            1.61321731796564        0.40406919061856        1.32668632484363
C            1.18325937890895        0.43228875147499       -0.12597671755005
H            0.89673798081647        1.45758163457286       -0.40024122243778
C            0.03669121954976       -0.52675631539901       -0.43808499881907
C           -1.27815274562582       -0.26904517349763        0.31150040834866
C           -1.81703026920713        1.14127003973817        0.06509533879621
C           -2.31665533843731       -1.31361650939130       -0.10135250678442
O            2.35092451884441        0.06431568636278       -0.90761494336368
H            1.86900089276838       -0.61637424934897        1.63228880070321
H            2.48642162977803        1.04487126883088        1.48014088439391
H            0.81074927055288        0.76714862945908        1.97390527739082
H           -0.16540752852041       -0.47981859699675       -1.51879991578937
H            0.38217667232466       -1.54624518140174       -0.21854160843358
H           -1.09205960965561       -0.38538884999936        1.38775333322979
H           -2.78818811645197        1.27445741028138        0.55393334910088
H           -1.95446828070782        1.31658469211900       -1.00922851125429
H           -1.14441419630372        1.91437181372885        0.44930145784028
H           -2.54212711462726       -1.22910130659373       -1.17138221391972
H           -1.95599502304777       -2.33061865807850        0.08737675680459
H           -3.25252867845842       -1.17737039042365        0.45096517030955
H            2.08504082519360        0.07020695569724       -1.83653668472051
