
                                 *****************
                                 * O   R   C   A *
                                 *****************

                                            #,                                       
                                            ###                                      
                                            ####                                     
                                            #####                                    
                                            ######                                   
                                           ########,                                 
                                     ,,################,,,,,                         
                               ,,#################################,,                 
                          ,,##########################################,,             
                       ,#########################################, ''#####,          
                    ,#############################################,,   '####,        
                  ,##################################################,,,,####,       
                ,###########''''           ''''###############################       
              ,#####''   ,,,,##########,,,,          '''####'''          '####       
            ,##' ,,,,###########################,,,                        '##       
           ' ,,###''''                  '''############,,,                           
         ,,##''                                '''############,,,,        ,,,,,,###''
      ,#''                                            '''#######################'''  
     '                                                          ''''####''''         
             ,#######,   #######,   ,#######,      ##                                
            ,#'     '#,  ##    ##  ,#'     '#,    #''#        ,####,   ,####,        
            ##       ##  ##   ,#'  ##            #'  '#       #'       #'  '#        
            ##       ##  #######   ##           ,######,      #####,   #    #        
            '#,     ,#'  ##    ##  '#,     ,#' ,#      #,     #,   #   #,  ,#        
             '#######'   ##     ##  '#######'  #'      '#     '####' # '####'        



                #########################################################
                #                        -***-                          #
                #          Department of theory and spectroscopy        #
                #                                                       #
                #                      Frank Neese                      #
                #                                                       #
                #     Directorship, Architecture, Infrastructure        #
                #                    SHARK, DRIVERS                     #
                #        Core code/Algorithms in most modules           #
                #                                                       #
                #        Max Planck Institute fuer Kohlenforschung      #
                #                Kaiser Wilhelm Platz 1                 #
                #                 D-45470 Muelheim/Ruhr                 #
                #                      Germany                          #
                #                                                       #
                #                  All rights reserved                  #
                #                        -***-                          #
                #########################################################


                         Program Version 6.0.0  -   RELEASE  -


 With contributions from (in alphabetic order):
   Daniel Aravena         : Magnetic Suceptibility
   Michael Atanasov       : Ab Initio Ligand Field Theory (pilot matlab implementation)
   Alexander A. Auer      : GIAO ZORA, VPT2 properties, NMR spectrum
   Ute Becker             : All parallelization in ORCA, NUMFREQ, NUMCALC
   Giovanni Bistoni       : ED, misc. LED, open-shell LED, HFLD
   Martin Brehm           : Molecular dynamics
   Dmytro Bykov           : pre 5.0 version of the SCF Hessian
   Marcos Casanova-Páez   : Triplet and SCS-CIS(D). UHF-(DLPNO)-IP/EA/STEOM-CCSD. UHF-CVS-IP/STEOM-CCSD
   Vijay G. Chilkuri      : MRCI spin determinant printing, contributions to CSF-ICE
   Pauline Colinet        : FMM embedding
   Dipayan Datta          : RHF DLPNO-CCSD density
   Achintya Kumar Dutta   : EOM-CC, STEOM-CC
   Nicolas Foglia         : Exact transition moments, OPA infrastructure, MCD improvements
   Dmitry Ganyushin       : Spin-Orbit,Spin-Spin,Magnetic field MRCI
   Miquel Garcia          : C-PCM and meta-GGA Hessian, CCSD/C-PCM, Gaussian charge scheme
   Tiago L. C. Gouveia    : GS-ROHF, GS-ROCIS
   Yang Guo               : DLPNO-NEVPT2, F12-NEVPT2, CIM, IAO-localization
   Andreas Hansen         : Spin unrestricted coupled pair/coupled cluster methods
   Ingolf Harden          : AUTO-CI MPn and infrastructure 
   Benjamin Helmich-Paris : MC-RPA, TRAH-(SCF,CASSCF), AVAS, COSX integrals, SCF dyn. polar.
   Lee Huntington         : MR-EOM, pCC
   Robert Izsak           : Overlap fitted RIJCOSX, COSX-SCS-MP3, EOM
   Riya Kayal             : Wick's Theorem for AUTO-CI, AUTO-CI UHF-CCSDT
   Emily Kempfer          : AUTO-CI, RHF CISDT and CCSDT
   Christian Kollmar      : KDIIS, OOCD, Brueckner-CCSD(T), CCSD density, CASPT2, CASPT2-K, improved NEVPT2
   Axel Koslowski         : Symmetry handling
   Simone Kossmann        : Meta GGA functionals, TD-DFT gradient, OOMP2, (MP2 Hessian; deprecated post 5.0)
   Lucas Lang             : DCDCAS
   Marvin Lechner         : AUTO-CI (C++ implementation), FIC-MRCC
   Spencer Leger          : CASSCF response
   Dagmar Lenk            : GEPOL surface, SMD, ORCA-2-JSON
   Dimitrios Liakos       : Extrapolation schemes; Compound Job, initial MDCI parallelization
   Dimitrios Manganas     : Further ROCIS development; embedding schemes. LFT, Crystal Embedding
   Dimitrios Pantazis     : SARC Basis sets
   Anastasios Papadopoulos: AUTO-CI, single reference methods and gradients
   Taras Petrenko         : pre 6.0 DFT Hessian and TD-DFT gradient, (ASA, deprecated), ECA, 1-Electron XAS/XES, NRVS
   Peter Pinski           : DLPNO-MP2, DLPNO-MP2 Gradient
   Christoph Reimann      : Effective Core Potentials
   Marius Retegan         : Local ZFS, SOC
   Christoph Riplinger    : Optimizer, TS searches, QM/MM, DLPNO-CCSD(T), (RO)-DLPNO pert. Triples
   Michael Roemelt        : Original ROCIS implementation
   Masaaki Saitow         : Open-shell DLPNO-CCSD energy and density
   Barbara Sandhoefer     : DKH picture change effects
   Kantharuban Sivalingam : CASSCF convergence/infrastructure, NEVPT2 and variants, FIC-MRCI
   Bernardo de Souza      : ESD, SOC TD-DFT
   Georgi Stoychev        : AutoAux, RI-MP2 NMR, DLPNO-MP2 response, X2C
   Van Anh Tran           : RI-MP2 g-tensors
   Willem Van den Heuvel  : Paramagnetic NMR
   Zikuan Wang            : NOTCH, Electric field optimization 
   Frank Wennmohs         : Technical directorship and infrastructure
   Hang Xu                : AUTO-CI-Response properties 


 We gratefully acknowledge several colleagues who have allowed us to
 interface, adapt or use parts of their codes:
   Stefan Grimme, W. Hujo, H. Kruse, P. Pracht,  : VdW corrections, initial TS optimization,
                  C. Bannwarth, S. Ehlert,         DFT functionals, gCP, sTDA/sTD-DF
                  L. Wittmann, M. Mueller
   Ed Valeev, F. Pavosevic, A. Kumar             : LibInt (2-el integral package), F12 methods
   Garnet Chan, S. Sharma, J. Yang, R. Olivares  : DMRG
   Ulf Ekstrom                                   : XCFun DFT Library
   Mihaly Kallay                                 : mrcc  (arbitrary order and MRCC methods)
   Frank Weinhold                                : gennbo (NPA and NBO analysis)
   Simon Mueller                                 : openCOSMO-RS
   Christopher J. Cramer and Donald G. Truhlar   : smd solvation model
   Lars Goerigk                                  : TD-DFT with DH, B97 family of functionals
   V. Asgeirsson, H. Jonsson                     : NEB implementation
   FAccTs GmbH                                   : IRC, NEB, NEB-TS, DLPNO-Multilevel, CI-OPT
                                                   MM, QMMM, 2- and 3-layer-ONIOM, Crystal-QMMM,
                                                   LR-CPCM, SF, NACMEs, symmetry and pop. for TD-DFT,
                                                   nearIR, NL-DFT gradient (VV10), updates on ESD,
                                                   ML-optimized integration grids, MBIS, APM,
                                                   GOAT, DOCKER, SOLVATOR, interface openCOSMO-RS
   S Lehtola, MJT Oliveira, MAL Marques          : LibXC Library
   Liviu Ungur et al                             : ANISO software


 Your calculation uses the libint2 library for the computation of 2-el integrals
 For citations please refer to: http://libint.valeyev.net

 Your ORCA version has been built with support for libXC version: 6.2.2
 For citations please refer to: https://libxc.gitlab.io

 This ORCA versions uses:
   CBLAS   interface :  Fast vector & matrix operations
   LAPACKE interface :  Fast linear algebra routines
   SCALAPACK package :  Parallel linear algebra routines
   Shared memory     :  Shared parallel matrices
   BLAS/LAPACK       :  OpenBLAS 0.3.27  USE64BITINT DYNAMIC_ARCH NO_AFFINITY SkylakeX SINGLE_THREADED
        Core in use  :  SkylakeX
   Copyright (c) 2011-2014, The OpenBLAS Project


Your calculation utilizes the geometrical counterpoise correction gCP
Please cite in your paper:
H.Kruse, S. Grimme J.Chem.Phys., 136, (2012), 154101 
   

Your calculation utilizes the atom-pairwise dispersion correction
based on EEQ partial charges (D4)


================================================================================

----- Orbital basis set information -----
Your calculation utilizes the basis: def2-SV(P)
   F. Weigend and R. Ahlrichs, Phys. Chem. Chem. Phys. 7, 3297 (2005).

----- AuxJ basis set information -----
Your calculation utilizes the auxiliary basis: def2/J
   F. Weigend, Phys. Chem. Chem. Phys. 8, 1057 (2006).

================================================================================
                                        WARNINGS
                       Please study these warnings very carefully!
================================================================================


================================================================================
                                       INPUT FILE
================================================================================
NAME = sp.inp
|  1> ! pbe def2-sv(p) def2/J RI DEFGRID1 loosescf d4 GCP(DFT/SV(P)) printgap
|  2> %output
|  3>     printlevel normal
|  4> end
|  5> * xyz 0 1
|  6> C -1.3595523894 0.3218892473 -0.1195782701
|  7> C 0.1088496472 0.5911879887 0.2428783872
|  8> C 1.0705933864 -0.3194844716 -0.5336670156
|  9> O 1.4355840278 -1.4024910949 0.2893004484
| 10> O 0.4522532898 1.9277976867 -0.0516101911
| 11> O -1.6658006506 -1.0223372289 0.1616251516
| 12> H -1.4959264695 0.5478135096 -1.1863193778
| 13> H -1.9998625285 0.9948608194 0.4681752951
| 14> H 0.2586465306 0.3682598802 1.3088712599
| 15> H 1.9499336245 0.2841706511 -0.7966462426
| 16> H 0.5909067389 -0.6700893943 -1.4540985078
| 17> H 1.9478956478 -2.0375115955 -0.2296332676
| 18> H -0.0443487882 2.527411964 0.5226756082
| 19> H -2.5855089406 -1.198688794 -0.0815230819
| 20> *
| 21> 
| 22>                          ****END OF INPUT****
================================================================================

                       ****************************
                       * Single Point Calculation *
                       ****************************

---------------------------------
CARTESIAN COORDINATES (ANGSTROEM)
---------------------------------
  C     -1.359552    0.321889   -0.119578
  C      0.108850    0.591188    0.242878
  C      1.070593   -0.319484   -0.533667
  O      1.435584   -1.402491    0.289300
  O      0.452253    1.927798   -0.051610
  O     -1.665801   -1.022337    0.161625
  H     -1.495926    0.547814   -1.186319
  H     -1.999863    0.994861    0.468175
  H      0.258647    0.368260    1.308871
  H      1.949934    0.284171   -0.796646
  H      0.590907   -0.670089   -1.454099
  H      1.947896   -2.037512   -0.229633
  H     -0.044349    2.527412    0.522676
  H     -2.585509   -1.198689   -0.081523

----------------------------
CARTESIAN COORDINATES (A.U.)
----------------------------
  NO LB      ZA    FRAG     MASS         X           Y           Z
   0 C     6.0000    0    12.011   -2.569182    0.608283   -0.225970
   1 C     6.0000    0    12.011    0.205696    1.117183    0.458974
   2 C     6.0000    0    12.011    2.023128   -0.603738   -1.008485
   3 O     8.0000    0    15.999    2.712861   -2.650324    0.546699
   4 O     8.0000    0    15.999    0.854635    3.643010   -0.097529
   5 O     8.0000    0    15.999   -3.147907   -1.931937    0.305427
   6 H     1.0000    0     1.008   -2.826891    1.035218   -2.241819
   7 H     1.0000    0     1.008   -3.779192    1.880014    0.884723
   8 H     1.0000    0     1.008    0.488771    0.695910    2.473408
   9 H     1.0000    0     1.008    3.684841    0.537005   -1.505443
  10 H     1.0000    0     1.008    1.116652   -1.266285   -2.747848
  11 H     1.0000    0     1.008    3.680989   -3.850339   -0.433944
  12 H     1.0000    0     1.008   -0.083807    4.776116    0.987714
  13 H     1.0000    0     1.008   -4.885904   -2.265194   -0.154056

--------------------------------
INTERNAL COORDINATES (ANGSTROEM)
--------------------------------
 C      0   0   0     0.000000000000     0.00000000     0.00000000
 C      1   0   0     1.536262081037     0.00000000     0.00000000
 C      2   1   0     1.535349508239   112.05070888     0.00000000
 O      3   2   1     1.408331268283   108.83894782   261.50673054
 O      2   1   3     1.411090028768   110.45151836   120.06091615
 O      1   2   3     1.407056566447   109.16883021    58.87705766
 H      1   2   3     1.098897744504   108.15627801   297.61882887
 H      1   2   3     1.099246134628   108.86263656   179.65554506
 H      2   1   3     1.099307442203   108.87362301   242.40471852
 H      3   2   1     1.098543051199   107.25078492   141.59169054
 H      3   2   1     1.095544259008   109.90631460    23.25704487
 H      4   3   2     0.966957307109   109.19133211   172.75131831
 H      5   2   1     0.967447716775   109.77166090    65.89301510
 H      6   1   2     0.967514483955   109.31767853   181.06138516

---------------------------
INTERNAL COORDINATES (A.U.)
---------------------------
 C      0   0   0     0.000000000000     0.00000000     0.00000000
 C      1   0   0     2.903114603088     0.00000000     0.00000000
 C      2   1   0     2.901390090422   112.05070888     0.00000000
 O      3   2   1     2.661360402893   108.83894782   261.50673054
 O      2   1   3     2.666573704678   110.45151836   120.06091615
 O      1   2   3     2.658951565520   109.16883021    58.87705766
 H      1   2   3     2.076615786296   108.15627801   297.61882887
 H      1   2   3     2.077274148218   108.86263656   179.65554506
 H      2   1   3     2.077390002745   108.87362301   242.40471852
 H      3   2   1     2.075945513088   107.25078492   141.59169054
 H      3   2   1     2.070278617114   109.90631460    23.25704487
 H      4   3   2     1.827284493629   109.19133211   172.75131831
 H      5   2   1     1.828211233593   109.77166090    65.89301510
 H      6   1   2     1.828337405277   109.31767853   181.06138516

---------------------
BASIS SET INFORMATION
---------------------
There are 3 groups of distinct atoms

 Group   1 Type C   : 7s4p1d contracted to 3s2p1d pattern {511/31/1}
 Group   2 Type O   : 7s4p1d contracted to 3s2p1d pattern {511/31/1}
 Group   3 Type H   : 4s contracted to 2s pattern {31}

Atom   0C    basis set group =>   1
Atom   1C    basis set group =>   1
Atom   2C    basis set group =>   1
Atom   3O    basis set group =>   2
Atom   4O    basis set group =>   2
Atom   5O    basis set group =>   2
Atom   6H    basis set group =>   3
Atom   7H    basis set group =>   3
Atom   8H    basis set group =>   3
Atom   9H    basis set group =>   3
Atom  10H    basis set group =>   3
Atom  11H    basis set group =>   3
Atom  12H    basis set group =>   3
Atom  13H    basis set group =>   3
---------------------------------
AUXILIARY/J BASIS SET INFORMATION
---------------------------------
There are 3 groups of distinct atoms

 Group   1 Type C   : 12s5p4d2f1g contracted to 6s4p3d1f1g pattern {711111/2111/211/2/1}
 Group   2 Type O   : 12s5p4d2f1g contracted to 6s4p3d1f1g pattern {711111/2111/211/2/1}
 Group   3 Type H   : 5s2p1d contracted to 3s1p1d pattern {311/2/1}

Atom   0C    basis set group =>   1
Atom   1C    basis set group =>   1
Atom   2C    basis set group =>   1
Atom   3O    basis set group =>   2
Atom   4O    basis set group =>   2
Atom   5O    basis set group =>   2
Atom   6H    basis set group =>   3
Atom   7H    basis set group =>   3
Atom   8H    basis set group =>   3
Atom   9H    basis set group =>   3
Atom  10H    basis set group =>   3
Atom  11H    basis set group =>   3
Atom  12H    basis set group =>   3
Atom  13H    basis set group =>   3
------------------------------------------------------------------------------
                             ORCA STARTUP CALCULATIONS
                           -- RI-GTO INTEGRALS CHOSEN --
------------------------------------------------------------------------------
------------------------------------------------------------------------------
                   ___                                                        
                  /   \      - P O W E R E D   B Y -                         
                 /     \                                                     
                 |  |  |   _    _      __       _____    __    __             
                 |  |  |  | |  | |    /  \     |  _  \  |  |  /  |          
                  \  \/   | |  | |   /    \    | | | |  |  | /  /          
                 / \  \   | |__| |  /  /\  \   | |_| |  |  |/  /          
                |  |  |   |  __  | /  /__\  \  |    /   |      \           
                |  |  |   | |  | | |   __   |  |    \   |  |\   \          
                \     /   | |  | | |  |  |  |  | |\  \  |  | \   \       
                 \___/    |_|  |_| |__|  |__|  |_| \__\ |__|  \__/        
                                                                              
                      - O R C A' S   B I G   F R I E N D -                    
                                      &                                       
                       - I N T E G R A L  F E E D E R -                       
                                                                              
 v1 FN, 2020, v2 2021, v3 2022-2024                                           
------------------------------------------------------------------------------


----------------------
SHARK INTEGRAL PACKAGE
----------------------

Number of atoms                             ...     14
Number of basis functions                   ...    100
Number of shells                            ...     52
Maximum angular momentum                    ...      2
Integral batch strategy                     ... SHARK/LIBINT Hybrid
RI-J (if used) integral strategy            ... SPLIT-RIJ (Revised 2003 algorithm where possible)
Printlevel                                  ...      1
Contraction scheme used                     ... SEGMENTED contraction
Prescreening option                         ... SCHWARTZ
   Thresh                                   ... 1.000e-09
   Tcut                                     ... 1.000e-10
   Tpresel                                  ... 1.000e-10 
Coulomb Range Separation                    ... NOT USED
Exchange Range Separation                   ... NOT USED
Multipole approximations                    ... NOT USED
Finite Nucleus Model                        ... NOT USED
CABS basis                                  ... NOT available
Auxiliary Coulomb fitting basis             ... AVAILABLE
   # of basis functions in Aux-J            ...    382
   # of shells in Aux-J                     ...    130
   Maximum angular momentum in Aux-J        ...      4
Auxiliary J/K fitting basis                 ... NOT available
Auxiliary Correlation fitting basis         ... NOT available
Auxiliary 'external' fitting basis          ... NOT available

Checking pre-screening integrals            ... done (  0.0 sec) Dimension = 52
Check shell pair data                       ... done (  0.0 sec)
Shell pair information
Shell pair cut-off parameter TPreSel        ...   1.0e-10
Total number of shell pairs                 ...      1378
Shell pairs after pre-screening             ...      1335
Total number of primitive shell pairs       ...      5562
Primitive shell pairs kept                  ...      3942
          la=0 lb=0:    569 shell pairs
          la=1 lb=0:    400 shell pairs
          la=1 lb=1:     78 shell pairs
          la=2 lb=0:    195 shell pairs
          la=2 lb=1:     72 shell pairs
          la=2 lb=2:     21 shell pairs

Calculating one electron integrals          ... done (  0.0 sec)
Calculating RI/J V-Matrix + Cholesky decomp.... done (  0.1 sec)
Calculating Nuclear repulsion               ... done (  0.0 sec) ENN=    262.182145974012 Eh

Diagonalization of the overlap matrix:
Smallest eigenvalue                        ... 2.050e-03
Time for diagonalization                   ...    0.001 sec
Threshold for overlap eigenvalues          ... 1.000e-07
Number of eigenvalues below threshold      ... 0
Time for construction of square roots      ...    0.013 sec
Total time needed                          ...    0.022 sec

-------------------
DFT GRID GENERATION
-------------------

General Integration Accuracy     IntAcc      ... 4.159
Radial Grid Type                 RadialGrid  ... OptM3 with GC (2021)
Angular Grid (max. ang.)         AngularGrid ... 3 (Lebedev-194)
Angular grid pruning method      GridPruning ... 4 (adaptive)
Weight generation scheme         WeightScheme... mBecke (2022)
Basis function cutoff            BFCut       ... 1.0000e-10
Integration weight cutoff        WCut        ... 1.0000e-14
Partially contracted basis set               ... off
Rotationally invariant grid construction     ... off
Angular grids for H and He will be reduced by one unit

Total number of grid points                  ...    31066
Total number of batches                      ...      492
Average number of points per batch           ...       63
Average number of grid points per atom       ...     2219
Initializing property integral containers    ... done (  0.0 sec)

SHARK setup successfully completed in   0.5 seconds

Maximum memory used throughout the entire STARTUP-calculation: 15.2 MB
-------------------------------------------------------------------------------
                                 ORCA GUESS
                   Start orbitals & Density for SCF / CASSCF
-------------------------------------------------------------------------------

------------
SCF SETTINGS
------------
Hamiltonian:
 Density Functional     Method          .... DFT(GTOs)
 Exchange Functional    Exchange        .... PBE
   PBE kappa parameter   XKappa         ....  0.804000
   PBE mue parameter    XMuePBE         ....  0.219520
 Correlation Functional Correlation     .... PBE
   PBE beta parameter  CBetaPBE         ....  0.066725
 LDA part of GGA corr.  LDAOpt          .... PW91-LDA
 Gradients option       PostSCFGGA      .... off
   NL short-range parameter             ....  6.400000
 RI-approximation to the Coulomb term is turned on
   Number of AuxJ basis functions       .... 382


General Settings:
 Integral files         IntName         .... sp
 Hartree-Fock type      HFTyp           .... RHF
 Total Charge           Charge          ....    0
 Multiplicity           Mult            ....    1
 Number of Electrons    NEL             ....   50
 Basis Dimension        Dim             ....  100
 Nuclear Repulsion      ENuc            ....    262.1821459740 Eh

Convergence Acceleration:
 AO-DIIS                CNVDIIS         .... on
   Start iteration      DIISMaxIt       ....    12
   Startup error        DIISStart       ....  0.200000
   # of expansion vecs  DIISMaxEq       ....     5
   Bias factor          DIISBfac        ....   1.050
   Max. coefficient     DIISMaxC        ....  10.000
 MO-DIIS                CNVKDIIS        .... off
 Trust-Rad. Augm. Hess. CNVTRAH         .... auto
   Auto Start mean grad. ratio tolernc. ....  1.125000
   Auto Start start iteration           ....    50
   Auto Start num. interpolation iter.  ....    10
   Max. Number of Micro iterations      ....    24
   Max. Number of Macro iterations      .... Maxiter - #DIIS iter
   Number of Davidson start vectors     ....     2
   Converg. threshold    (grad. norm)   ....   1.000e-04
   Grad. Scal. Fac. for Micro threshold ....   0.100
   Minimum threshold for Micro iter.    ....   1.000e-02
   NR start threshold (gradient norm)   ....   1.000e-04
   Initial trust radius                 ....   0.400
   Minimum AH scaling param. (alpha)    ....   1.000
   Maximum AH scaling param. (alpha)    .... 1000.000
   Quad. conv. algorithm                .... NR
   White noise on init. David. guess    .... on
   Maximum white noise                  ....   0.010
   Pseudo random numbers                .... off
   Inactive MOs                         .... canonical
   Orbital update algorithm             .... Taylor
   Preconditioner                       .... Diag
   Full preconditioner red. dimension   ....   250
 SOSCF                  CNVSOSCF        .... on
   Start iteration      SOSCFMaxIt      ....   150
   Startup grad/error   SOSCFStart      ....  0.003300
   Hessian update       SOSCFHessUp     .... L-BFGS
 Level Shifting         CNVShift        .... on
   Level shift para.    LevelShift      ....    0.2500
   Turn off err/grad.   ShiftErr        ....    0.0010
 Zerner damping         CNVZerner       .... off
 Static damping         CNVDamp         .... on
   Fraction old density DampFac         ....    0.7000
   Max. Damping (<1)    DampMax         ....    0.9800
   Min. Damping (>=0)   DampMin         ....    0.0000
   Turn off err/grad.   DampErr         ....    0.1000

SCF Procedure:
 Maximum # iterations   MaxIter         ....   125
 SCF integral mode      SCFMode         .... Direct
   Integral package                     .... SHARK and LIBINT hybrid scheme
 Reset frequency        DirectResetFreq ....    20
 Integral Threshold     Thresh          ....  1.000e-09 Eh
 Primitive CutOff       TCut            ....  1.000e-10 Eh

Convergence Tolerance:
 Convergence Check Mode ConvCheckMode   .... Total+1el-Energy
 Convergence forced     ConvForced      .... 0
 Energy Change          TolE            ....  1.000e-05 Eh
 1-El. energy change                    ....  1.000e-02 Eh
 Orbital Gradient       TolG            ....  1.000e-04
 Orbital Rotation angle TolX            ....  1.000e-04
 DIIS Error             TolErr          ....  5.000e-04

------------------------------
INITIAL GUESS: MODEL POTENTIAL
------------------------------
Loading Hartree-Fock densities                     ... done
Calculating cut-offs                               ... done
Initializing the effective Hamiltonian             ... done
Setting up the integral package (SHARK)            ... done
Starting the Coulomb interaction                   ... done (   0.1 sec)
Making the grid                                    ... done (   0.2 sec)
Mapping shells                                     ... done
Starting the XC term evaluation                    ... done (   0.1 sec)
  promolecular density results
     # of electrons  =     49.999780685
     EX              =    -42.173220486
     EC              =     -1.663650069
     EX+EC           =    -43.836870556
Transforming the Hamiltonian                       ... done (   0.0 sec)
Diagonalizing the Hamiltonian                      ... done (   0.0 sec)
Back transforming the eigenvectors                 ... done (   0.0 sec)
Now organizing SCF variables                       ... done
                      ------------------
                      INITIAL GUESS DONE (   0.4 sec)
                      ------------------
             **** ENERGY FILE WAS UPDATED (sp.en.tmp) ****
Finished Guess after   0.6 sec
Maximum memory used throughout the entire GUESS-calculation: 11.7 MB

-------------------------------------------------------------------------------------------
                                      ORCA LEAN-SCF
                              memory conserving SCF solver
-------------------------------------------------------------------------------------------

----------------------------------------D-I-I-S--------------------------------------------
Iteration    Energy (Eh)           Delta-E    RMSDP     MaxDP     DIISErr   Damp  Time(sec)
-------------------------------------------------------------------------------------------
               ***  Starting incremental Fock matrix formation  ***
    1    -343.8803911906370558     0.00e+00  6.90e-03  1.34e-01  2.37e-01  0.700   0.6
    2    -343.9755303142843559    -9.51e-02  4.45e-03  8.82e-02  9.28e-02  0.700   0.6
                               ***Turning on AO-DIIS***
    3    -344.0053218590840061    -2.98e-02  1.54e-03  1.86e-02  1.81e-02  0.700   0.6
    4    -344.0247748472579588    -1.95e-02  1.96e-03  2.23e-02  1.07e-02  0.000   0.5
    5    -344.0703530952234814    -4.56e-02  6.64e-04  1.25e-02  6.78e-03  0.000   0.5
                              *** Initializing SOSCF ***
---------------------------------------S-O-S-C-F--------------------------------------
Iteration    Energy (Eh)           Delta-E    RMSDP     MaxDP     MaxGrad    Time(sec)
--------------------------------------------------------------------------------------
    6    -344.0706159876743868    -2.63e-04  2.16e-04  2.74e-03  1.14e-03     0.6
               *** Restarting incremental Fock matrix formation ***
    7    -344.0706380029801039    -2.20e-05  1.31e-04  1.29e-03  1.81e-04     0.6
    8    -344.0706392443022423    -1.24e-06  4.37e-05  5.56e-04  1.72e-04     0.5
                 **** Energy Check signals convergence ****

               *****************************************************
               *                     SUCCESS                       *
               *           SCF CONVERGED AFTER   8 CYCLES          *
               *****************************************************

             **** ENERGY FILE WAS UPDATED (sp.en.tmp) ****

----------------
TOTAL SCF ENERGY
----------------

Total Energy       :       -344.07063924430224 Eh           -9362.63808 eV

Components:
Nuclear Repulsion  :        262.18214597401220 Eh            7134.33889 eV
Electronic Energy  :       -606.25278521831444 Eh          -16496.97698 eV
One Electron Energy:       -990.84819843167770 Eh          -26962.35022 eV
Two Electron Energy:        384.59541321336326 Eh           10465.37324 eV

Virial components:
Potential Energy   :       -685.81968232187569 Eh          -18662.10232 eV
Kinetic Energy     :        341.74904307757345 Eh            9299.46424 eV
Virial Ratio       :          2.00679327773919

DFT components:
N(Alpha)           :       25.000128489053 electrons
N(Beta)            :       25.000128489053 electrons
N(Total)           :       50.000256978106 electrons
E(X)               :      -42.972728452549 Eh       
E(C)               :       -1.680456865197 Eh       
E(XC)              :      -44.653185317745 Eh       

---------------
SCF CONVERGENCE
---------------

  Last Energy change         ...    1.2413e-06  Tolerance :   1.0000e-05
  Last MAX-Density change    ...    5.5577e-04  Tolerance :   1.0000e-03
  Last RMS-Density change    ...    4.3699e-05  Tolerance :   1.0000e-04
  Last DIIS Error            ...    1.1387e-03  Tolerance :   5.0000e-04
  Last Orbital Gradient      ...    1.7171e-04  Tolerance :   1.0000e-04
  Last Orbital Rotation      ...    1.3001e-04  Tolerance :   1.0000e-04


----------------
ORBITAL ENERGIES
----------------

  NO   OCC          E(Eh)            E(eV) 
   0   2.0000     -18.746963      -510.1308 
   1   2.0000     -18.744490      -510.0635 
   2   2.0000     -18.733170      -509.7555 
   3   2.0000      -9.931849      -270.2594 
   4   2.0000      -9.928410      -270.1658 
   5   2.0000      -9.919539      -269.9244 
   6   2.0000      -0.929616       -25.2961 
   7   2.0000      -0.916297       -24.9337 
   8   2.0000      -0.907397       -24.6915 
   9   2.0000      -0.674550       -18.3555 
  10   2.0000      -0.599924       -16.3248 
  11   2.0000      -0.519357       -14.1324 
  12   2.0000      -0.486543       -13.2395 
  13   2.0000      -0.457872       -12.4593 
  14   2.0000      -0.428560       -11.6617 
  15   2.0000      -0.416487       -11.3332 
  16   2.0000      -0.379008       -10.3133 
  17   2.0000      -0.348794        -9.4912 
  18   2.0000      -0.346872        -9.4389 
  19   2.0000      -0.292065        -7.9475 
  20   2.0000      -0.287054        -7.8111 
  21   2.0000      -0.259563        -7.0631 
  22   2.0000      -0.216746        -5.8980 
  23   2.0000      -0.215615        -5.8672 
  24   2.0000      -0.200843        -5.4652 
  25   0.0000       0.019734         0.5370 
  26   0.0000       0.027009         0.7350 
  27   0.0000       0.044539         1.2120 
  28   0.0000       0.082754         2.2518 
  29   0.0000       0.104143         2.8339 
  30   0.0000       0.115914         3.1542 
  31   0.0000       0.117907         3.2084 
  32   0.0000       0.131306         3.5730 
  33   0.0000       0.163205         4.4410 
  34   0.0000       0.176310         4.7976 
  35   0.0000       0.197156         5.3649 
*Only the first 10 virtual orbitals were printed.

                    ********************************
                    * MULLIKEN POPULATION ANALYSIS *
                    ********************************

-----------------------
MULLIKEN ATOMIC CHARGES
-----------------------
   0 C :   -0.006123
   1 C :    0.005111
   2 C :    0.038060
   3 O :   -0.432626
   4 O :   -0.425940
   5 O :   -0.424197
   6 H :    0.069108
   7 H :    0.056605
   8 H :    0.082588
   9 H :    0.076853
  10 H :    0.065515
  11 H :    0.296011
  12 H :    0.298666
  13 H :    0.300369
Sum of atomic charges:   -0.0000000

--------------------------------
MULLIKEN REDUCED ORBITAL CHARGES
--------------------------------
  0 C s       :     3.040151  s :     3.040151
      pz      :     1.039652  p :     2.903037
      px      :     1.067042
      py      :     0.796343
      dz2     :     0.012495  d :     0.062934
      dxz     :     0.006092
      dyz     :     0.015422
      dx2y2   :     0.014760
      dxy     :     0.014165

  1 C s       :     3.083879  s :     3.083879
      pz      :     1.073630  p :     2.844210
      px      :     1.008027
      py      :     0.762552
      dz2     :     0.013727  d :     0.066801
      dxz     :     0.006286
      dyz     :     0.013496
      dx2y2   :     0.017704
      dxy     :     0.015589

  2 C s       :     3.028206  s :     3.028206
      pz      :     0.972309  p :     2.871918
      px      :     1.030949
      py      :     0.868660
      dz2     :     0.011184  d :     0.061817
      dxz     :     0.010816
      dyz     :     0.015371
      dx2y2   :     0.009321
      dxy     :     0.015124

  3 O s       :     3.788962  s :     3.788962
      pz      :     1.553764  p :     4.628176
      px      :     1.723368
      py      :     1.351043
      dz2     :     0.002140  d :     0.015488
      dxz     :     0.003597
      dyz     :     0.006188
      dx2y2   :     0.000973
      dxy     :     0.002591

  4 O s       :     3.786257  s :     3.786257
      pz      :     1.686329  p :     4.624377
      px      :     1.723620
      py      :     1.214429
      dz2     :     0.001434  d :     0.015306
      dxz     :     0.003428
      dyz     :     0.004611
      dx2y2   :     0.001653
      dxy     :     0.004179

  5 O s       :     3.791108  s :     3.791108
      pz      :     1.858101  p :     4.617525
      px      :     1.367998
      py      :     1.391425
      dz2     :     0.002192  d :     0.015565
      dxz     :     0.001947
      dyz     :     0.002449
      dx2y2   :     0.007363
      dxy     :     0.001613

  6 H s       :     0.930892  s :     0.930892

  7 H s       :     0.943395  s :     0.943395

  8 H s       :     0.917412  s :     0.917412

  9 H s       :     0.923147  s :     0.923147

 10 H s       :     0.934485  s :     0.934485

 11 H s       :     0.703989  s :     0.703989

 12 H s       :     0.701334  s :     0.701334

 13 H s       :     0.699631  s :     0.699631


------------------------
MULLIKEN OVERLAP CHARGES
------------------------
B(  0-C ,  1-C ) :   0.6272 B(  0-C ,  2-C ) :  -0.0554 B(  0-C ,  4-O ) :  -0.0802 
B(  0-C ,  5-O ) :   0.6297 B(  0-C ,  6-H ) :   0.6537 B(  0-C ,  7-H ) :   0.6953 
B(  0-C ,  8-H ) :  -0.0945 B(  1-C ,  2-C ) :   0.2953 B(  1-C ,  3-O ) :  -0.0954 
B(  1-C ,  4-O ) :   0.5782 B(  1-C ,  5-O ) :  -0.1633 B(  1-C ,  7-H ) :  -0.0843 
B(  1-C ,  8-H ) :   0.6966 B(  1-C ,  9-H ) :  -0.0591 B(  1-C , 10-H ) :  -0.0530 
B(  1-C , 12-H ) :  -0.0893 B(  2-C ,  3-O ) :   0.6498 B(  2-C ,  4-O ) :  -0.1024 
B(  2-C ,  6-H ) :  -0.0670 B(  2-C ,  8-H ) :  -0.1347 B(  2-C ,  9-H ) :   0.6627 
B(  2-C , 10-H ) :   0.6863 B(  2-C , 11-H ) :  -0.0507 B(  3-O ,  9-H ) :  -0.0568 
B(  3-O , 10-H ) :  -0.0585 B(  3-O , 11-H ) :   0.5088 B(  4-O , 12-H ) :   0.5252 
B(  5-O ,  6-H ) :  -0.0607 B(  5-O ,  7-H ) :  -0.0551 B(  5-O , 13-H ) :   0.5070 
B(  6-H ,  7-H ) :  -0.1202 B(  9-H , 10-H ) :  -0.0922 


                     *******************************
                     * LOEWDIN POPULATION ANALYSIS *
                     *******************************

----------------------
LOEWDIN ATOMIC CHARGES
----------------------
   0 C :   -0.140016
   1 C :   -0.074834
   2 C :   -0.120895
   3 O :   -0.340166
   4 O :   -0.322822
   5 O :   -0.339020
   6 H :    0.093059
   7 H :    0.086011
   8 H :    0.107945
   9 H :    0.099198
  10 H :    0.096357
  11 H :    0.283936
  12 H :    0.284864
  13 H :    0.286382

-------------------------------
LOEWDIN REDUCED ORBITAL CHARGES
-------------------------------
  0 C s       :     2.931333  s :     2.931333
      pz      :     1.101728  p :     3.064631
      px      :     1.078926
      py      :     0.883977
      dz2     :     0.029822  d :     0.144051
      dxz     :     0.012736
      dyz     :     0.034478
      dx2y2   :     0.037344
      dxy     :     0.029671

  1 C s       :     2.900350  s :     2.900350
      pz      :     1.098738  p :     3.020425
      px      :     1.053879
      py      :     0.867807
      dz2     :     0.032926  d :     0.154058
      dxz     :     0.014105
      dyz     :     0.030419
      dx2y2   :     0.041171
      dxy     :     0.035437

  2 C s       :     2.925780  s :     2.925780
      pz      :     1.026525  p :     3.055073
      px      :     1.077311
      py      :     0.951237
      dz2     :     0.022800  d :     0.140042
      dxz     :     0.026721
      dyz     :     0.036617
      dx2y2   :     0.018142
      dxy     :     0.035762

  3 O s       :     3.544550  s :     3.544550
      pz      :     1.620934  p :     4.768674
      px      :     1.739561
      py      :     1.408179
      dz2     :     0.002955  d :     0.026942
      dxz     :     0.005408
      dyz     :     0.011322
      dx2y2   :     0.002217
      dxy     :     0.005039

  4 O s       :     3.540278  s :     3.540278
      pz      :     1.726856  p :     4.755760
      px      :     1.740819
      py      :     1.288085
      dz2     :     0.002242  d :     0.026785
      dxz     :     0.004757
      dyz     :     0.008265
      dx2y2   :     0.003877
      dxy     :     0.007644

  5 O s       :     3.543944  s :     3.543944
      pz      :     1.870680  p :     4.767971
      px      :     1.432929
      py      :     1.464362
      dz2     :     0.003555  d :     0.027104
      dxz     :     0.002905
      dyz     :     0.003754
      dx2y2   :     0.013436
      dxy     :     0.003455

  6 H s       :     0.906941  s :     0.906941

  7 H s       :     0.913989  s :     0.913989

  8 H s       :     0.892055  s :     0.892055

  9 H s       :     0.900802  s :     0.900802

 10 H s       :     0.903643  s :     0.903643

 11 H s       :     0.716064  s :     0.716064

 12 H s       :     0.715136  s :     0.715136

 13 H s       :     0.713618  s :     0.713618


---------------------------------
LOEWDIN BOND ORDERS (THRESH 0.050000)
---------------------------------
B(  0-C ,  1-C ) :   1.0632 B(  0-C ,  2-C ) :   0.0545 B(  0-C ,  4-O ) :   0.0903 
B(  0-C ,  5-O ) :   1.2368 B(  0-C ,  6-H ) :   0.9080 B(  0-C ,  7-H ) :   0.9092 
B(  1-C ,  2-C ) :   1.0548 B(  1-C ,  3-O ) :   0.0636 B(  1-C ,  4-O ) :   1.2114 
B(  1-C ,  5-O ) :   0.0615 B(  1-C ,  8-H ) :   0.8762 B(  2-C ,  3-O ) :   1.2379 
B(  2-C ,  4-O ) :   0.0613 B(  2-C ,  9-H ) :   0.9066 B(  2-C , 10-H ) :   0.9098 
B(  3-O , 11-H ) :   0.8889 B(  4-O , 12-H ) :   0.8858 B(  5-O , 13-H ) :   0.8878 


------------------------------------------
LOEWDIN REDUCED ORBITAL POPULATIONS PER MO
-------------------------------------------
THRESHOLD FOR PRINTING IS 0.1%%
                      0         1         2         3         4         5   
                 -18.74696 -18.74449 -18.73317  -9.93185  -9.92841  -9.91954
                   2.00000   2.00000   2.00000   2.00000   2.00000   2.00000
                  --------  --------  --------  --------  --------  --------
 0 C  s               0.0       0.0       0.0       0.0      99.6       0.0
 1 C  s               0.0       0.0       0.0      99.6       0.0       0.0
 2 C  s               0.0       0.0       0.0       0.0       0.0      99.6
 3 O  s               0.0       0.0      99.9       0.0       0.0       0.0
 4 O  s              99.9       0.0       0.0       0.0       0.0       0.0
 5 O  s               0.0      99.9       0.0       0.0       0.0       0.0
 5 O  py              0.0       0.0       0.0       0.0       0.1       0.0

                      6         7         8         9        10        11   
                  -0.92962  -0.91630  -0.90740  -0.67455  -0.59992  -0.51936
                   2.00000   2.00000   2.00000   2.00000   2.00000   2.00000
                  --------  --------  --------  --------  --------  --------
 0 C  s               6.1       4.9       0.1      10.6      17.9       2.4
 0 C  pz              0.2       0.1       0.0       0.0       0.0       1.1
 0 C  px              0.2       1.5       0.0       4.0       0.1       2.2
 0 C  py              1.3       7.1       0.0       0.8       1.9       0.2
 0 C  dz2             0.1       0.1       0.0       0.0       0.0       0.0
 0 C  dx2y2           0.1       0.4       0.0       0.2       0.0       0.1
 1 C  s               9.7       1.6       0.2      18.9       0.1       9.4
 1 C  pz              0.4       0.0       0.0       0.6       0.5       2.7
 1 C  px              0.0       1.4       0.3       0.4      14.5       0.4
 1 C  py              2.7       3.7       3.0       4.2       0.6       2.0
 1 C  dz2             0.1       0.0       0.0       0.0       0.0       0.0
 1 C  dxz             0.0       0.0       0.0       0.0       0.2       0.0
 1 C  dyz             0.0       0.0       0.0       0.0       0.0       0.1
 1 C  dx2y2           0.2       0.2       0.0       0.2       0.1       0.0
 2 C  s               2.7       0.4       7.9      10.2      14.0       7.6
 2 C  pz              0.7       0.1       2.0       0.1       0.2       4.0
 2 C  px              0.2       0.0       0.9       2.5       0.0       0.5
 2 C  py              0.1       0.1       6.4       2.7       1.3       1.7
 2 C  dyz             0.0       0.0       0.5       0.1       0.0       0.0
 2 C  dx2y2           0.0       0.0       0.2       0.0       0.0       0.0
 2 C  dxy             0.0       0.0       0.1       0.0       0.0       0.1
 3 O  s               4.7       0.9      53.6       2.4       2.0       1.0
 3 O  pz              0.3       0.1       2.9       0.1       0.2       1.3
 3 O  px              0.0       0.0       0.1       0.9       1.4       1.4
 3 O  py              0.1       0.0       0.1       2.6       6.2       5.7
 3 O  dyz             0.0       0.0       0.0       0.0       0.1       0.1
 4 O  s              33.4      18.8       6.4       4.9       0.1       0.6
 4 O  pz              0.8       0.5       0.2       0.4       0.1       0.2
 4 O  px              0.9       0.4       0.2       0.1       0.9       0.4
 4 O  py              0.4       0.1       0.0       6.2       0.7      22.7
 4 O  dyz             0.0       0.0       0.0       0.0       0.0       0.2
 4 O  dxy             0.0       0.0       0.0       0.0       0.0       0.1
 5 O  s              17.9      41.0       0.3       2.6       2.2       0.4
 5 O  pz              0.2       0.4       0.0       0.0       0.0       0.1
 5 O  px              0.3       0.9       0.0       2.4       3.2       1.6
 5 O  py              0.7       1.1       0.0       2.0       6.2       3.3
 5 O  dx2y2           0.0       0.0       0.0       0.1       0.2       0.1
 6 H  s               0.8       0.5       0.0       2.3       4.7       1.9
 7 H  s               0.8       0.5       0.0       1.9       6.4       1.0
 8 H  s               1.3       0.1       0.0       3.6       0.0       4.7
 9 H  s               0.5       0.1       0.8       1.8       4.7       2.6
10 H  s               0.4       0.0       0.9       2.4       3.1       5.5
11 H  s               1.0       0.2      11.1       1.8       2.8       2.1
12 H  s               6.9       3.8       1.3       3.4       0.3       6.4
13 H  s               3.6       8.5       0.1       2.2       3.2       1.4

                     12        13        14        15        16        17   
                  -0.48654  -0.45787  -0.42856  -0.41649  -0.37901  -0.34879
                   2.00000   2.00000   2.00000   2.00000   2.00000   2.00000
                  --------  --------  --------  --------  --------  --------
 0 C  s               1.0       1.1       0.5       0.0       0.1       0.0
 0 C  pz              6.0       0.2       0.1      19.1      11.8       2.5
 0 C  px              1.8       3.7       9.4       5.4       0.9      11.1
 0 C  py              3.5      17.2       2.0       0.6       0.9       0.0
 0 C  dz2             0.1       0.1       0.0       0.0       0.1       0.0
 0 C  dxz             0.0       0.0       0.1       0.0       0.0       0.1
 0 C  dyz             0.0       0.2       0.0       0.0       0.0       0.0
 0 C  dx2y2           0.0       0.3       0.3       0.0       0.0       0.0
 1 C  s               0.9       0.0       2.0       0.0       0.6       0.0
 1 C  pz             12.8       1.9       0.3       8.7       1.5       0.0
 1 C  px              0.1       0.3       6.5       0.3       7.0       7.2
 1 C  py              5.2       0.2       2.9       0.7       6.5       2.0
 1 C  dz2             0.0       0.0       0.1       0.0       0.2       0.0
 1 C  dxz             0.0       0.0       0.0       0.1       0.0       0.1
 1 C  dyz             0.0       0.0       0.1       0.0       0.1       0.0
 1 C  dx2y2           0.0       0.0       0.1       0.1       0.1       0.1
 1 C  dxy             0.0       0.2       0.1       0.0       0.1       0.0
 2 C  s               0.5       0.0       0.5       1.3       0.1       0.0
 2 C  pz              9.6       4.0       8.5       3.6       2.4       0.3
 2 C  px              0.6       0.7       5.6      11.6       0.3      23.8
 2 C  py              1.7       1.1       0.5       2.2      14.3       0.5
 2 C  dz2             0.1       0.0       0.0       0.0       0.0       0.1
 2 C  dxz             0.0       0.0       0.0       0.0       0.2       0.0
 2 C  dyz             0.1       0.2       0.2       0.1       0.1       0.2
 2 C  dx2y2           0.0       0.0       0.1       0.0       0.1       0.1
 2 C  dxy             0.0       0.0       0.0       0.1       0.0       0.0
 3 O  s               0.2       0.2       0.9       1.4       0.0       0.1
 3 O  pz              1.1       0.2       1.4       1.5       4.0       0.3
 3 O  px              3.7       2.1       0.5       6.0       5.0       6.5
 3 O  py              6.3       9.5       9.8       0.9       3.3       6.3
 4 O  s               0.2       0.7       1.9       0.5       0.2       1.3
 4 O  pz              4.3       0.7       2.3       2.5       1.9       0.4
 4 O  px              0.4       0.9       5.3       0.2       2.3       7.9
 4 O  py              7.8       0.2       6.8       0.0       8.1       0.3
 4 O  dxy             0.0       0.0       0.0       0.0       0.1       0.0
 5 O  s               0.4       1.5       0.0       0.0       1.0       1.6
 5 O  pz              0.9       0.1       0.0       3.9       5.6       0.3
 5 O  px              4.9      22.8       2.0       0.3       0.8       3.8
 5 O  py              0.7       5.9      10.2       2.6       0.4       4.7
 5 O  dx2y2           0.0       0.2       0.1       0.0       0.0       0.0
 6 H  s               4.7       2.2       0.3       5.2       6.2       0.8
 7 H  s               0.8       7.3       0.4       7.2       1.1       4.3
 8 H  s               6.7       0.7       1.4       2.6       3.9       0.3
 9 H  s               2.3       0.2       0.3       9.4       2.4       7.8
10 H  s               2.2       1.2       7.0       0.1       2.2       4.6
11 H  s               3.1       3.4       3.0       1.5       1.6       0.1
12 H  s               3.4       0.3       3.6       0.1       1.9       0.2
13 H  s               1.5       8.2       2.5       0.1       0.2       0.1

                     18        19        20        21        22        23   
                  -0.34687  -0.29207  -0.28705  -0.25956  -0.21675  -0.21561
                   2.00000   2.00000   2.00000   2.00000   2.00000   2.00000
                  --------  --------  --------  --------  --------  --------
 0 C  s               0.1       0.4       0.2       0.1       1.3       0.1
 0 C  pz              7.5       0.5       1.2       0.1       1.8       2.8
 0 C  px              1.6       0.3       2.3       2.1       5.4       1.1
 0 C  py              2.5       1.6       3.4       0.5       0.3       0.3
 0 C  dz2             0.1       0.2       0.2       0.0       0.1       0.4
 0 C  dxz             0.1       0.0       0.0       0.1       0.0       0.0
 0 C  dyz             0.0       0.0       0.0       0.0       0.2       1.1
 0 C  dx2y2           0.1       0.0       0.2       0.0       0.1       0.1
 0 C  dxy             0.1       0.2       0.4       0.1       0.0       0.2
 1 C  s               0.0       0.2       1.4       0.3       0.0       0.0
 1 C  pz             11.8       3.9       0.8       6.0       3.0       0.1
 1 C  px              0.7       0.1       2.1       7.7       2.9       0.2
 1 C  py              5.6       1.5       1.6       0.6       0.1       0.0
 1 C  dz2             0.1       0.1       0.0       0.2       0.6       0.0
 1 C  dxz             0.1       0.1       0.0       0.0       0.0       0.1
 1 C  dyz             0.0       0.1       0.0       0.2       0.6       0.0
 1 C  dx2y2           0.3       0.2       0.0       0.0       0.3       0.0
 1 C  dxy             0.1       0.2       0.0       0.2       0.5       0.1
 2 C  s               0.0       0.5       0.1       0.7       0.0       0.1
 2 C  pz              3.0       0.2       1.8      10.3       0.0       0.4
 2 C  px              0.1       0.7       0.1       2.6       0.0       0.0
 2 C  py              9.6       2.9       0.4       0.9       0.0       0.3
 2 C  dz2             0.0       0.0       0.1       0.3       0.0       0.0
 2 C  dxy             0.0       0.0       0.3       0.4       0.0       0.0
 3 O  s               1.2       2.8       2.0       3.6       0.2       0.1
 3 O  pz              8.8      17.1      14.4      22.8       0.2       0.5
 3 O  px              0.5       0.2       2.6       0.6       0.1       1.7
 3 O  py              0.2       0.2       1.3       0.1       0.3       1.0
 4 O  s               0.9       4.9       0.3       2.0       0.0       0.0
 4 O  pz             14.1       9.1       5.7       9.2      30.8       3.1
 4 O  px              0.1      26.4       0.4       2.9      35.2       2.2
 4 O  py              6.6       3.0       0.9       0.5       0.1       0.0
 5 O  s               0.4       0.9       5.6       1.0       0.4       0.0
 5 O  pz              7.7       0.7       3.8       3.4       4.7      60.6
 5 O  px              0.0       2.8      16.6       1.7       0.2       6.8
 5 O  py              2.1       9.1      17.8       1.2       0.2       4.3
 6 H  s               2.8       2.0       2.8       0.1       2.3       5.4
 7 H  s               2.2       0.1       2.5       1.6       0.2       6.1
 8 H  s               4.1       3.3       0.3       4.3       7.0       0.1
 9 H  s               1.1       0.2       0.4       2.1       0.1       0.3
10 H  s               3.4       0.3       2.0       4.3       0.1       0.3
11 H  s               0.0       0.7       0.7       2.5       0.2       0.1
12 H  s               0.1       2.2       0.0       1.7       0.0       0.1
13 H  s               0.1       0.1       2.6       0.6       0.5       0.0

                     24        25        26        27        28        29   
                  -0.20084   0.01973   0.02701   0.04454   0.08275   0.10414
                   2.00000   0.00000   0.00000   0.00000   0.00000   0.00000
                  --------  --------  --------  --------  --------  --------
 0 C  s               0.1       0.4       5.2       0.0       1.5       6.8
 0 C  pz              0.1       0.4       0.2       0.1      11.6       1.0
 0 C  px              0.7       1.4       2.1       0.8       0.7       0.9
 0 C  py              0.0       2.1       5.2       0.9       0.3       3.6
 0 C  dz2             0.0       0.1       0.1       0.0       0.3       0.0
 0 C  dxz             0.0       0.1       0.0       0.1       0.0       0.1
 0 C  dyz             0.1       0.0       0.0       0.0       0.0       0.1
 0 C  dx2y2           0.0       0.5       0.0       0.2       0.2       0.2
 0 C  dxy             0.1       0.4       0.2       0.1       0.1       0.1
 1 C  s               0.0       0.2       0.9       0.2       0.3       0.4
 1 C  pz              0.0       0.7       0.8       0.3       3.1       0.3
 1 C  px              0.6       0.2       0.0       0.2       0.2       1.4
 1 C  py              0.0       4.8       0.0       0.1       1.2       2.7
 1 C  dz2             0.0       0.7       0.0       0.1       0.2       0.0
 1 C  dxz             0.0       0.0       0.0       0.2       0.2       0.0
 1 C  dx2y2           0.1       0.7       0.0       0.0       0.5       1.5
 1 C  dxy             0.0       0.1       0.2       0.0       0.1       0.1
 2 C  s               0.0       0.1       1.2       2.1       1.9       1.4
 2 C  pz              0.1       1.2       0.3       3.7       4.9       0.1
 2 C  px              3.6       0.3       0.1       0.6       0.4       2.0
 2 C  py              1.0       2.0       0.1       1.8       3.8       0.8
 2 C  dz2             0.4       0.0       0.1       0.1       0.1       0.2
 2 C  dxz             0.7       0.2       0.0       0.0       0.3       0.1
 2 C  dyz             0.2       0.2       0.1       0.2       0.0       0.2
 2 C  dx2y2           0.2       0.4       0.0       0.0       0.2       0.3
 2 C  dxy             0.6       0.2       0.0       0.1       0.0       0.0
 3 O  s               0.0       2.6       0.0       7.7       0.7       0.1
 3 O  pz              3.9       1.6       0.2       3.1       0.6       0.2
 3 O  px             53.5       0.1       0.0       2.5       0.0       0.2
 3 O  py             16.6       0.0       0.2       2.4       0.0       0.0
 4 O  s               0.1       6.7       1.7       0.8       0.1       2.1
 4 O  pz              0.1       2.2       0.5       0.2       0.1       1.7
 4 O  px              0.0       3.2       0.5       0.3       0.0       0.7
 4 O  py              0.0       0.1       2.2       0.5       0.7       0.1
 4 O  dx2y2           0.0       0.1       0.0       0.0       0.0       0.1
 5 O  s               0.1       4.3       5.2       1.0       0.4       0.8
 5 O  pz              1.1       0.4       0.4       0.1       0.3       0.1
 5 O  px              0.6       1.9       3.5       1.6       0.3       4.3
 5 O  py              0.5       0.6       0.3       0.4       0.1       0.2
 5 O  dyz             0.0       0.0       0.0       0.0       0.1       0.0
 6 H  s               0.2       0.1       6.9       0.2      28.0       2.0
 7 H  s               1.1       0.7      14.7       0.0       2.3      25.1
 8 H  s               0.1       2.8       2.1       0.5       8.7       1.0
 9 H  s               8.0       0.9       0.7       3.9       0.1      11.4
10 H  s               5.1       0.7       1.7       5.9      20.9       0.5
11 H  s               0.0       8.8       0.0      45.5       1.8       1.1
12 H  s               0.0      27.9      14.5       5.3       0.8       8.0
13 H  s               0.1      16.7      27.7       5.8       1.7      15.7

                     30        31        32        33        34        35   
                   0.11591   0.11791   0.13131   0.16320   0.17631   0.19716
                   0.00000   0.00000   0.00000   0.00000   0.00000   0.00000
                  --------  --------  --------  --------  --------  --------
 0 C  s               0.6       3.8       1.3       2.7       0.0       2.5
 0 C  pz              0.4       0.0       8.3       1.5       2.8       1.0
 0 C  px              2.1       1.2       4.8       4.3       4.7       1.7
 0 C  py              0.0       1.9       0.2      15.4       4.6       9.3
 0 C  dz2             0.1       0.0       0.0       0.7       0.0       2.2
 0 C  dxz             0.4       0.4       0.5       0.0       0.2       0.0
 0 C  dyz             0.0       0.0       0.1       0.3       0.4       1.1
 0 C  dx2y2           0.2       0.0       0.1       3.8       1.4       0.0
 0 C  dxy             0.1       0.0       0.1       0.4       0.0       0.0
 1 C  s               3.7       3.7       0.4       0.1       4.1       7.9
 1 C  pz              4.6       4.9       0.4       1.4       1.1       7.4
 1 C  px              0.2       0.0       4.7       0.6       3.8       1.1
 1 C  py              2.0       1.2       0.1       8.8       3.3       9.3
 1 C  dz2             0.2       0.1       0.1       0.1       1.5       0.5
 1 C  dxz             0.0       0.1       1.4       0.1       0.5       0.8
 1 C  dyz             0.0       0.0       0.0       0.9       0.4       1.8
 1 C  dx2y2           0.5       0.1       0.6       0.4       0.0       0.1
 1 C  dxy             0.1       0.0       0.0       1.4       0.1       0.3
 2 C  s               2.1       8.2       1.7       0.2       1.7       7.7
 2 C  pz              0.2       1.3       3.1       0.4       5.4      13.2
 2 C  px              4.0       2.7       7.0       6.5       2.8       6.9
 2 C  py              5.4       0.9       1.2       0.4      15.9       0.5
 2 C  dz2             0.0       0.2       0.1       0.0       0.1       0.1
 2 C  dxz             0.4       0.5       0.0       0.3       0.3       1.9
 2 C  dyz             0.1       0.3       1.3       0.1       3.7       0.0
 2 C  dx2y2           0.2       0.1       0.0       0.1       0.7       0.1
 2 C  dxy             0.2       0.0       0.0       0.2       0.4       4.0
 3 O  s               0.2       0.7       0.1       0.0       2.3       1.0
 3 O  pz              0.1       3.2       0.0       0.0       1.1       0.1
 3 O  px              1.4       0.1       0.0       0.0       1.8       0.7
 3 O  py              0.6       0.1       2.0       0.2      10.1       1.0
 3 O  dz2             0.0       0.0       0.0       0.0       0.0       0.2
 3 O  dxz             0.1       0.0       0.0       0.0       0.1       0.2
 3 O  dyz             0.0       0.2       0.0       0.0       0.3       0.0
 4 O  s               0.7       0.1       0.0       0.4       0.6       0.4
 4 O  pz              0.9       0.3       0.3       0.1       0.1       1.8
 4 O  px              0.0       1.0       0.2       0.1       0.2       0.2
 4 O  py              2.5       0.3       0.6       6.9       2.3       0.1
 4 O  dxz             0.0       0.0       0.0       0.0       0.1       0.1
 4 O  dyz             0.0       0.1       0.1       0.2       0.0       0.2
 4 O  dx2y2           0.0       0.0       0.0       0.0       0.1       0.1
 5 O  s               0.1       0.6       0.0       1.8       0.1       1.5
 5 O  pz              0.4       0.0       0.7       0.0       0.5       0.6
 5 O  px              0.1       0.1       0.1       3.1       0.2       1.3
 5 O  py              0.2       0.1       0.1      11.3       1.7       1.7
 5 O  dyz             0.0       0.0       0.1       0.0       0.2       0.0
 5 O  dx2y2           0.0       0.0       0.0       0.5       0.1       0.1
 6 H  s               1.6       3.2      17.4       0.2       4.2       1.5
 7 H  s               1.6       9.1      11.0       1.9       1.3       0.3
 8 H  s              21.4      21.0       2.5       0.9       5.8       2.1
 9 H  s              25.7      15.1       2.3       6.0       0.0       1.1
10 H  s               0.2       7.4      19.6       3.5       0.9       1.7
11 H  s               4.2       3.3       4.2       0.3       4.8       0.1
12 H  s               9.9       1.4       0.5       5.9       0.3       0.2
13 H  s               0.1       1.0       0.1       5.4       0.6       0.3

                     36        37        38        39        40        41   
                   0.24286   0.25119   0.42485   0.43538   0.46172   0.49225
                   0.00000   0.00000   0.00000   0.00000   0.00000   0.00000
                  --------  --------  --------  --------  --------  --------
 0 C  s               2.0       4.0       1.0       9.0       4.0       0.0
 0 C  pz              0.3       3.7       9.9       3.4       2.3       0.0
 0 C  px             10.4       5.9       0.4      11.6       6.4      14.9
 0 C  py              2.5       7.5       0.7      16.0      11.6      11.3
 0 C  dz2             0.7       1.9       3.0       1.1       0.7       0.0
 0 C  dxz             0.1       1.2       0.8       1.6       1.0       0.1
 0 C  dyz             0.1       0.3       0.5       0.5       0.2       0.0
 0 C  dx2y2           2.4       0.0       0.4       0.5       0.0       0.3
 0 C  dxy             1.4       0.2       0.4       0.1       0.1       0.1
 1 C  s              13.0       1.4       0.1       0.4       1.6       3.0
 1 C  pz              5.6       0.6       2.4       0.7       1.4       0.1
 1 C  px              3.4      21.2       8.2       9.1       0.3       0.5
 1 C  py             10.3       3.8       0.1       0.7       0.4      11.6
 1 C  dz2             0.8       0.1       0.3       1.8       1.3       0.0
 1 C  dxz             0.0       1.4       2.7       0.2       0.3       0.0
 1 C  dyz             0.5       0.1       0.2       0.0       0.0       0.1
 1 C  dx2y2           0.1       2.4       0.0       0.6       0.3       1.2
 1 C  dxy             1.1       0.9       0.6       0.0       0.0       0.2
 2 C  s               1.1       1.0       6.6       0.5       6.7       1.1
 2 C  pz              3.5       6.2      20.8       0.9       9.4       0.2
 2 C  px              1.3       1.1       9.2       3.9       4.4       1.6
 2 C  py              8.0       2.6       0.0       1.8      17.7      13.2
 2 C  dz2             0.7       0.0       0.4       2.6       0.1       0.2
 2 C  dxz             0.0       0.1       1.2       0.8       0.1       0.5
 2 C  dyz             1.8       0.4       0.1       0.2       0.4       0.1
 2 C  dx2y2           0.3       0.6       0.1       0.3       0.0       0.5
 2 C  dxy             0.0       0.9       1.6       0.1       0.0       0.2
 3 O  s               1.0       0.3       0.1       0.1       0.3       0.1
 3 O  pz              1.2       0.3       0.8       0.4       1.4       0.1
 3 O  px              0.3       0.7       0.1       0.6       0.5       0.4
 3 O  py              3.6       0.5       1.1       0.6       2.6       1.2
 3 O  dz2             0.0       0.2       0.0       0.0       0.0       0.0
 3 O  dxz             0.1       0.0       0.0       0.2       0.2       0.1
 3 O  dyz             0.4       0.0       0.3       0.3       1.2       0.6
 3 O  dx2y2           0.0       0.1       0.1       0.1       0.3       0.2
 3 O  dxy             0.0       0.1       0.0       0.2       0.3       0.0
 4 O  s               2.1       1.8       0.2       0.1       0.1       0.4
 4 O  pz              0.3       0.2       0.0       0.0       1.5       0.9
 4 O  px              0.8       1.6       0.1       0.3       0.1       0.5
 4 O  py              8.0       3.9       0.1       0.0       0.0       4.0
 4 O  dz2             0.1       0.1       0.0       0.0       0.0       0.3
 4 O  dxz             0.0       0.0       0.0       0.1       0.0       0.5
 4 O  dyz             0.1       0.1       0.0       0.1       0.0       1.1
 4 O  dx2y2           0.5       0.6       0.0       0.0       0.0       0.1
 4 O  dxy             0.7       0.1       0.0       0.0       0.0       1.3
 5 O  s               0.1       1.0       0.1       0.1       0.0       1.2
 5 O  pz              0.1       0.0       2.0       0.1       0.7       0.1
 5 O  px              0.3       0.8       0.8       0.0       0.5       1.2
 5 O  py              0.2       3.4       0.2       4.2       1.2       0.9
 5 O  dz2             0.0       0.0       0.0       0.2       0.1       0.1
 5 O  dyz             0.0       0.0       0.0       0.2       0.2       0.0
 5 O  dx2y2           0.1       0.4       0.1       0.7       0.7       0.1
 5 O  dxy             0.4       0.3       0.1       0.1       0.2       0.2
 6 H  s               1.9       2.0       8.7       2.0       4.8       0.1
 7 H  s               0.7       1.1       4.8       5.8       2.2       0.8
 8 H  s               1.4       0.4       2.1       1.2       6.2       0.4
 9 H  s               0.2       3.5       3.8       2.5       0.0       3.9
10 H  s               0.5       5.8       1.9       6.6       2.5       0.5
11 H  s               1.4       0.7       0.3       3.5       0.3       1.5
12 H  s               0.3       0.5       0.2       1.2       0.1      15.8
13 H  s               1.6       0.1       0.1       0.2       0.9       0.4

                     42        43        44        45        46        47   
                   0.50827   0.54019   0.54660   0.56510   0.57297   0.60717
                   0.00000   0.00000   0.00000   0.00000   0.00000   0.00000
                  --------  --------  --------  --------  --------  --------
 0 C  s               0.8       0.5       1.1       3.3       8.0       0.4
 0 C  pz              0.0       3.7       1.1       1.6       0.4       5.5
 0 C  px             10.7       7.4       0.7       8.3       1.8       0.5
 0 C  py              1.8       0.7      14.9       0.8       2.6       0.7
 0 C  dz2             0.0       0.2       0.0       0.5       0.1       0.1
 0 C  dxz             0.0       0.2       0.5       0.2       0.1       0.8
 0 C  dyz             0.0       0.4       0.2       0.0       0.0       0.0
 0 C  dx2y2           0.0       0.0       0.2       0.0       0.1       0.0
 0 C  dxy             0.9       0.5       0.2       0.0       0.6       0.0
 1 C  s               0.6      17.9       1.3       8.8       0.7       0.8
 1 C  pz              0.1       0.7       1.9       0.9       0.0       9.5
 1 C  px              2.6       0.0      11.2       5.9       3.4       7.5
 1 C  py             37.7       4.5       0.3       0.4       4.0       9.1
 1 C  dz2             0.1       0.2       0.3       0.6       0.2       0.8
 1 C  dxz             0.0       0.1       0.7       0.0       0.1       0.1
 1 C  dyz             0.3       1.9       0.0       0.2       0.0       0.7
 1 C  dx2y2           0.0       0.0       0.0       0.0       0.2       0.0
 1 C  dxy             0.2       0.0       0.0       0.1       0.0       0.1
 2 C  s               0.6       1.8       8.3       7.0       1.1       2.9
 2 C  pz              4.4       6.3       2.7       1.7       0.3       3.4
 2 C  px              1.8       1.6       0.1       1.5       8.0      10.1
 2 C  py              6.0      14.2       0.5       0.6       2.6       5.4
 2 C  dz2             0.2       0.4       0.3       0.7       0.5       0.0
 2 C  dxz             0.0       1.1       0.3       0.0       0.7       1.2
 2 C  dyz             0.3       0.1       0.2       0.2       0.1       0.0
 2 C  dx2y2           0.0       0.0       0.0       0.2       0.1       0.0
 2 C  dxy             0.4       0.1       0.0       0.1       0.7       0.2
 3 O  s               0.6       0.0       0.2       1.2       0.2       0.1
 3 O  pz              0.6       2.7       1.2       4.6       0.9       1.1
 3 O  px              0.7       0.5       0.2       2.0       0.4       0.2
 3 O  py              0.1       0.2       0.2       1.8       0.7       2.4
 3 O  dxz             0.0       0.0       0.1       0.9       0.0       0.0
 3 O  dyz             0.0       0.0       0.0       1.1       0.2       0.1
 3 O  dxy             0.7       0.0       0.6       0.8       0.1       0.3
 4 O  s               0.3       0.1       0.4       1.6       0.1       0.1
 4 O  pz              0.2       0.3       0.6       0.1       0.9       0.4
 4 O  px              0.1       0.5       4.2       0.7       2.8       0.4
 4 O  py              1.5       0.3       1.8       0.4       0.5       1.7
 4 O  dz2             0.3       0.5       0.0       0.0       0.0       0.0
 4 O  dxz             0.0       0.1       0.7       0.1       0.3       0.0
 4 O  dyz             0.0       0.1       0.6       0.5       0.3       0.4
 4 O  dx2y2           1.1       0.3       0.0       0.0       0.1       0.0
 4 O  dxy             0.0       0.0       0.1       0.1       0.2       0.0
 5 O  s               0.5       0.3       0.7       0.0       0.3       0.0
 5 O  pz              0.1       3.1       0.7       0.3       0.1       0.9
 5 O  px              1.3       0.9       1.4       0.5       4.2       0.2
 5 O  py              1.1       0.8       0.9       0.0       0.6       0.0
 5 O  dz2             0.1       0.1       1.0       0.0       0.1       0.0
 5 O  dxz             0.4       0.1       0.2       0.0       0.3       0.0
 5 O  dx2y2           1.4       0.7       0.2       0.0       0.9       0.0
 5 O  dxy             0.1       0.0       0.3       0.0       0.1       0.0
 6 H  s               0.1       1.9       0.1       2.2       3.4       0.3
 7 H  s               1.1       1.9       1.4       0.8       3.8       7.2
 8 H  s               0.3       0.7       0.6       0.6       4.9       4.4
 9 H  s               0.7       0.3       0.0       0.1       8.2       8.5
10 H  s               0.3       8.1       0.6       2.1       2.3       1.9
11 H  s               3.9       0.4       6.9      28.1       2.6       5.0
12 H  s               0.6       2.7      13.0       5.3       9.1       4.4
13 H  s              12.1       7.6      13.8       0.3      14.8       0.0

                     48        49        50        51        52        53   
                   0.62873   0.63787   0.64205   0.65400   0.66646   0.67218
                   0.00000   0.00000   0.00000   0.00000   0.00000   0.00000
                  --------  --------  --------  --------  --------  --------
 0 C  s               0.4      30.5       0.9       0.5       2.8       2.4
 0 C  pz             23.8       1.6       2.9       2.4       6.7      11.7
 0 C  px              0.1       5.2       3.8       0.5       4.9       2.4
 0 C  py              0.1       6.4       1.6       2.9      10.1       0.3
 0 C  dz2             1.1       0.1       0.4       0.0       0.0       0.0
 0 C  dxz             0.0       0.0       0.1       0.0       0.2       0.1
 0 C  dyz             0.2       0.4       3.1       0.1       0.0       0.0
 0 C  dx2y2           0.0       0.0       0.2       0.0       0.1       0.0
 0 C  dxy             0.0       0.0       0.8       0.3       0.0       0.1
 1 C  s               0.7       2.9       5.9       4.5       0.1       1.6
 1 C  pz             10.3       1.5       8.0       8.7      10.7       1.5
 1 C  px              5.4       0.1       5.4       5.6       0.3       0.5
 1 C  py              0.1       0.5       0.3       0.7       0.9       1.4
 1 C  dz2             0.7       0.0       0.1       1.2       0.1       0.4
 1 C  dxz             0.1       0.0       0.4       0.0       0.0       0.1
 1 C  dyz             0.0       0.1       0.3       0.6       0.0       0.1
 2 C  s               2.9       1.8       0.3       3.0      12.9       4.0
 2 C  pz              0.3       4.2       5.1       2.3      19.4       1.9
 2 C  px              2.1       4.3       1.0       8.3       0.7      14.2
 2 C  py              0.0       0.7       2.8       4.7       1.5       4.2
 2 C  dz2             0.1       0.0       1.2       0.1       0.2       0.0
 2 C  dxz             0.0       0.0       0.1       1.0       0.7       0.2
 2 C  dyz             0.0       0.0       0.5       0.4       0.0       0.1
 2 C  dx2y2           0.1       0.1       0.1       0.0       0.2       0.1
 2 C  dxy             0.1       0.0       0.3       0.1       0.1       0.5
 3 O  s               1.3       0.0       0.1       0.2       0.4       0.8
 3 O  pz              0.0       0.2       0.0       0.6       0.7       0.5
 3 O  px              0.2       2.6       1.9       0.3       0.3       0.9
 3 O  py              0.1       0.3       0.0       0.0       1.5       0.2
 3 O  dyz             0.1       0.1       0.0       0.0       0.1       0.1
 3 O  dxy             0.0       0.0       0.0       0.0       0.4       0.1
 4 O  s               0.9       1.5       1.2       0.3       0.3       0.1
 4 O  pz              1.2       0.7       2.3       2.4       1.2       2.0
 4 O  px              0.2       0.8       0.5       0.1       0.1       0.3
 4 O  py              0.2       0.0       0.1       0.4       0.0       0.1
 4 O  dxz             0.0       0.0       0.2       0.1       0.0       0.3
 4 O  dxy             0.0       0.0       0.0       0.2       0.0       0.1
 5 O  s               0.8       1.9       1.1       0.5       0.2       0.1
 5 O  pz              0.4       2.5       2.5       0.3       0.1       1.0
 5 O  px              1.2       6.2       0.8       0.3       0.1       3.5
 5 O  py              0.0       0.1       1.1       0.1       0.0       1.6
 5 O  dz2             0.0       0.2       0.2       0.0       0.0       0.0
 5 O  dxz             0.0       0.2       0.1       0.0       0.0       0.0
 5 O  dyz             0.0       0.0       0.2       0.0       0.0       0.0
 5 O  dx2y2           0.0       0.4       0.1       0.0       0.0       0.0
 5 O  dxy             0.0       0.3       0.0       0.0       0.0       0.0
 6 H  s              25.2       3.7       0.8       2.2       0.1       2.5
 7 H  s               0.7       0.6      22.5       5.7       4.2       1.0
 8 H  s              14.8       0.0       0.1      19.8       0.3       3.4
 9 H  s               2.4       0.3       1.5       8.9       0.7      18.2
10 H  s               0.3       0.4      12.9       4.4      10.8       4.5
11 H  s               1.0       2.5       0.1       0.8       4.6       4.2
12 H  s               0.1       0.0       0.7       4.0       0.7       6.2
13 H  s               0.0      13.5       3.2       0.1       0.2       0.1

                     54        55        56        57        58        59   
                   0.70932   0.72255   0.78758   0.86462   0.95457   0.96710
                   0.00000   0.00000   0.00000   0.00000   0.00000   0.00000
                  --------  --------  --------  --------  --------  --------
 0 C  s               4.7       0.1      23.2       2.1       0.1       0.2
 0 C  pz             12.1       0.4       1.2       2.8       0.1       0.9
 0 C  px              0.7       0.9       6.0       2.2       0.6       0.3
 0 C  py              0.2       1.2       0.9       0.7       0.1       0.3
 0 C  dz2             0.0       0.0       0.4       0.0       0.5       0.5
 0 C  dxz             0.2       0.8       0.0       0.8       0.8       0.3
 0 C  dyz             0.3       0.7       0.4       0.0       0.3       0.0
 0 C  dx2y2           0.1       0.1       0.1       0.0       0.1       0.2
 0 C  dxy             0.0       0.3       0.0       0.2       0.0       0.0
 1 C  s               0.1       5.1       2.6      23.0       0.3       0.1
 1 C  pz              7.0      18.5       2.8       0.3       0.7       0.1
 1 C  px             18.1       1.1       2.8       2.9       0.1       0.7
 1 C  py              0.3       5.5       1.0       0.4       0.2       0.0
 1 C  dz2             0.3       0.7       0.4       0.1       1.3       0.0
 1 C  dxz             0.1       0.2       0.2       0.5       0.4       0.2
 1 C  dyz             0.0       0.0       0.1       0.3       0.4       0.1
 1 C  dx2y2           0.1       0.0       0.1       1.8       0.0       0.0
 1 C  dxy             0.2       0.0       0.0       0.0       0.0       0.0
 2 C  s               0.5      12.4       3.6      12.4       0.2       0.6
 2 C  pz              6.7       1.8       1.7       0.5       0.1       0.1
 2 C  px              7.1       2.5       1.7       0.1       0.1       0.8
 2 C  py              4.7       9.7       0.1       0.0       0.0       1.9
 2 C  dz2             0.0       0.9       0.5       0.3       0.2       0.0
 2 C  dxz             0.4       0.1       0.3       0.0       0.3       0.3
 2 C  dyz             0.0       0.2       0.0       0.0       0.2       0.5
 2 C  dx2y2           0.9       0.0       0.1       2.3       0.0       0.1
 2 C  dxy             1.2       0.3       0.1       0.0       0.2       0.0
 3 O  s               0.6       2.5       3.3       2.5       1.6      12.6
 3 O  pz              0.1       3.5       0.5       5.7       0.6      22.1
 3 O  px             11.0       0.6       1.0       0.3       1.7       0.2
 3 O  py              1.7       2.7       0.6       2.9       1.2       7.2
 3 O  dxz             0.3       0.0       0.0       0.3       0.0       0.1
 3 O  dyz             0.0       0.0       0.0       0.0       0.1       0.1
 4 O  s               0.3       0.1       0.3       5.0       9.5       0.9
 4 O  pz              2.5       0.2       4.2       6.7      21.6       0.6
 4 O  px              1.6       2.0       9.8       0.2       0.2       3.4
 4 O  py              0.1       2.0       0.1       0.8      16.5       0.2
 4 O  dz2             0.0       0.0       0.0       0.2       0.1       0.0
 4 O  dxz             0.0       0.0       0.0       0.2       0.1       0.0
 4 O  dyz             0.0       0.3       0.0       0.0       0.1       0.0
[...]
 0 C  py              0.0       0.1       0.0       0.1       0.1       0.0
 0 C  dz2             0.0       0.8       0.0       0.0       0.6       0.0
 0 C  dxz             0.1       0.4       0.1       0.2       0.1       0.1
 0 C  dyz             0.3       7.7       0.4       0.0       0.1       0.1
 0 C  dx2y2           0.0       1.9       0.1       0.0       0.1       0.1
 0 C  dxy             0.1       0.8       0.0       1.8       0.4       0.4
 1 C  s               0.0       0.0       0.0       0.0       0.1       0.1
 1 C  pz              0.6       0.0       0.1       0.2       0.1       0.0
 1 C  px              0.0       0.0       0.0       0.2       0.1       0.0
 1 C  py              0.0       0.0       0.0       0.1       0.1       0.2
 1 C  dz2             0.7       0.1       0.6       0.3       0.1       0.1
 1 C  dxz             1.0       0.2       0.0       0.0       0.9       0.0
 1 C  dyz             1.5       0.9       0.1       3.4       0.9       0.1
 1 C  dx2y2           1.1       0.6       0.1       0.7       0.0       0.0
 1 C  dxy             0.0       1.1       0.0       6.7       0.0       0.0
 2 C  pz              0.3       0.1       0.0       0.0       0.0       0.1
 2 C  px              0.0       0.0       0.6       0.0       0.0       0.0
 2 C  py              0.0       0.0       0.1       0.0       0.0       0.0
 2 C  dz2             3.7       0.0       0.2       0.1       0.0       1.8
 2 C  dxz             0.0       0.0       4.2       0.0       0.0       0.1
 2 C  dyz             0.7       0.1       0.1       0.0       0.0       0.3
 2 C  dx2y2           2.6       0.3       2.7       0.0       0.2       0.1
 2 C  dxy             1.5       0.6       4.9       0.0       0.1       0.1
 3 O  s               0.1       0.0       0.0       0.2       0.0       2.4
 3 O  pz              0.6       0.0       0.0       0.1       0.0       0.5
 3 O  px              0.1       0.0       1.0       0.0       0.0       0.1
 3 O  py              0.6       0.0       0.0       0.0       0.1       0.1
 3 O  dz2            38.7       0.2       0.8       0.9       0.4       1.2
 3 O  dxz             2.6       1.1      37.9       0.9       0.3       7.1
 3 O  dyz             0.0       0.6       0.4       0.2       0.3       8.6
 3 O  dx2y2           1.0       1.0      26.8       0.2       0.0       4.4
 3 O  dxy             3.3       1.3      13.3       1.5       0.6      42.7
 4 O  s               0.2       0.1       0.0       0.3       1.5       0.1
 4 O  pz              0.7       0.1       0.1       0.1       0.1       0.1
 4 O  px              0.2       0.1       0.0       0.8       0.3       0.1
 4 O  py              0.2       0.0       0.1       0.0       0.0       0.1
 4 O  dz2             3.8       0.1       0.1       4.6       2.3       0.0
 4 O  dxz            21.2       6.8       1.7       4.4       9.3       3.1
 4 O  dyz             3.0       0.1       0.3      28.4      15.6       2.6
 4 O  dx2y2           0.3       0.2       0.5       1.7       8.0       0.1
 4 O  dxy             1.5       0.4       0.1      20.4       2.6       3.4
 5 O  s               0.0       0.0       0.0       0.3       1.6       0.4
 5 O  pz              0.1       0.6       0.0       0.0       0.1       0.0
 5 O  px              0.0       0.1       0.0       0.8       0.7       0.0
 5 O  dz2             0.2       9.0       0.3       4.3      17.0       3.4
 5 O  dxz             0.1       3.6       0.4       7.3       6.8       0.9
 5 O  dyz             4.6      45.7       1.2       0.0       0.6       0.0
 5 O  dx2y2           0.7       7.6       0.4       4.7       9.9       3.8
 5 O  dxy             0.0       4.5       0.0       1.2      11.0       3.9
 9 H  s               0.0       0.0       0.1       0.0       0.0       0.0
11 H  s               0.7       0.0       0.2       0.3       0.2       5.2
12 H  s               0.9       0.2       0.1       0.5       2.8       0.9
13 H  s               0.0       0.0       0.0       1.5       3.8       0.8

                     96        97        98        99   
                   2.96932   3.26733   3.27946   3.32710
                   0.00000   0.00000   0.00000   0.00000
                  --------  --------  --------  --------
 0 C  s               0.1       0.7       1.4       0.3
 0 C  px              0.1       0.0       0.3       0.1
 0 C  py              0.3       0.7       1.9       0.7
 0 C  dz2             0.0       0.4       1.1       0.1
 0 C  dxz             0.4       0.1       0.1       0.0
 0 C  dyz             0.9       0.1       0.5       0.5
 0 C  dx2y2           0.2       1.3       4.6       1.6
 0 C  dxy             2.2       1.1       1.2       0.0
 1 C  s               0.0       1.1       0.0       1.1
 1 C  px              0.3       0.1       0.1       0.2
 1 C  py              0.0       0.8       0.0       3.1
 1 C  dz2             0.2       1.5       0.0       1.0
 1 C  dxz             1.7       0.0       0.0       0.0
 1 C  dyz             0.0       0.1       0.0       1.9
 1 C  dx2y2           0.3       2.2       0.2       4.9
 1 C  dxy             4.2       0.9       1.7       1.5
 2 C  s               0.1       1.2       0.9       0.2
 2 C  pz              0.2       0.5       0.4       0.1
 2 C  px              0.1       0.1       0.2       0.1
 2 C  py              0.1       0.8       1.0       0.8
 2 C  dz2             1.8       0.0       0.0       0.2
 2 C  dxz             0.2       0.5       0.6       0.3
 2 C  dyz             0.3       1.8       2.8       2.4
 2 C  dx2y2           0.3       1.6       0.9       0.2
 2 C  dxy             0.1       1.0       0.3       0.0
 3 O  s               0.7       1.4       1.2       1.0
 3 O  pz              0.0       0.3       0.2       0.1
 3 O  px              0.0       0.3       0.2       0.3
 3 O  py              0.0       1.3       1.3       0.8
 3 O  dz2             2.7       0.2       0.1       0.3
 3 O  dxz             0.3       2.7       2.7       1.3
 3 O  dyz             0.6      20.3      19.1       7.9
 3 O  dx2y2           3.2       5.3       4.8       1.9
 3 O  dxy            11.3       1.7       1.2       2.4
 4 O  s               0.8       0.9       0.0       3.5
 4 O  pz              0.3       0.0       0.0       0.0
 4 O  py              0.0       1.5       0.0       3.1
 4 O  dz2             0.2       3.3       0.0       8.1
 4 O  dxz             4.1       0.0       0.1       0.1
 4 O  dyz             4.9       6.4       0.0       4.3
 4 O  dx2y2           8.7      10.9       0.7      20.6
 4 O  dxy            19.3       3.9       0.9       9.5
 5 O  s               1.0       0.8       1.9       0.8
 5 O  px              0.0       0.3       0.6       0.4
 5 O  py              0.1       0.9       2.0       0.5
 5 O  dz2             5.6       2.4       5.1       2.0
 5 O  dxz             1.3       0.3       0.6       0.2
 5 O  dyz             0.2       2.3       4.7       0.6
 5 O  dx2y2           1.6      12.2      28.3       4.8
 5 O  dxy            14.5       0.6       3.1       3.2
11 H  s               0.8       0.4       0.4       0.1
12 H  s               2.4       0.3       0.0       0.4
13 H  s               1.1       0.3       0.6       0.1


                      *****************************
                      * MAYER POPULATION ANALYSIS *
                      *****************************

  NA   - Mulliken gross atomic population
  ZA   - Total nuclear charge
  QA   - Mulliken gross atomic charge
  VA   - Mayer's total valence
  BVA  - Mayer's bonded valence
  FA   - Mayer's free valence

  ATOM       NA         ZA         QA         VA         BVA        FA
  0 C      6.0061     6.0000    -0.0061     4.0364     4.0364    -0.0000
  1 C      5.9949     6.0000     0.0051     4.0771     4.0771    -0.0000
  2 C      5.9619     6.0000     0.0381     3.9723     3.9723    -0.0000
  3 O      8.4326     8.0000    -0.4326     1.9971     1.9971    -0.0000
  4 O      8.4259     8.0000    -0.4259     2.0005     2.0005     0.0000
  5 O      8.4242     8.0000    -0.4242     1.9915     1.9915     0.0000
  6 H      0.9309     1.0000     0.0691     0.9565     0.9565     0.0000
  7 H      0.9434     1.0000     0.0566     0.9532     0.9532     0.0000
  8 H      0.9174     1.0000     0.0826     0.9761     0.9761    -0.0000
  9 H      0.9231     1.0000     0.0769     0.9701     0.9701    -0.0000
 10 H      0.9345     1.0000     0.0655     0.9586     0.9586     0.0000
 11 H      0.7040     1.0000     0.2960     0.8821     0.8821    -0.0000
 12 H      0.7013     1.0000     0.2987     0.8836     0.8836    -0.0000
 13 H      0.6996     1.0000     0.3004     0.8790     0.8790     0.0000

  Mayer bond orders larger than 0.100000
B(  0-C ,  1-C ) :   1.0670 B(  0-C ,  5-O ) :   1.0943 B(  0-C ,  6-H ) :   0.9047 
B(  0-C ,  7-H ) :   0.9183 B(  1-C ,  2-C ) :   1.0333 B(  1-C ,  4-O ) :   1.0629 
B(  1-C ,  8-H ) :   0.9078 B(  2-C ,  3-O ) :   1.0943 B(  2-C ,  9-H ) :   0.9188 
B(  2-C , 10-H ) :   0.9174 B(  3-O , 11-H ) :   0.8525 B(  4-O , 12-H ) :   0.8503 
B(  5-O , 13-H ) :   0.8511 

-------
TIMINGS
-------

Total SCF time: 0 days 0 hours 0 min 4 sec 

Total time                  ....       4.784 sec
Sum of individual times     ....       4.350 sec  ( 90.9%)

SCF preparation             ....       0.171 sec  (  3.6%)
Fock matrix formation       ....       3.586 sec  ( 74.9%)
  Startup                   ....       0.072 sec  (  2.0% of F)
  Split-RI-J                ....       0.964 sec  ( 26.9% of F)
  XC integration            ....       2.042 sec  ( 57.0% of F)
    XC Preparation          ....       0.000 sec  (  0.0% of XC)
    Basis function eval.    ....       0.677 sec  ( 33.2% of XC)
    Density eval.           ....       0.215 sec  ( 10.5% of XC)
    XC-Functional eval.     ....       0.211 sec  ( 10.3% of XC)
    XC-Potential eval.      ....       0.377 sec  ( 18.4% of XC)
Diagonalization             ....       0.000 sec  (  0.0%)
Density matrix formation    ....       0.164 sec  (  3.4%)
Total Energy calculation    ....       0.030 sec  (  0.6%)
Population analysis         ....       0.050 sec  (  1.1%)
Orbital Transformation      ....       0.047 sec  (  1.0%)
Orbital Orthonormalization  ....       0.000 sec  (  0.0%)
DIIS solution               ....       0.234 sec  (  4.9%)
  MO trafo                  ....       0.000 sec  (  0.0 % of DIIS)
  Orb grad                  ....       0.000 sec  (  0.0 % of DIIS)
  Energy W gradient         ....       0.000 sec  (  0.0 % of DIIS)
  DIIS error                ....       0.001 sec  (  0.6 % of DIIS)
  DIIS work                 ....       0.182 sec  ( 77.9 % of DIIS)
  Form Q                    ....       0.000 sec  (  0.0 % of DIIS)
  Form QpQm                 ....       0.000 sec  (  0.0 % of DIIS)
  Exp/Cayley                ....       0.000 sec  (  0.0 % of DIIS)
  Orb update                ....       0.000 sec  (  0.0 % of DIIS)
  Wake-sleep                ....       0.022 sec  (  9.4 % of DIIS)
SOSCF solution              ....       0.067 sec  (  1.4%)
  MO trafo                  ....       0.038 sec  ( 57.1 % of SOSCF)
  Orb grad                  ....       0.001 sec  (  1.7 % of SOSCF)
  Rot update                ....       0.013 sec  ( 19.9 % of SOSCF)
  Step                      ....       0.014 sec  ( 21.2 % of SOSCF)
Finished LeanSCF after   4.8 sec

Maximum memory used throughout the entire LEANSCF-calculation: 9.4 MB


-------------------------------------------------------------------------------
                          DFT DISPERSION CORRECTION                            
                                                                               
                                DFTD4 V3.4.0                                   
-------------------------------------------------------------------------------
The PBE functional is recognized
Active option DFTDOPT                   ...         5   

-------------------------   ----------------
Dispersion correction           -0.009050366
-------------------------   ----------------

------------------   -----------------
gCP correction             0.081491326
------------------   -----------------

-------------------------   --------------------
FINAL SINGLE POINT ENERGY      -343.998198284228
-------------------------   --------------------


------------------------------------------------------------------------------
                              ORCA PROPERTY CALCULATIONS
------------------------------------------------------------------------------

GBWName                                 ... sp.gbw
Number of atoms                         ...     14
Number of basis functions               ...    100
Max core memory                         ...   1024 MB

Electric properties:
Dipole moment                           ... YES
Quadrupole moment                       ...  NO
Static polarizability (Dipole/Dipole)   ...  NO
Static polarizability (Dipole/Quad.)    ...  NO
Static polarizability (Quad./Quad.)     ...  NO
Static polarizability (Velocity)        ...  NO

Atomic electric properties:
Dipole moment                           ...  NO
Quadrupole moment                       ...  NO
Static polarizability                   ...  NO

Choice of electric origin               ... Center of mass
Position of electric origin             ...    -0.000004     0.000008    -0.000007

General magnetic properties:
Magnetizability                         ...  NO

EPR properties:
g-Tensor (aka g-matrix)                 ...  NO
Zero-Field splitting spin-orbit         ...  NO
Zero-field splitting spin-spin          ...  NO
Hyperfine couplings                     ...  NO (   0 nuclei)
Quadrupole couplings                    ...  NO (   0 nuclei)
Contact density                         ...  NO (   0 nuclei)

NMR properties:
Chemical shifts                         ...  NO (   0 nuclei)
Spin-rotation constants                 ...  NO (   0 nuclei)
Spin-spin couplings                     ...  NO (   0 nuclei,    0 pairs)

Choice of magnetic origin               ... GIAO
Position of magnetic origin             ...     0.000000     0.000000     0.000000

Properties with geometric perturbations:
SCF Hessian                             ...  NO
IR spectrum                             ...  NO
VCD spectrum                            ...  NO
X-ray spectroscopy properties:
SCF XES/XAS/RIXS spectra                ...  NO


-------------
DIPOLE MOMENT
-------------

Method             : SCF
Type of density    : Electron Density
Multiplicity       :   1
Irrep              :   0
Energy             :  -344.0706392443022423 Eh
Relativity type    : 
Basis              : AO
                                X                 Y                 Z
Electronic contribution:      0.622078147      -0.607237095       1.010663474
Nuclear contribution   :     -1.289753223       0.758380910      -1.353012188
                        -----------------------------------------
Total Dipole Moment    :     -0.667675076       0.151143815      -0.342348714
                        -----------------------------------------
Magnitude (a.u.)       :      0.765399962
Magnitude (Debye)      :      1.945492093



--------------------
Rotational spectrum 
--------------------
 
Rotational constants in cm-1:             0.120486             0.111542             0.063248 
Rotational constants in MHz :          3612.080591          3343.947019          1896.134722 

Dipole components along the rotational axes: 
x,y,z [a.u.] :    -0.675737    -0.025416    -0.358568 
x,y,z [Debye]:    -1.717586    -0.064602    -0.911408 

 

Dipole moment calculation done in   0.0 sec 

Maximum memory used throughout the entire PROP-calculation: 6.0 MB

--------------------------------
SUGGESTED CITATIONS FOR THIS RUN
--------------------------------

Below you find a list of papers that are relevant to this ORCA run
We neither can nor want to force you to cite these papers, but we appreciate if you do
You receive ORCA, which is the product of decades of hard work by many enthusiastic individuals, for free
The only thing we kindly ask in return is that you cite our papers,
We deeply appreciate it, if you show your appreciation for ORCA by not just citing the generic ORCA reference.

Please note that relegating all ORCA citations to the supporting information does *not* help us.
SI sections are not indexed - citations you put there will not count into any citation statistics
But we need these citations in order to attract the funding resources that allow us to do what we are doing

Therefore, if you are a happy ORCA user, please consider citing a few of the papers listed below in the main body of your paper

In addition to the list printed below, the program has created the file sp.bibtex that contains the list in bibtex format
You can import this file easily into all common literature databanks and citation aid programs


List of essential papers. We consider these as the minimum necessary citations

  1. Neese,F.
     Software update: the ORCA program system, version 5.0
     WIRES Comput. Molec. Sci., 2022 12(1)e1606
     doi.org/10.1002/wcms.1606

List of papers to cite with high priority. The work reported in these papers was absolutely
necessary for this run to complete.
Our perspective: the developers of density functionals and basis sets usually get cited in chemistry papers
Good! But without the algorithms to do something with them, the functionals or basis sets would not do anything.
Hence, in our opinion, the algorithm design and method developments papers are equally worthy of getting cited

  1. Neese,F.
     An improvement of the resolution of the identity approximation for the formation of the Coulomb matrix
     J. Comp. Chem., 2003 24(14)1740-1747
     doi.org/10.1002/jcc.10318
  2. Neese,F.
     The SHARK Integral Generation and Digestion System
     J. Comp. Chem., 2022  1-16
     doi.org/10.1002/jcc.26942
  3. Caldeweyher,E.; Bannwarth,C.; Grimme,S.
     Extension of the D3 dispersion coefficient model
     J. Chem. Phys., 2017 147 034112-XXXX
     doi.org/10.1063/1.4993215
  4. Caldeweyher,E.; Ehlert,S.; Hansen,A.; Neugebauer,H.; Spicher,S.; Bannwarth,C.; Grimme,S.
     A generally applicable atomic-charge dependent London dispersion correction
     J. Chem. Phys., 2019 150 154122-XXXX
     doi.org/10.1063/1.5090222
  5. Caldeweyher,E.; Mewes,J.; Ehlert,S.; Grimme,S.
     Extension and evaluation of the D4 London-dispersion model for periodic systems
     Phys. Chem. Chem. Phys., 2020 22(16)8499-8512
     doi.org/10.1039/D0CP00502A

List of suggested additional citations. These are papers that are important in the 'surrounding' of 
of this run, or papers that preceded the highly important papers. If you like your results we are grateful for a citation.

  1. Neese,F.
     The ORCA program system
     WIRES Comput. Molec. Sci., 2012 2(1)73-78
     doi.org/10.1002/wcms.81
  2. Neese,F.
     Software update: the ORCA program system, version 4.0
     WIRES Comput. Molec. Sci., 2018 8(1)1-6
     doi.org/10.1002/wcms.1327
  3. Neese,F.; Wennmohs,F.; Becker,U.; Riplinger,C.
     The ORCA quantum chemistry program package
     J. Chem. Phys., 2020 152 Art. No. L224108
     doi.org/10.1063/5.0004608

List of optional additional citations

  1. Neese,F.
     Approximate second-order SCF convergence for spin unrestricted wavefunctions
     Chem. Phys. Lett., 2000 325(1-3)93-98
     doi.org/10.1016/s0009-2614(00)00662-x

Timings for individual modules:

Sum of individual times          ...        6.107 sec (=   0.102 min)
Startup calculation              ...        0.578 sec (=   0.010 min)   9.5 %
SCF iterations                   ...        5.436 sec (=   0.091 min)  89.0 %
Property calculations            ...        0.094 sec (=   0.002 min)   1.5 %
                             ****ORCA TERMINATED NORMALLY****
TOTAL RUN TIME: 0 days 0 hours 0 minutes 6 seconds 750 msec
