      -----------------------------------------------------------      
     |                   =====================                   |     
     |                           x T B                           |     
     |                   =====================                   |     
     |                         S. Grimme                         |     
     |          Mulliken Center for Theoretical Chemistry        |     
     |                    University of Bonn                     |     
      -----------------------------------------------------------      

   * xtb version 6.7.1 (edcfbbe) compiled by 'albert@albert-system' on 2024-07-22

   xtb is free software: you can redistribute it and/or modify it under
   the terms of the GNU Lesser General Public License as published by
   the Free Software Foundation, either version 3 of the License, or
   (at your option) any later version.
   
   xtb is distributed in the hope that it will be useful,
   but WITHOUT ANY WARRANTY; without even the implied warranty of
   MERCHANTABILITY or FITNESS FOR A PARTICULAR PURPOSE.  See the
   GNU Lesser General Public License for more details.
   
   Cite this work as:
   * C. Bannwarth, E. Caldeweyher, S. Ehlert, A. Hansen, P. Pracht,
     J. Seibert, S. Spicher, S. Grimme, WIREs Comput. Mol. Sci., 2020, 11,
     e01493. DOI: 10.1002/wcms.1493
   
   for GFN2-xTB:
   * C. Bannwarth, S. Ehlert and S. Grimme., J. Chem. Theory Comput., 2019,
     15, 1652-1671. DOI: 10.1021/acs.jctc.8b01176
   for GFN1-xTB:
   * S. Grimme, C. Bannwarth, P. Shushkov, J. Chem. Theory Comput., 2017,
     13, 1989-2009. DOI: 10.1021/acs.jctc.7b00118
   for GFN0-xTB:
   * P. Pracht, E. Caldeweyher, S. Ehlert, S. Grimme, ChemRxiv, 2019, preprint.
     DOI: 10.26434/chemrxiv.8326202.v1
   for GFN-FF:
   * S. Spicher and S. Grimme, Angew. Chem. Int. Ed., 2020, 59, 15665-15673.
     DOI: 10.1002/anie.202004239
   
   for ALPB and GBSA implicit solvation:
   * S. Ehlert, M. Stahn, S. Spicher, S. Grimme, J. Chem. Theory Comput.,
     2021, 17, 4250-4261. DOI: 10.1021/acs.jctc.1c00471
   
   for ddCOSMO and CPCM-X implicit solvation:
   * M. Stahn, S. Ehlert, S. Grimme, J. Phys. Chem. A,
     2023, XX, XXXX-XXXX. DOI: 10.1021/acs.jpca.3c04382
   
   for DFT-D4:
   * E. Caldeweyher, C. Bannwarth and S. Grimme, J. Chem. Phys., 2017,
     147, 034112. DOI: 10.1063/1.4993215
   * E. Caldeweyher, S. Ehlert, A. Hansen, H. Neugebauer, S. Spicher,
     C. Bannwarth and S. Grimme, J. Chem. Phys., 2019, 150, 154122.
     DOI: 10.1063/1.5090222
   * E. Caldeweyher, J.-M. Mewes, S. Ehlert and S. Grimme, Phys. Chem. Chem. Phys.
     2020, 22, 8499-8512. DOI: 10.1039/D0CP00502A
   
   for sTDA-xTB:
   * S. Grimme and C. Bannwarth, J. Chem. Phys., 2016, 145, 054103.
     DOI: 10.1063/1.4959605
   
   in the mass-spec context:
   * V. Asgeirsson, C. Bauer and S. Grimme, Chem. Sci., 2017, 8, 4879.
     DOI: 10.1039/c7sc00601b
   * J. Koopman and S. Grimme, ACS Omega 2019, 4, 12, 15120-15133.
     DOI: 10.1021/acsomega.9b02011
   
   for metadynamics refer to:
   * S. Grimme, J. Chem. Theory Comput., 2019, 155, 2847-2862
     DOI: 10.1021/acs.jctc.9b00143
   
   for SPH calculations refer to:
   * S. Spicher and S. Grimme, J. Chem. Theory Comput., 2021, 17, 1701-1714
     DOI: 10.1021/acs.jctc.0c01306
   
   for ONIOM refer to:
   * C. Plett, A. Katbashev, S. Ehlert, S. Grimme, M. Bursch,
     Phys. Chem. Chem. Phys., 2023, 25, 17860-17868. DOI: 10.1039/D3CP02178E
   
   for DIPRO refer to:
   * J. Kohn, N. Gildemeister, S. Grimme, D. Fazzi, A. Hansen,
     J. Chem. Phys., 2023, just accepted.
   
   for PTB refer to:
   * S. Grimme, M. Mueller, A. Hansen, J. Chem. Phys., 2023, 158, 124111.
     DOI: 10.1063/5.0137838
   
   with help from (in alphabetical order)
   P. Atkinson, C. Bannwarth, F. Bohle, G. Brandenburg, E. Caldeweyher
   M. Checinski, S. Dohm, S. Ehlert, S. Ehrlich, I. Gerasimov, C. Hölzer
   A. Katbashev, J. Kohn, J. Koopman, C. Lavigne, S. Lehtola, F. März, M. Müller,
   F. Musil, H. Neugebauer, J. Pisarek, C. Plett, P. Pracht, F. Pultar,
   J. Seibert, P. Shushkov, S. Spicher, M. Stahn, M. Steiner, T. Strunk,
   J. Stückrath, T. Rose, and J. Unsleber
   
 * started run on 2025/04/11 at 11:45:16.148     
   ID    Z sym.   atoms
    1    6 C      1-5
    2    7 N      6
    3    1 H      7-15

           -------------------------------------------------
          |                Calculation Setup                |
           -------------------------------------------------

          program call               : /srv/scratch/z5358697/.xtb/bin/xtb xtb_opt.coord --opt normal --orca -I xtb_opt-xcontrol-inp
          hostname                   : k062
          coordinate file            : xtb_opt.coord
          omp threads                :                     5

           -------------------------------------------------
          |                   Orca driver                   |
           -------------------------------------------------
orca executable           : /apps/z_install_tree/linux-rocky8-ivybridge/gcc-12.2.0/orca-6.0.0-srtngmq3qlimg2qxbl6avaaiffipurdx/bin/orca
orca input file           : xtb_opt.inp
orca input line           : 
orca parallel             : true
orca number of threads    : 5
                         * ORCA takes the control...
  ------------------------------------------------------------------------

                                 *****************
                                 * O   R   C   A *
                                 *****************

                                            #,                                       
                                            ###                                      
                                            ####                                     
                                            #####                                    
                                            ######                                   
                                           ########,                                 
                                     ,,################,,,,,                         
                               ,,#################################,,                 
                          ,,##########################################,,             
                       ,#########################################, ''#####,          
                    ,#############################################,,   '####,        
                  ,##################################################,,,,####,       
                ,###########''''           ''''###############################       
              ,#####''   ,,,,##########,,,,          '''####'''          '####       
            ,##' ,,,,###########################,,,                        '##       
           ' ,,###''''                  '''############,,,                           
         ,,##''                                '''############,,,,        ,,,,,,###''
      ,#''                                            '''#######################'''  
     '                                                          ''''####''''         
             ,#######,   #######,   ,#######,      ##                                
            ,#'     '#,  ##    ##  ,#'     '#,    #''#        ,####,   ,####,        
            ##       ##  ##   ,#'  ##            #'  '#       #'       #'  '#        
            ##       ##  #######   ##           ,######,      #####,   #    #        
            '#,     ,#'  ##    ##  '#,     ,#' ,#      #,     #,   #   #,  ,#        
             '#######'   ##     ##  '#######'  #'      '#     '####' # '####'        



                #########################################################
                #                        -***-                          #
                #          Department of theory and spectroscopy        #
                #                                                       #
                #                      Frank Neese                      #
                #                                                       #
                #     Directorship, Architecture, Infrastructure        #
                #                    SHARK, DRIVERS                     #
                #        Core code/Algorithms in most modules           #
                #                                                       #
                #        Max Planck Institute fuer Kohlenforschung      #
                #                Kaiser Wilhelm Platz 1                 #
                #                 D-45470 Muelheim/Ruhr                 #
                #                      Germany                          #
                #                                                       #
                #                  All rights reserved                  #
                #                        -***-                          #
                #########################################################


                         Program Version 6.0.0  -   RELEASE  -


 With contributions from (in alphabetic order):
   Daniel Aravena         : Magnetic Suceptibility
   Michael Atanasov       : Ab Initio Ligand Field Theory (pilot matlab implementation)
   Alexander A. Auer      : GIAO ZORA, VPT2 properties, NMR spectrum
   Ute Becker             : All parallelization in ORCA, NUMFREQ, NUMCALC
   Giovanni Bistoni       : ED, misc. LED, open-shell LED, HFLD
   Martin Brehm           : Molecular dynamics
   Dmytro Bykov           : pre 5.0 version of the SCF Hessian
   Marcos Casanova-Páez   : Triplet and SCS-CIS(D). UHF-(DLPNO)-IP/EA/STEOM-CCSD. UHF-CVS-IP/STEOM-CCSD
   Vijay G. Chilkuri      : MRCI spin determinant printing, contributions to CSF-ICE
   Pauline Colinet        : FMM embedding
   Dipayan Datta          : RHF DLPNO-CCSD density
   Achintya Kumar Dutta   : EOM-CC, STEOM-CC
   Nicolas Foglia         : Exact transition moments, OPA infrastructure, MCD improvements
   Dmitry Ganyushin       : Spin-Orbit,Spin-Spin,Magnetic field MRCI
   Miquel Garcia          : C-PCM and meta-GGA Hessian, CCSD/C-PCM, Gaussian charge scheme
   Tiago L. C. Gouveia    : GS-ROHF, GS-ROCIS
   Yang Guo               : DLPNO-NEVPT2, F12-NEVPT2, CIM, IAO-localization
   Andreas Hansen         : Spin unrestricted coupled pair/coupled cluster methods
   Ingolf Harden          : AUTO-CI MPn and infrastructure 
   Benjamin Helmich-Paris : MC-RPA, TRAH-(SCF,CASSCF), AVAS, COSX integrals, SCF dyn. polar.
   Lee Huntington         : MR-EOM, pCC
   Robert Izsak           : Overlap fitted RIJCOSX, COSX-SCS-MP3, EOM
   Riya Kayal             : Wick's Theorem for AUTO-CI, AUTO-CI UHF-CCSDT
   Emily Kempfer          : AUTO-CI, RHF CISDT and CCSDT
   Christian Kollmar      : KDIIS, OOCD, Brueckner-CCSD(T), CCSD density, CASPT2, CASPT2-K, improved NEVPT2
   Axel Koslowski         : Symmetry handling
   Simone Kossmann        : Meta GGA functionals, TD-DFT gradient, OOMP2, (MP2 Hessian; deprecated post 5.0)
   Lucas Lang             : DCDCAS
   Marvin Lechner         : AUTO-CI (C++ implementation), FIC-MRCC
   Spencer Leger          : CASSCF response
   Dagmar Lenk            : GEPOL surface, SMD, ORCA-2-JSON
   Dimitrios Liakos       : Extrapolation schemes; Compound Job, initial MDCI parallelization
   Dimitrios Manganas     : Further ROCIS development; embedding schemes. LFT, Crystal Embedding
   Dimitrios Pantazis     : SARC Basis sets
   Anastasios Papadopoulos: AUTO-CI, single reference methods and gradients
   Taras Petrenko         : pre 6.0 DFT Hessian and TD-DFT gradient, (ASA, deprecated), ECA, 1-Electron XAS/XES, NRVS
   Peter Pinski           : DLPNO-MP2, DLPNO-MP2 Gradient
   Christoph Reimann      : Effective Core Potentials
   Marius Retegan         : Local ZFS, SOC
   Christoph Riplinger    : Optimizer, TS searches, QM/MM, DLPNO-CCSD(T), (RO)-DLPNO pert. Triples
   Michael Roemelt        : Original ROCIS implementation
   Masaaki Saitow         : Open-shell DLPNO-CCSD energy and density
   Barbara Sandhoefer     : DKH picture change effects
   Kantharuban Sivalingam : CASSCF convergence/infrastructure, NEVPT2 and variants, FIC-MRCI
   Bernardo de Souza      : ESD, SOC TD-DFT
   Georgi Stoychev        : AutoAux, RI-MP2 NMR, DLPNO-MP2 response, X2C
   Van Anh Tran           : RI-MP2 g-tensors
   Willem Van den Heuvel  : Paramagnetic NMR
   Zikuan Wang            : NOTCH, Electric field optimization 
   Frank Wennmohs         : Technical directorship and infrastructure
   Hang Xu                : AUTO-CI-Response properties 


 We gratefully acknowledge several colleagues who have allowed us to
 interface, adapt or use parts of their codes:
   Stefan Grimme, W. Hujo, H. Kruse, P. Pracht,  : VdW corrections, initial TS optimization,
                  C. Bannwarth, S. Ehlert,         DFT functionals, gCP, sTDA/sTD-DF
                  L. Wittmann, M. Mueller
   Ed Valeev, F. Pavosevic, A. Kumar             : LibInt (2-el integral package), F12 methods
   Garnet Chan, S. Sharma, J. Yang, R. Olivares  : DMRG
   Ulf Ekstrom                                   : XCFun DFT Library
   Mihaly Kallay                                 : mrcc  (arbitrary order and MRCC methods)
   Frank Weinhold                                : gennbo (NPA and NBO analysis)
   Simon Mueller                                 : openCOSMO-RS
   Christopher J. Cramer and Donald G. Truhlar   : smd solvation model
   Lars Goerigk                                  : TD-DFT with DH, B97 family of functionals
   V. Asgeirsson, H. Jonsson                     : NEB implementation
   FAccTs GmbH                                   : IRC, NEB, NEB-TS, DLPNO-Multilevel, CI-OPT
                                                   MM, QMMM, 2- and 3-layer-ONIOM, Crystal-QMMM,
                                                   LR-CPCM, SF, NACMEs, symmetry and pop. for TD-DFT,
                                                   nearIR, NL-DFT gradient (VV10), updates on ESD,
                                                   ML-optimized integration grids, MBIS, APM,
                                                   GOAT, DOCKER, SOLVATOR, interface openCOSMO-RS
   S Lehtola, MJT Oliveira, MAL Marques          : LibXC Library
   Liviu Ungur et al                             : ANISO software


 Your calculation uses the libint2 library for the computation of 2-el integrals
 For citations please refer to: http://libint.valeyev.net

 Your ORCA version has been built with support for libXC version: 6.2.2
 For citations please refer to: https://libxc.gitlab.io

 This ORCA versions uses:
   CBLAS   interface :  Fast vector & matrix operations
   LAPACKE interface :  Fast linear algebra routines
   SCALAPACK package :  Parallel linear algebra routines
   Shared memory     :  Shared parallel matrices
   BLAS/LAPACK       :  OpenBLAS 0.3.27  USE64BITINT DYNAMIC_ARCH NO_AFFINITY SkylakeX SINGLE_THREADED
        Core in use  :  SkylakeX
   Copyright (c) 2011-2014, The OpenBLAS Project




***************************************
The coordinates will be read from file: xtb_opt.xyz
***************************************


Your calculation utilizes the geometrical counterpoise correction gCP
Please cite in your paper:
H.Kruse, S. Grimme J.Chem.Phys., 136, (2012), 154101 
   

Your calculation utilizes the atom-pairwise dispersion correction
based on EEQ partial charges (D4)


Your calculation utilizes the SMD solvation module
Please cite in your paper:
A.V. Marenich, C.J. Cramer, D.G. Truhlar J. Phys. Chem. B, 113, (2009), 6378 

================================================================================

----- Orbital basis set information -----
Your calculation utilizes the basis: def2-mTZVPP
   Stefan Grimme, Andreas Hansen, Sebastian Ehlert, and Jan-Michael Mewes 
   J. Chem. Phys. 154, 064103 (2021). DOI: 10.1063/5.0040021

----- AuxJ basis set information -----
Your calculation utilizes the auxiliary basis: def2/J
   F. Weigend, Phys. Chem. Chem. Phys. 8, 1057 (2006).

================================================================================
                                        WARNINGS
                       Please study these warnings very carefully!
================================================================================

WARNING: Old DensityContainer found on disk!
         Will remove this file - 
         If you want to keep old densities, please start your calculation with a different basename. 

Using LibXC functional ID 497 : Re-regularized SCAN exchange by Furness et al
[ 1]  J. W. Furness, A. D. Kaplan, J. Ning, J. P. Perdew, and J. Sun.,  J. Phys. Chem. Lett. 11, 8208-8215 (2020)
[ 2]  J. W. Furness, A. D. Kaplan, J. Ning, J. P. Perdew, and J. Sun.,  J. Phys. Chem. Lett. 11, 9248-9248 (2020)
Using LibXC functional ID 498 : Re-regularized SCAN correlation by Furness et al
[ 1]  J. W. Furness, A. D. Kaplan, J. Ning, J. P. Perdew, and J. Sun.,  J. Phys. Chem. Lett. 11, 8208-8215 (2020)
[ 2]  J. W. Furness, A. D. Kaplan, J. Ning, J. P. Perdew, and J. Sun.,  J. Phys. Chem. Lett. 11, 9248-9248 (2020)
Using LibXC functional ID 497 : Re-regularized SCAN exchange by Furness et al
[ 1]  J. W. Furness, A. D. Kaplan, J. Ning, J. P. Perdew, and J. Sun.,  J. Phys. Chem. Lett. 11, 8208-8215 (2020)
[ 2]  J. W. Furness, A. D. Kaplan, J. Ning, J. P. Perdew, and J. Sun.,  J. Phys. Chem. Lett. 11, 9248-9248 (2020)
Using LibXC functional ID 498 : Re-regularized SCAN correlation by Furness et al
[ 1]  J. W. Furness, A. D. Kaplan, J. Ning, J. P. Perdew, and J. Sun.,  J. Phys. Chem. Lett. 11, 8208-8215 (2020)
[ 2]  J. W. Furness, A. D. Kaplan, J. Ning, J. P. Perdew, and J. Sun.,  J. Phys. Chem. Lett. 11, 9248-9248 (2020)

================================================================================
                                       INPUT FILE
================================================================================
NAME = xtb_opt.inp
|  1> ! r2scan-3c def2/J RI DEFGRID2 scfconv7 ENGRAD tightSCF miniprint
|  2> %cpcm
|  3>     smd true
|  4>     smdsolvent "water"
|  5> end
|  6> * xyzfile 0 1 xtb_opt.xyz
|  7> 
|  8>                          ****END OF INPUT****
================================================================================

                     *******************************
                     * Energy+Gradient Calculation *
                     *******************************

---------------------------------
CARTESIAN COORDINATES (ANGSTROEM)
---------------------------------
  C     -2.084586    0.703254    0.571457
  C     -1.368515    0.258895   -0.703727
  C     -0.549427   -1.022440   -0.537672
  C      0.554475   -0.928340    0.533531
  C      1.477114    0.157539    0.270943
  N      2.211906    1.023286    0.039290
  H     -2.741437   -0.089027    0.949656
  H     -1.375419    0.961496    1.366017
  H     -2.698654    1.588908    0.381762
  H     -2.106353    0.085097   -1.494778
  H     -0.714834    1.064977   -1.060941
  H     -0.087373   -1.293798   -1.492516
  H     -1.203518   -1.850323   -0.242804
  H      0.126773   -0.774978    1.531294
  H      1.134423   -1.857322    0.571460

----------------------------
CARTESIAN COORDINATES (A.U.)
----------------------------
  NO LB      ZA    FRAG     MASS         X           Y           Z
   0 C     6.0000    0    12.011   -3.939297    1.328957    1.079897
   1 C     6.0000    0    12.011   -2.586118    0.489240   -1.329851
   2 C     6.0000    0    12.011   -1.038266   -1.932132   -1.016054
   3 C     6.0000    0    12.011    1.047806   -1.754308    1.008228
   4 C     6.0000    0    12.011    2.791340    0.297705    0.512009
   5 N     7.0000    0    14.007    4.179897    1.933731    0.074248
   6 H     1.0000    0     1.008   -5.180565   -0.168237    1.794590
   7 H     1.0000    0     1.008   -2.599164    1.816964    2.581399
   8 H     1.0000    0     1.008   -5.099717    3.002601    0.721425
   9 H     1.0000    0     1.008   -3.980431    0.160809   -2.824721
  10 H     1.0000    0     1.008   -1.350840    2.012515   -2.004888
  11 H     1.0000    0     1.008   -0.165111   -2.444923   -2.820446
  12 H     1.0000    0     1.008   -2.274320   -3.496603   -0.458834
  13 H     1.0000    0     1.008    0.239567   -1.464497    2.893726
  14 H     1.0000    0     1.008    2.143749   -3.509829    1.079902

------------------------------------------------------------------------------
                   ___                                                        
                  /   \      - P O W E R E D   B Y -                         
                 /     \                                                     
                 |  |  |   _    _      __       _____    __    __             
                 |  |  |  | |  | |    /  \     |  _  \  |  |  /  |          
                  \  \/   | |  | |   /    \    | | | |  |  | /  /          
                 / \  \   | |__| |  /  /\  \   | |_| |  |  |/  /          
                |  |  |   |  __  | /  /__\  \  |    /   |      \           
                |  |  |   | |  | | |   __   |  |    \   |  |\   \          
                \     /   | |  | | |  |  |  |  | |\  \  |  | \   \       
                 \___/    |_|  |_| |__|  |__|  |_| \__\ |__|  \__/        
                                                                              
                      - O R C A' S   B I G   F R I E N D -                    
                                      &                                       
                       - I N T E G R A L  F E E D E R -                       
                                                                              
 v1 FN, 2020, v2 2021, v3 2022-2024                                           
------------------------------------------------------------------------------


----------------------
SHARK INTEGRAL PACKAGE
----------------------

Number of atoms                             ...     15
Number of basis functions                   ...    164
Number of shells                            ...     82
Maximum angular momentum                    ...      2
Integral batch strategy                     ... SHARK/LIBINT Hybrid
RI-J (if used) integral strategy            ... SPLIT-RIJ (Revised 2003 algorithm where possible)
Printlevel                                  ...      1
Contraction scheme used                     ... SEGMENTED contraction
Prescreening option                         ... SCHWARTZ
   Thresh                                   ... 3.000e-11
   Tcut                                     ... 1.000e-12
   Tpresel                                  ... 1.000e-12 
Coulomb Range Separation                    ... NOT USED
Exchange Range Separation                   ... NOT USED
Multipole approximations                    ... NOT USED
Finite Nucleus Model                        ... NOT USED
CABS basis                                  ... NOT available
Auxiliary Coulomb fitting basis             ... AVAILABLE
   # of basis functions in Aux-J            ...    393
   # of shells in Aux-J                     ...    135
   Maximum angular momentum in Aux-J        ...      4
Auxiliary J/K fitting basis                 ... NOT available
Auxiliary Correlation fitting basis         ... NOT available
Auxiliary 'external' fitting basis          ... NOT available

Checking pre-screening integrals            ... done (  0.0 sec) Dimension = 82
Check shell pair data                       ... done (  0.0 sec)
Shell pair information
Shell pair cut-off parameter TPreSel        ...   1.0e-12
Total number of shell pairs                 ...      3403
Shell pairs after pre-screening             ...      3227
Total number of primitive shell pairs       ...     12094
Primitive shell pairs kept                  ...      8577
          la=0 lb=0:   1093 shell pairs
          la=1 lb=0:   1232 shell pairs
          la=1 lb=1:    369 shell pairs
          la=2 lb=0:    320 shell pairs
          la=2 lb=1:    185 shell pairs
          la=2 lb=2:     28 shell pairs

Calculating one electron integrals          ... done (  0.0 sec)
Calculating RI/J V-Matrix + Cholesky decomp.... done (  0.1 sec)
Calculating Nuclear repulsion               ... done (  0.0 sec) ENN=    220.092559589584 Eh

Diagonalization of the overlap matrix:
Smallest eigenvalue                        ... 1.302e-04
Time for diagonalization                   ...    0.007 sec
Threshold for overlap eigenvalues          ... 1.000e-07
Number of eigenvalues below threshold      ... 0
Time for construction of square roots      ...    0.014 sec
Total time needed                          ...    0.031 sec

-------------------
DFT GRID GENERATION
-------------------

General Integration Accuracy     IntAcc      ... 4.388
Radial Grid Type                 RadialGrid  ... OptM3 with GC (2021)
Angular Grid (max. ang.)         AngularGrid ... 4 (Lebedev-302)
Angular grid pruning method      GridPruning ... 4 (adaptive)
Weight generation scheme         WeightScheme... mBecke (2022)
Basis function cutoff            BFCut       ... 1.0000e-11
Integration weight cutoff        WCut        ... 1.0000e-14
Partially contracted basis set               ... off
Rotationally invariant grid construction     ... off
Angular grids for H and He will be reduced by one unit

Total number of grid points                  ...    65131
Total number of batches                      ...     1027
Average number of points per batch           ...       63
Average number of grid points per atom       ...     4342
Initializing property integral containers    ... done (  0.0 sec)

SHARK setup successfully completed in   1.0 seconds

Maximum memory used throughout the entire STARTUP-calculation: 29.0 MB
Occupation numbers will be reassigned to an Aufbau configuration
             **** ENERGY FILE WAS UPDATED (xtb_opt.en.tmp) ****
Finished Guess after   0.3 sec
Maximum memory used throughout the entire GUESS-calculation: 11.3 MB
--------------------
CPCM SOLVATION MODEL
--------------------
CPCM parameters:
  Epsilon                                         ...      78.3550
  Refrac                                          ...       1.3328
  Rsolv                                           ...       1.3000
  Surface type                                    ... GAUSSIAN VDW
  Discretization scheme                           ... Constant charge density
    Threshold for H atoms                         ...       5.0000 (charges/Ang^2)
    Threshold for non-H atoms                     ...       5.0000 (charges/Ang^2)
  Epsilon function type                           ...         CPCM
Solvent:                                          ... WATER
SMD-CDS solvent descriptors:
  Soln                                            ...       1.3328
  Soln25                                          ...       1.3323
  Sola                                            ...       0.0000
  Solb                                            ...       0.0000
  Solg                                            ...       0.0000
  Solc                                            ...       0.0000
  Solh                                            ...       0.0000
Radii:
  Scheme                                          ... Element-dependent radii
  Radius for C  used is    3.4960 Bohr (=   1.8500 Ang.)
  Radius for N  used is    3.5716 Bohr (=   1.8900 Ang.)
  Radius for H  used is    2.2677 Bohr (=   1.2000 Ang.)
Calculating surface                               ...        done! (  0.0s)
Cavity surface points                             ...         1214
Cavity Volume                                     ...     745.7283
Cavity Surface-area                               ...     493.1031
Calculating surface distance matrix               ...        done! (  0.0s)
Performing Cholesky decomposition & store         ...        done! (  0.1s)
Overall time for CPCM initialization              ...                 0.1s

----------------------------------------D-I-I-S--------------------------------------------
Iteration    Energy (Eh)           Delta-E    RMSDP     MaxDP     DIISErr   Damp  Time(sec)
-------------------------------------------------------------------------------------------
               ***  Starting incremental Fock matrix formation  ***
                              *** Initializing SOSCF ***
---------------------------------------S-O-S-C-F--------------------------------------
Iteration    Energy (Eh)           Delta-E    RMSDP     MaxDP     MaxGrad    Time(sec)
--------------------------------------------------------------------------------------
    1    -250.6288892059792772     0.00e+00  7.24e-07  1.63e-05  1.52e-06     1.9
               *** Restarting incremental Fock matrix formation ***
    2    -250.6288892065578295    -5.79e-10  7.91e-07  1.61e-05  4.07e-06     1.9
                  *** Gradient check signals convergence ***

               *****************************************************
               *                     SUCCESS                       *
               *           SCF CONVERGED AFTER   2 CYCLES          *
               *****************************************************


SMD CDS free energy correction energy :                 4.33340     Kcal/mol
Total Energy after SMD CDS correction =              -250.621983502 Eh
             **** ENERGY FILE WAS UPDATED (xtb_opt.en.tmp) ****

----------------
TOTAL SCF ENERGY
----------------

Total Energy       :       -250.62198350219199 Eh           -6819.77088 eV

Components:
Nuclear Repulsion  :        220.09255958958417 Eh            5989.02302 eV
Electronic Energy  :       -470.70508697638394 Eh          -12808.53659 eV
One Electron Energy:       -772.07010267611849 Eh          -21009.09558 eV
Two Electron Energy:        301.36501569973456 Eh            8200.55899 eV
CPCM Dielectric    :         -0.01636181975807 Eh              -0.44523 eV
SMD CDS (Gcds)     :          0.00690570436582 Eh               0.18791 eV

Virial components:
Potential Energy   :       -499.99775071158535 Eh          -13605.63049 eV
Kinetic Energy     :        249.37576720939336 Eh            6785.85961 eV
Virial Ratio       :          2.00499734319314

DFT components:
N(Alpha)           :       22.999941011580 electrons
N(Beta)            :       22.999941011580 electrons
N(Total)           :       45.999882023159 electrons
E(X)               :      -35.795623604818 Eh       
E(C)               :       -1.433005095398 Eh       
E(XC)              :      -37.228628700216 Eh       

CPCM Solvation Model Properties:
Surface-charge          :         -0.03634040434295
Corrected charge        :          0.00000000000000
Outlying charge corr.   :          0.00010866966473 Eh               0.00296 eV
Free-energy (cav+disp)  :          0.00690570436582 Eh               0.18791 eV

---------------
SCF CONVERGENCE
---------------

  Last Energy change         ...    5.7855e-10  Tolerance :   1.0000e-07
  Last MAX-Density change    ...    1.6132e-05  Tolerance :   1.0000e-07
  Last RMS-Density change    ...    7.9052e-07  Tolerance :   5.0000e-09
  Last DIIS Error            ...    2.2590e-05  Tolerance :   1.0000e-07
  Last Orbital Gradient      ...    4.0661e-06  Tolerance :   1.0000e-04
  Last Orbital Rotation      ...    1.2822e-05  Tolerance :   1.0000e-04


----------------
ORBITAL ENERGIES
----------------

  NO   OCC          E(Eh)            E(eV) 
   0   2.0000     -14.158532      -385.2732 
   1   2.0000     -10.079015      -274.2639 
   2   2.0000     -10.065621      -273.8995 
   3   2.0000     -10.036351      -273.1030 
   4   2.0000     -10.024421      -272.7784 
   5   2.0000     -10.013098      -272.4703 
   6   2.0000      -0.877901       -23.8889 
   7   2.0000      -0.778234       -21.1768 
   8   2.0000      -0.711498       -19.3608 
   9   2.0000      -0.630176       -17.1480 
  10   2.0000      -0.548971       -14.9383 
  11   2.0000      -0.468346       -12.7444 
  12   2.0000      -0.442953       -12.0534 
  13   2.0000      -0.422394       -11.4939 
  14   2.0000      -0.379665       -10.3312 
  15   2.0000      -0.368772       -10.0348 
  16   2.0000      -0.358911        -9.7665 
  17   2.0000      -0.338688        -9.2162 
  18   2.0000      -0.315753        -8.5921 
  19   2.0000      -0.313262        -8.5243 
  20   2.0000      -0.296771        -8.0755 
  21   2.0000      -0.291987        -7.9454 
  22   2.0000      -0.290398        -7.9021 
  23   0.0000       0.001348         0.0367 
  24   0.0000       0.005393         0.1468 
  25   0.0000       0.065554         1.7838 
  26   0.0000       0.119903         3.2627 
  27   0.0000       0.124145         3.3782 
  28   0.0000       0.131534         3.5792 
  29   0.0000       0.148280         4.0349 
  30   0.0000       0.161315         4.3896 
  31   0.0000       0.165248         4.4966 
  32   0.0000       0.175534         4.7765 
  33   0.0000       0.184324         5.0157 
*Only the first 10 virtual orbitals were printed.
Total SCF time: 0 days 0 hours 0 min 4 sec 
Finished LeanSCF after   4.5 sec

Maximum memory used throughout the entire LEANSCF-calculation: 20.7 MB


-------------------------------------------------------------------------------
                          DFT DISPERSION CORRECTION                            
                                                                               
                                DFTD4 V3.4.0                                   
-------------------------------------------------------------------------------
-------------------------   ----------------
Dispersion correction           -0.003658140
-------------------------   ----------------

------------------   -----------------
gCP correction             0.006197994
------------------   -----------------

-------------------------   --------------------
FINAL SINGLE POINT ENERGY      -250.619443648954
-------------------------   --------------------

------------------------------------------------------------------------------
                         ORCA SCF GRADIENT CALCULATION
------------------------------------------------------------------------------

Nuc. rep. gradient        (SHARK) ... done (  0.0 sec)
HCore & Overlap gradient  (SHARK) ... done (  0.2 sec)
Split-RIJ-J gradient      (SHARK) ... done (  0.8 sec)
XC gradient                       ... done (  3.2 sec)
CPCM gradient                     ... done (  0.5 sec)
SMD gradient                      ... done (  0.0 sec)
Dispersion correction             ... done (  0.0 sec)

-------------------
DISPERSION GRADIENT
-------------------

   1   C   :   -0.000071969    0.000030772    0.000022589
   2   C   :   -0.000044048    0.000010889   -0.000028706
   3   C   :   -0.000007950   -0.000039075   -0.000020949
   4   C   :    0.000033804   -0.000037704    0.000018618
   5   C   :    0.000080737    0.000002884    0.000009744
   6   N   :    0.000110131    0.000049629    0.000002917
   7   H   :   -0.000033813    0.000009180    0.000010559
   8   H   :   -0.000028724    0.000018262    0.000016082
   9   H   :   -0.000030671    0.000021914    0.000005885
  10   H   :   -0.000025389    0.000003999   -0.000019855
  11   H   :   -0.000012846    0.000012089   -0.000014237
  12   H   :    0.000001927   -0.000019786   -0.000020798
  13   H   :   -0.000008572   -0.000024617   -0.000007527
  14   H   :    0.000014871   -0.000014072    0.000018047
  15   H   :    0.000022511   -0.000024364    0.000007630

Difference to translation invariance:
           :    0.0000000000   -0.0000000000   -0.0000000000

Difference to rotation invariance:
           :    0.0000000000   -0.0000000000   -0.0000000000

Norm of the Dispersion gradient    ...    0.0002119658
RMS gradient                       ...    0.0000315980
MAX gradient                       ...    0.0001101312
gCP correction                   ... done

------------------
CARTESIAN GRADIENT
------------------

   1   C   :   -0.000700908    0.000350278    0.000512191
   2   C   :    0.000083075    0.000731612   -0.001161462
   3   C   :    0.000313985   -0.000452048    0.000041227
   4   C   :    0.000215877    0.000127619   -0.000524721
   5   C   :   -0.000663369    0.000379013   -0.000289264
   6   N   :    0.000477726   -0.000123286   -0.000072908
   7   H   :   -0.000369187   -0.000203450    0.000058717
   8   H   :    0.000327053   -0.000018146    0.000429634
   9   H   :    0.000246676    0.000054060   -0.000047218
  10   H   :    0.000164396   -0.000208525    0.000243108
  11   H   :   -0.000129134   -0.000193420    0.000020003
  12   H   :    0.000120137    0.000034727   -0.000053226
  13   H   :    0.000135947   -0.000039100    0.000075585
  14   H   :   -0.000400424   -0.000153393    0.000569830
  15   H   :    0.000178151   -0.000285941    0.000198503

Difference to translation invariance:
           :   -0.0000000000    0.0000000000   -0.0000000000

Difference to rotation invariance:
           :   -0.0001802422    0.0000083416    0.0000182918

Norm of the Cartesian gradient     ...    0.0023990040
RMS gradient                       ...    0.0003576224
MAX gradient                       ...    0.0011614619

-------
TIMINGS
-------

Total SCF gradient time     ....        5.152 sec

Densities                   ....       0.000 sec  (  0.0%)
One electron gradient       ....       0.152 sec  (  3.0%)
RI-J Coulomb gradient       ....       0.810 sec  ( 15.7%)
XC gradient                 ....       3.218 sec  ( 62.5%)
CPCM gradient               ....       0.480 sec  (  9.3%)
   A-Matrix (El+Nuc)        ....       0.049 sec  (  1.0%)
   Potential                ....       0.431 sec  (  8.4%)
SMD gradient                ....       0.012 sec  (  0.2%)

Maximum memory used throughout the entire SCFGRAD-calculation: 31.3 MB

------------------------------------------------------------------------------
                              ORCA PROPERTY CALCULATIONS
------------------------------------------------------------------------------

GBWName                                 ... xtb_opt.gbw
Number of atoms                         ...     15
Number of basis functions               ...    164
Max core memory                         ...   1024 MB

Electric properties:
Dipole moment                           ... YES
Quadrupole moment                       ...  NO
Static polarizability (Dipole/Dipole)   ...  NO
Static polarizability (Dipole/Quad.)    ...  NO
Static polarizability (Quad./Quad.)     ...  NO
Static polarizability (Velocity)        ...  NO

Atomic electric properties:
Dipole moment                           ...  NO
Quadrupole moment                       ...  NO
Static polarizability                   ...  NO

Choice of electric origin               ... Center of mass
Position of electric origin             ...    -0.055339     0.049295     0.060906

General magnetic properties:
Magnetizability                         ...  NO

EPR properties:
g-Tensor (aka g-matrix)                 ...  NO
Zero-Field splitting spin-orbit         ...  NO
Zero-field splitting spin-spin          ...  NO
Hyperfine couplings                     ...  NO (   0 nuclei)
Quadrupole couplings                    ...  NO (   0 nuclei)
Contact density                         ...  NO (   0 nuclei)

NMR properties:
Chemical shifts                         ...  NO (   0 nuclei)
Spin-rotation constants                 ...  NO (   0 nuclei)
Spin-spin couplings                     ...  NO (   0 nuclei,    0 pairs)

Choice of magnetic origin               ... GIAO
Position of magnetic origin             ...     0.000000     0.000000     0.000000

Properties with geometric perturbations:
SCF Hessian                             ...  NO
IR spectrum                             ...  NO
VCD spectrum                            ...  NO
X-ray spectroscopy properties:
SCF XES/XAS/RIXS spectra                ...  NO


-------------
DIPOLE MOMENT
-------------

Method             : SCF
Type of density    : Electron Density
Multiplicity       :   1
Irrep              :   0
Energy             :  -250.6219835021919948 Eh
Relativity type    : 
Basis              : AO
                                X                 Y                 Z
Electronic contribution:      7.339080902       0.670781920       0.099581406
Nuclear contribution   :     -8.809176768      -2.245891669       0.205572826
                        -----------------------------------------
Total Dipole Moment    :     -1.470095866      -1.575109749       0.305154232
                        -----------------------------------------
Magnitude (a.u.)       :      2.176067940
Magnitude (Debye)      :      5.531125138



--------------------
Rotational spectrum 
--------------------
 
Rotational constants in cm-1:             0.195219             0.073344             0.064597 
Rotational constants in MHz :          5852.532421          2198.787987          1936.576627 

Dipole components along the rotational axes: 
x,y,z [a.u.] :     1.527521     1.423980    -0.611745 
x,y,z [Debye]:     3.882651     3.619469    -1.554932 

 

Dipole moment calculation done in   0.0 sec 

Maximum memory used throughout the entire PROP-calculation: 9.6 MB

--------------------------------
SUGGESTED CITATIONS FOR THIS RUN
--------------------------------

Below you find a list of papers that are relevant to this ORCA run
We neither can nor want to force you to cite these papers, but we appreciate if you do
You receive ORCA, which is the product of decades of hard work by many enthusiastic individuals, for free
The only thing we kindly ask in return is that you cite our papers,
We deeply appreciate it, if you show your appreciation for ORCA by not just citing the generic ORCA reference.

Please note that relegating all ORCA citations to the supporting information does *not* help us.
SI sections are not indexed - citations you put there will not count into any citation statistics
But we need these citations in order to attract the funding resources that allow us to do what we are doing

Therefore, if you are a happy ORCA user, please consider citing a few of the papers listed below in the main body of your paper

In addition to the list printed below, the program has created the file xtb_opt.bibtex that contains the list in bibtex format
You can import this file easily into all common literature databanks and citation aid programs


List of essential papers. We consider these as the minimum necessary citations

  1. Neese,F.
     Software update: the ORCA program system, version 5.0
     WIRES Comput. Molec. Sci., 2022 12(1)e1606
     doi.org/10.1002/wcms.1606
  2. Grimme,S.; Hansen,A.; Ehlert,S.; Mewes,J.
     r2SCAN-3c: A 'Swiss army knife' composite electronic-structure method
     J. Chem. Phys., 2021 154 064103
     doi.org/10.1063/5.0040021

List of papers to cite with high priority. The work reported in these papers was absolutely
necessary for this run to complete.
Our perspective: the developers of density functionals and basis sets usually get cited in chemistry papers
Good! But without the algorithms to do something with them, the functionals or basis sets would not do anything.
Hence, in our opinion, the algorithm design and method developments papers are equally worthy of getting cited

  1. Neese,F.
     An improvement of the resolution of the identity approximation for the formation of the Coulomb matrix
     J. Comp. Chem., 2003 24(14)1740-1747
     doi.org/10.1002/jcc.10318
  2. Garcia-Rates,M.; Neese,F.
     Effect of the Solute Cavity on the Solvation Energy and its Derivatives within the Framework of the Gaussian Charge Scheme
     J. Comput. Chem., 2020 41 922-939
     doi.org/10.1002/jcc.26139
  3. Neese,F.
     The SHARK Integral Generation and Digestion System
     J. Comp. Chem., 2022  1-16
     doi.org/10.1002/jcc.26942
  4. Lehtola,S.; Steigemann,C.; Oliveira,M.; Marques,M.
     Recent developments in Libxc - A comprehensive library of functionals for density functional theory
     Software X, 2018 7 
     doi.org/10.1016/j.softx.2017.11.002
  5. Caldeweyher,E.; Bannwarth,C.; Grimme,S.
     Extension of the D3 dispersion coefficient model
     J. Chem. Phys., 2017 147 034112-XXXX
     doi.org/10.1063/1.4993215
  6. Caldeweyher,E.; Ehlert,S.; Hansen,A.; Neugebauer,H.; Spicher,S.; Bannwarth,C.; Grimme,S.
     A generally applicable atomic-charge dependent London dispersion correction
     J. Chem. Phys., 2019 150 154122-XXXX
     doi.org/10.1063/1.5090222
  7. Caldeweyher,E.; Mewes,J.; Ehlert,S.; Grimme,S.
     Extension and evaluation of the D4 London-dispersion model for periodic systems
     Phys. Chem. Chem. Phys., 2020 22(16)8499-8512
     doi.org/10.1039/D0CP00502A

List of suggested additional citations. These are papers that are important in the 'surrounding' of 
of this run, or papers that preceded the highly important papers. If you like your results we are grateful for a citation.

  1. Neese,F.
     The ORCA program system
     WIRES Comput. Molec. Sci., 2012 2(1)73-78
     doi.org/10.1002/wcms.81
  2. Neese,F.
     Software update: the ORCA program system, version 4.0
     WIRES Comput. Molec. Sci., 2018 8(1)1-6
     doi.org/10.1002/wcms.1327
  3. Neese,F.; Wennmohs,F.; Becker,U.; Riplinger,C.
     The ORCA quantum chemistry program package
     J. Chem. Phys., 2020 152 Art. No. L224108
     doi.org/10.1063/5.0004608

List of optional additional citations

  1. Neese,F.
     Approximate second-order SCF convergence for spin unrestricted wavefunctions
     Chem. Phys. Lett., 2000 325(1-3)93-98
     doi.org/10.1016/s0009-2614(00)00662-x

Timings for individual modules:

Sum of individual times          ...       11.206 sec (=   0.187 min)
Startup calculation              ...        0.998 sec (=   0.017 min)   8.9 %
SCF iterations                   ...        4.834 sec (=   0.081 min)  43.1 %
Property calculations            ...        0.116 sec (=   0.002 min)   1.0 %
SCF Gradient evaluation          ...        5.258 sec (=   0.088 min)  46.9 %
                             ****ORCA TERMINATED NORMALLY****
TOTAL RUN TIME: 0 days 0 hours 0 minutes 12 seconds 90 msec
  ------------------------------------------------------------------------
          * successful ORCA run, taking over control again...

         :::::::::::::::::::::::::::::::::::::::::::::::::::::
         ::                  ORCA SUMMARY                   ::
         :::::::::::::::::::::::::::::::::::::::::::::::::::::
         :: total energy            -250.619443648954 Eh    ::
         :: gradient norm              0.002399004047 Eh/a0 ::
         :: HOMO-LUMO gap              0.000000000000 eV    ::
         :::::::::::::::::::::::::::::::::::::::::::::::::::::

      ----------------------------------------------------------- 
     |                       L-ANC optimizer                     |
      ----------------------------------------------------------- 
          low memory version by Sebastian Ehlert

          ...................................................
          :                      SETUP                      :
          :.................................................:
          :   energy convergence        0.5000000E-05 Eh    :
          :   grad. convergence         0.1000000E-02 Eh/a0 :
          :   optimization log               true           :
          :   writing optlog all                1     steps :
          :   Hessian reset                     8     steps :
          :   maximium step len.        1.0000000     a0    :
          :   LBFGS images                      8           :
          ...................................................
 * calculating model hessian...
Using Lindh-Hessian (1995)
 Shifting diagonal of input Hessian by   1.000000000000000E-002
 Lowest  eigenvalues of input Hessian
    0.000000    0.000000    0.000000    0.000000    0.000000    0.000000
    0.011995    0.014344    0.017118    0.019397    0.025541    0.026621
    0.036893    0.050622    0.059610    0.060576    0.062269    0.064206
 Highest eigenvalues
    1.106860    1.144476    1.182251    1.236300    1.265792    2.486712
 

........................................................................
.............................. CYCLE    1 ..............................
........................................................................
                         * ORCA takes the control...
  ------------------------------------------------------------------------

                                 *****************
                                 * O   R   C   A *
                                 *****************

                                            #,                                       
                                            ###                                      
                                            ####                                     
                                            #####                                    
                                            ######                                   
                                           ########,                                 
                                     ,,################,,,,,                         
                               ,,#################################,,                 
                          ,,##########################################,,             
                       ,#########################################, ''#####,          
                    ,#############################################,,   '####,        
                  ,##################################################,,,,####,       
                ,###########''''           ''''###############################       
              ,#####''   ,,,,##########,,,,          '''####'''          '####       
            ,##' ,,,,###########################,,,                        '##       
           ' ,,###''''                  '''############,,,                           
         ,,##''                                '''############,,,,        ,,,,,,###''
      ,#''                                            '''#######################'''  
     '                                                          ''''####''''         
             ,#######,   #######,   ,#######,      ##                                
            ,#'     '#,  ##    ##  ,#'     '#,    #''#        ,####,   ,####,        
            ##       ##  ##   ,#'  ##            #'  '#       #'       #'  '#        
            ##       ##  #######   ##           ,######,      #####,   #    #        
            '#,     ,#'  ##    ##  '#,     ,#' ,#      #,     #,   #   #,  ,#        
             '#######'   ##     ##  '#######'  #'      '#     '####' # '####'        



                #########################################################
                #                        -***-                          #
                #          Department of theory and spectroscopy        #
                #                                                       #
                #                      Frank Neese                      #
                #                                                       #
                #     Directorship, Architecture, Infrastructure        #
                #                    SHARK, DRIVERS                     #
                #        Core code/Algorithms in most modules           #
                #                                                       #
                #        Max Planck Institute fuer Kohlenforschung      #
                #                Kaiser Wilhelm Platz 1                 #
                #                 D-45470 Muelheim/Ruhr                 #
                #                      Germany                          #
                #                                                       #
                #                  All rights reserved                  #
                #                        -***-                          #
                #########################################################


                         Program Version 6.0.0  -   RELEASE  -


 With contributions from (in alphabetic order):
   Daniel Aravena         : Magnetic Suceptibility
   Michael Atanasov       : Ab Initio Ligand Field Theory (pilot matlab implementation)
   Alexander A. Auer      : GIAO ZORA, VPT2 properties, NMR spectrum
   Ute Becker             : All parallelization in ORCA, NUMFREQ, NUMCALC
   Giovanni Bistoni       : ED, misc. LED, open-shell LED, HFLD
   Martin Brehm           : Molecular dynamics
   Dmytro Bykov           : pre 5.0 version of the SCF Hessian
   Marcos Casanova-Páez   : Triplet and SCS-CIS(D). UHF-(DLPNO)-IP/EA/STEOM-CCSD. UHF-CVS-IP/STEOM-CCSD
   Vijay G. Chilkuri      : MRCI spin determinant printing, contributions to CSF-ICE
   Pauline Colinet        : FMM embedding
   Dipayan Datta          : RHF DLPNO-CCSD density
   Achintya Kumar Dutta   : EOM-CC, STEOM-CC
   Nicolas Foglia         : Exact transition moments, OPA infrastructure, MCD improvements
   Dmitry Ganyushin       : Spin-Orbit,Spin-Spin,Magnetic field MRCI
   Miquel Garcia          : C-PCM and meta-GGA Hessian, CCSD/C-PCM, Gaussian charge scheme
   Tiago L. C. Gouveia    : GS-ROHF, GS-ROCIS
   Yang Guo               : DLPNO-NEVPT2, F12-NEVPT2, CIM, IAO-localization
   Andreas Hansen         : Spin unrestricted coupled pair/coupled cluster methods
   Ingolf Harden          : AUTO-CI MPn and infrastructure 
   Benjamin Helmich-Paris : MC-RPA, TRAH-(SCF,CASSCF), AVAS, COSX integrals, SCF dyn. polar.
   Lee Huntington         : MR-EOM, pCC
   Robert Izsak           : Overlap fitted RIJCOSX, COSX-SCS-MP3, EOM
   Riya Kayal             : Wick's Theorem for AUTO-CI, AUTO-CI UHF-CCSDT
   Emily Kempfer          : AUTO-CI, RHF CISDT and CCSDT
   Christian Kollmar      : KDIIS, OOCD, Brueckner-CCSD(T), CCSD density, CASPT2, CASPT2-K, improved NEVPT2
   Axel Koslowski         : Symmetry handling
   Simone Kossmann        : Meta GGA functionals, TD-DFT gradient, OOMP2, (MP2 Hessian; deprecated post 5.0)
   Lucas Lang             : DCDCAS
   Marvin Lechner         : AUTO-CI (C++ implementation), FIC-MRCC
   Spencer Leger          : CASSCF response
   Dagmar Lenk            : GEPOL surface, SMD, ORCA-2-JSON
   Dimitrios Liakos       : Extrapolation schemes; Compound Job, initial MDCI parallelization
   Dimitrios Manganas     : Further ROCIS development; embedding schemes. LFT, Crystal Embedding
   Dimitrios Pantazis     : SARC Basis sets
   Anastasios Papadopoulos: AUTO-CI, single reference methods and gradients
   Taras Petrenko         : pre 6.0 DFT Hessian and TD-DFT gradient, (ASA, deprecated), ECA, 1-Electron XAS/XES, NRVS
   Peter Pinski           : DLPNO-MP2, DLPNO-MP2 Gradient
   Christoph Reimann      : Effective Core Potentials
   Marius Retegan         : Local ZFS, SOC
   Christoph Riplinger    : Optimizer, TS searches, QM/MM, DLPNO-CCSD(T), (RO)-DLPNO pert. Triples
   Michael Roemelt        : Original ROCIS implementation
   Masaaki Saitow         : Open-shell DLPNO-CCSD energy and density
   Barbara Sandhoefer     : DKH picture change effects
   Kantharuban Sivalingam : CASSCF convergence/infrastructure, NEVPT2 and variants, FIC-MRCI
   Bernardo de Souza      : ESD, SOC TD-DFT
   Georgi Stoychev        : AutoAux, RI-MP2 NMR, DLPNO-MP2 response, X2C
   Van Anh Tran           : RI-MP2 g-tensors
   Willem Van den Heuvel  : Paramagnetic NMR
   Zikuan Wang            : NOTCH, Electric field optimization 
   Frank Wennmohs         : Technical directorship and infrastructure
   Hang Xu                : AUTO-CI-Response properties 


 We gratefully acknowledge several colleagues who have allowed us to
 interface, adapt or use parts of their codes:
   Stefan Grimme, W. Hujo, H. Kruse, P. Pracht,  : VdW corrections, initial TS optimization,
                  C. Bannwarth, S. Ehlert,         DFT functionals, gCP, sTDA/sTD-DF
                  L. Wittmann, M. Mueller
   Ed Valeev, F. Pavosevic, A. Kumar             : LibInt (2-el integral package), F12 methods
   Garnet Chan, S. Sharma, J. Yang, R. Olivares  : DMRG
   Ulf Ekstrom                                   : XCFun DFT Library
   Mihaly Kallay                                 : mrcc  (arbitrary order and MRCC methods)
   Frank Weinhold                                : gennbo (NPA and NBO analysis)
   Simon Mueller                                 : openCOSMO-RS
   Christopher J. Cramer and Donald G. Truhlar   : smd solvation model
   Lars Goerigk                                  : TD-DFT with DH, B97 family of functionals
   V. Asgeirsson, H. Jonsson                     : NEB implementation
   FAccTs GmbH                                   : IRC, NEB, NEB-TS, DLPNO-Multilevel, CI-OPT
                                                   MM, QMMM, 2- and 3-layer-ONIOM, Crystal-QMMM,
                                                   LR-CPCM, SF, NACMEs, symmetry and pop. for TD-DFT,
                                                   nearIR, NL-DFT gradient (VV10), updates on ESD,
                                                   ML-optimized integration grids, MBIS, APM,
                                                   GOAT, DOCKER, SOLVATOR, interface openCOSMO-RS
   S Lehtola, MJT Oliveira, MAL Marques          : LibXC Library
   Liviu Ungur et al                             : ANISO software


 Your calculation uses the libint2 library for the computation of 2-el integrals
 For citations please refer to: http://libint.valeyev.net

 Your ORCA version has been built with support for libXC version: 6.2.2
 For citations please refer to: https://libxc.gitlab.io

 This ORCA versions uses:
   CBLAS   interface :  Fast vector & matrix operations
   LAPACKE interface :  Fast linear algebra routines
   SCALAPACK package :  Parallel linear algebra routines
   Shared memory     :  Shared parallel matrices
   BLAS/LAPACK       :  OpenBLAS 0.3.27  USE64BITINT DYNAMIC_ARCH NO_AFFINITY SkylakeX SINGLE_THREADED
        Core in use  :  SkylakeX
   Copyright (c) 2011-2014, The OpenBLAS Project




***************************************
The coordinates will be read from file: xtb_opt.xyz
***************************************


Your calculation utilizes the geometrical counterpoise correction gCP
Please cite in your paper:
H.Kruse, S. Grimme J.Chem.Phys., 136, (2012), 154101 
   

Your calculation utilizes the atom-pairwise dispersion correction
based on EEQ partial charges (D4)


Your calculation utilizes the SMD solvation module
Please cite in your paper:
A.V. Marenich, C.J. Cramer, D.G. Truhlar J. Phys. Chem. B, 113, (2009), 6378 

================================================================================

----- Orbital basis set information -----
Your calculation utilizes the basis: def2-mTZVPP
   Stefan Grimme, Andreas Hansen, Sebastian Ehlert, and Jan-Michael Mewes 
   J. Chem. Phys. 154, 064103 (2021). DOI: 10.1063/5.0040021

----- AuxJ basis set information -----
Your calculation utilizes the auxiliary basis: def2/J
   F. Weigend, Phys. Chem. Chem. Phys. 8, 1057 (2006).

================================================================================
                                        WARNINGS
                       Please study these warnings very carefully!
================================================================================

WARNING: Old DensityContainer found on disk!
         Will remove this file - 
         If you want to keep old densities, please start your calculation with a different basename. 

Using LibXC functional ID 497 : Re-regularized SCAN exchange by Furness et al
[ 1]  J. W. Furness, A. D. Kaplan, J. Ning, J. P. Perdew, and J. Sun.,  J. Phys. Chem. Lett. 11, 8208-8215 (2020)
[ 2]  J. W. Furness, A. D. Kaplan, J. Ning, J. P. Perdew, and J. Sun.,  J. Phys. Chem. Lett. 11, 9248-9248 (2020)
Using LibXC functional ID 498 : Re-regularized SCAN correlation by Furness et al
[ 1]  J. W. Furness, A. D. Kaplan, J. Ning, J. P. Perdew, and J. Sun.,  J. Phys. Chem. Lett. 11, 8208-8215 (2020)
[ 2]  J. W. Furness, A. D. Kaplan, J. Ning, J. P. Perdew, and J. Sun.,  J. Phys. Chem. Lett. 11, 9248-9248 (2020)
Using LibXC functional ID 497 : Re-regularized SCAN exchange by Furness et al
[ 1]  J. W. Furness, A. D. Kaplan, J. Ning, J. P. Perdew, and J. Sun.,  J. Phys. Chem. Lett. 11, 8208-8215 (2020)
[ 2]  J. W. Furness, A. D. Kaplan, J. Ning, J. P. Perdew, and J. Sun.,  J. Phys. Chem. Lett. 11, 9248-9248 (2020)
Using LibXC functional ID 498 : Re-regularized SCAN correlation by Furness et al
[ 1]  J. W. Furness, A. D. Kaplan, J. Ning, J. P. Perdew, and J. Sun.,  J. Phys. Chem. Lett. 11, 8208-8215 (2020)
[ 2]  J. W. Furness, A. D. Kaplan, J. Ning, J. P. Perdew, and J. Sun.,  J. Phys. Chem. Lett. 11, 9248-9248 (2020)

================================================================================
                                       INPUT FILE
================================================================================
NAME = xtb_opt.inp
|  1> ! r2scan-3c def2/J RI DEFGRID2 scfconv7 ENGRAD tightSCF miniprint
|  2> %cpcm
|  3>     smd true
|  4>     smdsolvent "water"
|  5> end
|  6> * xyzfile 0 1 xtb_opt.xyz
|  7> 
|  8>                          ****END OF INPUT****
================================================================================

                     *******************************
                     * Energy+Gradient Calculation *
                     *******************************

---------------------------------
CARTESIAN COORDINATES (ANGSTROEM)
---------------------------------
  C     -2.083218    0.703704    0.570308
  C     -1.367520    0.259025   -0.703382
  C     -0.549772   -1.022129   -0.537078
  C      0.555336   -0.930562    0.533430
  C      1.485398    0.149111    0.271796
  N      2.199612    1.032627    0.041740
  H     -2.736307   -0.089940    0.950858
  H     -1.374484    0.965673    1.363148
  H     -2.701427    1.586582    0.380460
  H     -2.105536    0.086980   -1.495115
  H     -0.713367    1.065275   -1.060167
  H     -0.089277   -1.294814   -1.492183
  H     -1.205789   -1.848586   -0.242340
  H      0.129873   -0.774007    1.530809
  H      1.131055   -1.861716    0.570689

----------------------------
CARTESIAN COORDINATES (A.U.)
----------------------------
  NO LB      ZA    FRAG     MASS         X           Y           Z
   0 C     6.0000    0    12.011   -3.936712    1.329808    1.077726
   1 C     6.0000    0    12.011   -2.584238    0.489486   -1.329199
   2 C     6.0000    0    12.011   -1.038918   -1.931544   -1.014931
   3 C     6.0000    0    12.011    1.049433   -1.758507    1.008036
   4 C     6.0000    0    12.011    2.806996    0.281779    0.513620
   5 N     7.0000    0    14.007    4.156664    1.951382    0.078876
   6 H     1.0000    0     1.008   -5.170870   -0.169962    1.796862
   7 H     1.0000    0     1.008   -2.597398    1.824858    2.575976
   8 H     1.0000    0     1.008   -5.104957    2.998205    0.718965
   9 H     1.0000    0     1.008   -3.978887    0.164369   -2.825359
  10 H     1.0000    0     1.008   -1.348068    2.013077   -2.003425
  11 H     1.0000    0     1.008   -0.168709   -2.446843   -2.819817
  12 H     1.0000    0     1.008   -2.278611   -3.493322   -0.457956
  13 H     1.0000    0     1.008    0.245424   -1.462661    2.892810
  14 H     1.0000    0     1.008    2.137384   -3.518133    1.078446

------------------------------------------------------------------------------
                   ___                                                        
                  /   \      - P O W E R E D   B Y -                         
                 /     \                                                     
                 |  |  |   _    _      __       _____    __    __             
                 |  |  |  | |  | |    /  \     |  _  \  |  |  /  |          
                  \  \/   | |  | |   /    \    | | | |  |  | /  /          
                 / \  \   | |__| |  /  /\  \   | |_| |  |  |/  /          
                |  |  |   |  __  | /  /__\  \  |    /   |      \           
                |  |  |   | |  | | |   __   |  |    \   |  |\   \          
                \     /   | |  | | |  |  |  |  | |\  \  |  | \   \       
                 \___/    |_|  |_| |__|  |__|  |_| \__\ |__|  \__/        
                                                                              
                      - O R C A' S   B I G   F R I E N D -                    
                                      &                                       
                       - I N T E G R A L  F E E D E R -                       
                                                                              
 v1 FN, 2020, v2 2021, v3 2022-2024                                           
------------------------------------------------------------------------------


----------------------
SHARK INTEGRAL PACKAGE
----------------------

Number of atoms                             ...     15
Number of basis functions                   ...    164
Number of shells                            ...     82
Maximum angular momentum                    ...      2
Integral batch strategy                     ... SHARK/LIBINT Hybrid
RI-J (if used) integral strategy            ... SPLIT-RIJ (Revised 2003 algorithm where possible)
Printlevel                                  ...      1
Contraction scheme used                     ... SEGMENTED contraction
Prescreening option                         ... SCHWARTZ
   Thresh                                   ... 3.000e-11
   Tcut                                     ... 1.000e-12
   Tpresel                                  ... 1.000e-12 
Coulomb Range Separation                    ... NOT USED
Exchange Range Separation                   ... NOT USED
Multipole approximations                    ... NOT USED
Finite Nucleus Model                        ... NOT USED
CABS basis                                  ... NOT available
Auxiliary Coulomb fitting basis             ... AVAILABLE
   # of basis functions in Aux-J            ...    393
   # of shells in Aux-J                     ...    135
   Maximum angular momentum in Aux-J        ...      4
Auxiliary J/K fitting basis                 ... NOT available
Auxiliary Correlation fitting basis         ... NOT available
Auxiliary 'external' fitting basis          ... NOT available

Checking pre-screening integrals            ... done (  0.0 sec) Dimension = 82
Check shell pair data                       ... done (  0.0 sec)
Shell pair information
Shell pair cut-off parameter TPreSel        ...   1.0e-12
Total number of shell pairs                 ...      3403
Shell pairs after pre-screening             ...      3226
Total number of primitive shell pairs       ...     12094
Primitive shell pairs kept                  ...      8580
          la=0 lb=0:   1093 shell pairs
          la=1 lb=0:   1232 shell pairs
          la=1 lb=1:    368 shell pairs
          la=2 lb=0:    320 shell pairs
          la=2 lb=1:    185 shell pairs
          la=2 lb=2:     28 shell pairs

Calculating one electron integrals          ... done (  0.0 sec)
Calculating RI/J V-Matrix + Cholesky decomp.... done (  0.1 sec)
Calculating Nuclear repulsion               ... done (  0.0 sec) ENN=    220.127099076603 Eh

Diagonalization of the overlap matrix:
Smallest eigenvalue                        ... 1.318e-04
Time for diagonalization                   ...    0.006 sec
Threshold for overlap eigenvalues          ... 1.000e-07
Number of eigenvalues below threshold      ... 0
Time for construction of square roots      ...    0.015 sec
Total time needed                          ...    0.029 sec

-------------------
DFT GRID GENERATION
-------------------

General Integration Accuracy     IntAcc      ... 4.388
Radial Grid Type                 RadialGrid  ... OptM3 with GC (2021)
Angular Grid (max. ang.)         AngularGrid ... 4 (Lebedev-302)
Angular grid pruning method      GridPruning ... 4 (adaptive)
Weight generation scheme         WeightScheme... mBecke (2022)
Basis function cutoff            BFCut       ... 1.0000e-11
Integration weight cutoff        WCut        ... 1.0000e-14
Partially contracted basis set               ... off
Rotationally invariant grid construction     ... off
Angular grids for H and He will be reduced by one unit

Total number of grid points                  ...    65126
Total number of batches                      ...     1026
Average number of points per batch           ...       63
Average number of grid points per atom       ...     4342
Initializing property integral containers    ... done (  0.0 sec)

SHARK setup successfully completed in   0.9 seconds

Maximum memory used throughout the entire STARTUP-calculation: 29.0 MB
Occupation numbers will be reassigned to an Aufbau configuration
             **** ENERGY FILE WAS UPDATED (xtb_opt.en.tmp) ****
Finished Guess after   0.4 sec
Maximum memory used throughout the entire GUESS-calculation: 11.3 MB
--------------------
CPCM SOLVATION MODEL
--------------------
CPCM parameters:
  Epsilon                                         ...      78.3550
  Refrac                                          ...       1.3328
  Rsolv                                           ...       1.3000
  Surface type                                    ... GAUSSIAN VDW
  Discretization scheme                           ... Constant charge density
    Threshold for H atoms                         ...       5.0000 (charges/Ang^2)
    Threshold for non-H atoms                     ...       5.0000 (charges/Ang^2)
  Epsilon function type                           ...         CPCM
Solvent:                                          ... WATER
SMD-CDS solvent descriptors:
  Soln                                            ...       1.3328
  Soln25                                          ...       1.3323
  Sola                                            ...       0.0000
  Solb                                            ...       0.0000
  Solg                                            ...       0.0000
  Solc                                            ...       0.0000
  Solh                                            ...       0.0000
Radii:
  Scheme                                          ... Element-dependent radii
  Radius for C  used is    3.4960 Bohr (=   1.8500 Ang.)
  Radius for N  used is    3.5716 Bohr (=   1.8900 Ang.)
  Radius for H  used is    2.2677 Bohr (=   1.2000 Ang.)
Calculating surface                               ...        done! (  0.0s)
Cavity surface points                             ...         1211
Cavity Volume                                     ...     746.0186
Cavity Surface-area                               ...     493.5199
Calculating surface distance matrix               ...        done! (  0.0s)
Performing Cholesky decomposition & store         ...        done! (  0.1s)
Overall time for CPCM initialization              ...                 0.1s

----------------------------------------D-I-I-S--------------------------------------------
Iteration    Energy (Eh)           Delta-E    RMSDP     MaxDP     DIISErr   Damp  Time(sec)
-------------------------------------------------------------------------------------------
               ***  Starting incremental Fock matrix formation  ***
    1    -250.6285211958469290     0.00e+00  6.96e-05  1.83e-03  1.26e-02  0.700   1.9
    2    -250.6286258256829456    -1.05e-04  6.45e-05  1.64e-03  9.54e-03  0.700   1.6
                               ***Turning on AO-DIIS***
    3    -250.6287050056353110    -7.92e-05  4.93e-05  1.23e-03  6.87e-03  0.700   1.6
    4    -250.6287609203463376    -5.59e-05  1.19e-04  2.96e-03  4.86e-03  0.000   1.9
                              *** Initializing SOSCF ***
---------------------------------------S-O-S-C-F--------------------------------------
Iteration    Energy (Eh)           Delta-E    RMSDP     MaxDP     MaxGrad    Time(sec)
--------------------------------------------------------------------------------------
    5    -250.6288916748276279    -1.31e-04  5.04e-06  1.19e-04  1.20e-04     1.7
               *** Restarting incremental Fock matrix formation ***
    6    -250.6288917252065289    -5.04e-08  3.74e-06  8.84e-05  2.53e-05     1.9
    7    -250.6288917129858191     1.22e-08  1.86e-06  3.76e-05  4.70e-05     1.5
                 **** Energy Check signals convergence ****

               *****************************************************
               *                     SUCCESS                       *
               *           SCF CONVERGED AFTER   7 CYCLES          *
               *****************************************************


SMD CDS free energy correction energy :                 4.33577     Kcal/mol
Total Energy after SMD CDS correction =              -250.621982222 Eh
             **** ENERGY FILE WAS UPDATED (xtb_opt.en.tmp) ****

----------------
TOTAL SCF ENERGY
----------------

Total Energy       :       -250.62198222208337 Eh           -6819.77085 eV

Components:
Nuclear Repulsion  :        220.12709907660258 Eh            5989.96289 eV
Electronic Energy  :       -470.73964037094544 Eh          -12809.47684 eV
One Electron Energy:       -772.14029447217013 Eh          -21011.00559 eV
Two Electron Energy:        301.40065410122469 Eh            8201.52876 eV
CPCM Dielectric    :         -0.01635041864295 Eh              -0.44492 eV
SMD CDS (Gcds)     :          0.00690949090245 Eh               0.18802 eV

Virial components:
Potential Energy   :       -500.00180710316158 Eh          -13605.74087 eV
Kinetic Energy     :        249.37982488107821 Eh            6785.97003 eV
Virial Ratio       :          2.00498098569761

DFT components:
N(Alpha)           :       22.999942423543 electrons
N(Beta)            :       22.999942423543 electrons
N(Total)           :       45.999884847085 electrons
E(X)               :      -35.796512119337 Eh       
E(C)               :       -1.433041624540 Eh       
E(XC)              :      -37.229553743878 Eh       

CPCM Solvation Model Properties:
Surface-charge          :         -0.03632896184632
Corrected charge        :         -0.00000000000000
Outlying charge corr.   :          0.00010862461913 Eh               0.00296 eV
Free-energy (cav+disp)  :          0.00690949090245 Eh               0.18802 eV

---------------
SCF CONVERGENCE
---------------

  Last Energy change         ...   -1.2221e-08  Tolerance :   1.0000e-07
  Last MAX-Density change    ...    3.7557e-05  Tolerance :   1.0000e-07
  Last RMS-Density change    ...    1.8586e-06  Tolerance :   5.0000e-09
  Last DIIS Error            ...    1.2021e-04  Tolerance :   1.0000e-07
  Last Orbital Gradient      ...    4.7049e-05  Tolerance :   1.0000e-04
  Last Orbital Rotation      ...    4.5559e-05  Tolerance :   1.0000e-04


----------------
ORBITAL ENERGIES
----------------

  NO   OCC          E(Eh)            E(eV) 
   0   2.0000     -14.158796      -385.2804 
   1   2.0000     -10.078933      -274.2617 
   2   2.0000     -10.065559      -273.8978 
   3   2.0000     -10.036405      -273.1045 
   4   2.0000     -10.024267      -272.7742 
   5   2.0000     -10.012925      -272.4655 
   6   2.0000      -0.877874       -23.8882 
   7   2.0000      -0.778235       -21.1769 
   8   2.0000      -0.711790       -19.3688 
   9   2.0000      -0.630369       -17.1532 
  10   2.0000      -0.548920       -14.9369 
  11   2.0000      -0.468125       -12.7383 
  12   2.0000      -0.442985       -12.0542 
  13   2.0000      -0.422617       -11.5000 
  14   2.0000      -0.379857       -10.3364 
  15   2.0000      -0.368952       -10.0397 
  16   2.0000      -0.358978        -9.7683 
  17   2.0000      -0.338600        -9.2138 
  18   2.0000      -0.315791        -8.5931 
  19   2.0000      -0.313398        -8.5280 
  20   2.0000      -0.296709        -8.0739 
  21   2.0000      -0.291929        -7.9438 
  22   2.0000      -0.290361        -7.9011 
  23   0.0000       0.001106         0.0301 
  24   0.0000       0.005376         0.1463 
  25   0.0000       0.065533         1.7833 
  26   0.0000       0.120252         3.2722 
  27   0.0000       0.124337         3.3834 
  28   0.0000       0.131788         3.5861 
  29   0.0000       0.148205         4.0329 
  30   0.0000       0.161294         4.3890 
  31   0.0000       0.165402         4.5008 
  32   0.0000       0.175626         4.7790 
  33   0.0000       0.184371         5.0170 
*Only the first 10 virtual orbitals were printed.
Total SCF time: 0 days 0 hours 0 min 12 sec 
Finished LeanSCF after  12.7 sec

Maximum memory used throughout the entire LEANSCF-calculation: 20.7 MB


-------------------------------------------------------------------------------
                          DFT DISPERSION CORRECTION                            
                                                                               
                                DFTD4 V3.4.0                                   
-------------------------------------------------------------------------------
-------------------------   ----------------
Dispersion correction           -0.003658969
-------------------------   ----------------

------------------   -----------------
gCP correction             0.006203587
------------------   -----------------

-------------------------   --------------------
FINAL SINGLE POINT ENERGY      -250.619437604950
-------------------------   --------------------

------------------------------------------------------------------------------
                         ORCA SCF GRADIENT CALCULATION
------------------------------------------------------------------------------

Nuc. rep. gradient        (SHARK) ... done (  0.0 sec)
HCore & Overlap gradient  (SHARK) ... done (  0.1 sec)
Split-RIJ-J gradient      (SHARK) ... done (  0.8 sec)
XC gradient                       ... done (  3.2 sec)
CPCM gradient                     ... done (  0.5 sec)
SMD gradient                      ... done (  0.0 sec)
Dispersion correction             ... done (  0.0 sec)

-------------------
DISPERSION GRADIENT
-------------------

   1   C   :   -0.000072139    0.000030782    0.000022545
   2   C   :   -0.000044090    0.000010887   -0.000028767
   3   C   :   -0.000007995   -0.000039125   -0.000020933
   4   C   :    0.000033856   -0.000037799    0.000018588
   5   C   :    0.000081016    0.000002617    0.000009835
   6   N   :    0.000110056    0.000050099    0.000002964
   7   H   :   -0.000033823    0.000009157    0.000010557
   8   H   :   -0.000028751    0.000018325    0.000016073
   9   H   :   -0.000030664    0.000021883    0.000005870
  10   H   :   -0.000025409    0.000004024   -0.000019849
  11   H   :   -0.000012791    0.000012090   -0.000014203
  12   H   :    0.000001921   -0.000019812   -0.000020812
  13   H   :   -0.000008627   -0.000024581   -0.000007518
  14   H   :    0.000014944   -0.000014047    0.000018024
  15   H   :    0.000022498   -0.000024500    0.000007626

Difference to translation invariance:
           :    0.0000000000   -0.0000000000    0.0000000000

Difference to rotation invariance:
           :    0.0000000000   -0.0000000000   -0.0000000000

Norm of the Dispersion gradient    ...    0.0002122660
RMS gradient                       ...    0.0000316427
MAX gradient                       ...    0.0001100558
gCP correction                   ... done

------------------
CARTESIAN GRADIENT
------------------

   1   C   :   -0.000274943    0.000148849    0.000228191
   2   C   :   -0.000045136    0.000121586   -0.000443187
   3   C   :    0.000119735   -0.000447425    0.000286860
   4   C   :   -0.001017669    0.001055010   -0.000129672
   5   C   :    0.001425244   -0.001844316    0.000037234
   6   N   :   -0.000289625    0.001010674   -0.000129000
   7   H   :   -0.000146855    0.000007648   -0.000075017
[...]
One Electron Energy:       -772.39727736949828 Eh          -21017.99845 eV
Two Electron Energy:        301.52825104255174 Eh            8205.00085 eV
CPCM Dielectric    :         -0.01633893141328 Eh              -0.44460 eV
SMD CDS (Gcds)     :          0.00688612102777 Eh               0.18738 eV

Virial components:
Potential Energy   :       -500.00518773803117 Eh          -13605.83287 eV
Kinetic Energy     :        249.38316971999558 Eh            6786.06104 eV
Virial Ratio       :          2.00496764997987

DFT components:
N(Alpha)           :       22.999943927920 electrons
N(Beta)            :       22.999943927920 electrons
N(Total)           :       45.999887855839 electrons
E(X)               :      -35.797286191767 Eh       
E(C)               :       -1.433118545171 Eh       
E(XC)              :      -37.230404736937 Eh       

CPCM Solvation Model Properties:
Surface-charge          :         -0.03633153718109
Corrected charge        :          0.00000000000000
Outlying charge corr.   :          0.00010867128801 Eh               0.00296 eV
Free-energy (cav+disp)  :          0.00688612102777 Eh               0.18738 eV

---------------
SCF CONVERGENCE
---------------

  Last Energy change         ...    2.0965e-09  Tolerance :   1.0000e-07
  Last MAX-Density change    ...    3.2171e-05  Tolerance :   1.0000e-07
  Last RMS-Density change    ...    1.3169e-06  Tolerance :   5.0000e-09
  Last DIIS Error            ...    3.7766e-05  Tolerance :   1.0000e-07
  Last Orbital Gradient      ...    7.5132e-06  Tolerance :   1.0000e-04
  Last Orbital Rotation      ...    1.1230e-05  Tolerance :   1.0000e-04


----------------
ORBITAL ENERGIES
----------------

  NO   OCC          E(Eh)            E(eV) 
   0   2.0000     -14.158521      -385.2729 
   1   2.0000     -10.078952      -274.2622 
   2   2.0000     -10.065548      -273.8975 
   3   2.0000     -10.036292      -273.1014 
   4   2.0000     -10.024276      -272.7744 
   5   2.0000     -10.012862      -272.4638 
   6   2.0000      -0.877921       -23.8894 
   7   2.0000      -0.778420       -21.1819 
   8   2.0000      -0.711790       -19.3688 
   9   2.0000      -0.630300       -17.1513 
  10   2.0000      -0.548977       -14.9384 
  11   2.0000      -0.468034       -12.7358 
  12   2.0000      -0.443121       -12.0579 
  13   2.0000      -0.422722       -11.5029 
  14   2.0000      -0.380056       -10.3419 
  15   2.0000      -0.368932       -10.0392 
  16   2.0000      -0.358710        -9.7610 
  17   2.0000      -0.338592        -9.2135 
  18   2.0000      -0.315803        -8.5934 
  19   2.0000      -0.313375        -8.5274 
  20   2.0000      -0.296549        -8.0695 
  21   2.0000      -0.292128        -7.9492 
  22   2.0000      -0.290317        -7.8999 
  23   0.0000       0.001330         0.0362 
  24   0.0000       0.005547         0.1509 
  25   0.0000       0.065496         1.7822 
  26   0.0000       0.120067         3.2672 
  27   0.0000       0.124663         3.3923 
  28   0.0000       0.131252         3.5716 
  29   0.0000       0.148499         4.0409 
  30   0.0000       0.161482         4.3941 
  31   0.0000       0.166436         4.5289 
  32   0.0000       0.175025         4.7627 
  33   0.0000       0.183138         4.9834 
*Only the first 10 virtual orbitals were printed.
Total SCF time: 0 days 0 hours 0 min 4 sec 
Finished LeanSCF after   4.7 sec

Maximum memory used throughout the entire LEANSCF-calculation: 20.6 MB


-------------------------------------------------------------------------------
                          DFT DISPERSION CORRECTION                            
                                                                               
                                DFTD4 V3.4.0                                   
-------------------------------------------------------------------------------
-------------------------   ----------------
Dispersion correction           -0.003662577
-------------------------   ----------------

------------------   -----------------
gCP correction             0.006199774
------------------   -----------------

-------------------------   --------------------
FINAL SINGLE POINT ENERGY      -250.619480821068
-------------------------   --------------------

------------------------------------------------------------------------------
                         ORCA SCF GRADIENT CALCULATION
------------------------------------------------------------------------------

Nuc. rep. gradient        (SHARK) ... done (  0.0 sec)
HCore & Overlap gradient  (SHARK) ... done (  0.1 sec)
Split-RIJ-J gradient      (SHARK) ... done (  0.8 sec)
XC gradient                       ... done (  3.2 sec)
CPCM gradient                     ... done (  0.5 sec)
SMD gradient                      ... done (  0.0 sec)
Dispersion correction             ... done (  0.0 sec)

-------------------
DISPERSION GRADIENT
-------------------

   1   C   :   -0.000071883    0.000030805    0.000022523
   2   C   :   -0.000043886    0.000010957   -0.000028879
   3   C   :   -0.000008136   -0.000039133   -0.000021011
   4   C   :    0.000033629   -0.000037927    0.000018454
   5   C   :    0.000080674    0.000002803    0.000010025
   6   N   :    0.000110227    0.000050013    0.000003567
   7   H   :   -0.000033788    0.000009048    0.000010749
   8   H   :   -0.000028584    0.000018689    0.000015913
   9   H   :   -0.000030665    0.000021734    0.000005816
  10   H   :   -0.000025382    0.000004075   -0.000019922
  11   H   :   -0.000012697    0.000012081   -0.000014253
  12   H   :    0.000001865   -0.000019879   -0.000020914
  13   H   :   -0.000008676   -0.000024561   -0.000007568
  14   H   :    0.000014780   -0.000014150    0.000017968
  15   H   :    0.000022520   -0.000024554    0.000007530

Difference to translation invariance:
           :   -0.0000000000   -0.0000000000    0.0000000000

Difference to rotation invariance:
           :   -0.0000000000    0.0000000000    0.0000000000

Norm of the Dispersion gradient    ...    0.0002120996
RMS gradient                       ...    0.0000316179
MAX gradient                       ...    0.0001102268
gCP correction                   ... done

------------------
CARTESIAN GRADIENT
------------------

   1   C   :    0.000036394   -0.000065885   -0.000149654
   2   C   :    0.000025236    0.000019760    0.000024640
   3   C   :   -0.000135987    0.000074206   -0.000029694
   4   C   :    0.000092891   -0.000049951   -0.000028540
   5   C   :   -0.000007921    0.000080879   -0.000033110
   6   N   :    0.000027934    0.000006915   -0.000016779
   7   H   :   -0.000078240   -0.000069988    0.000046737
   8   H   :    0.000033947    0.000031167    0.000092873
   9   H   :   -0.000032107    0.000017475   -0.000025728
  10   H   :    0.000052609    0.000018023   -0.000036185
  11   H   :    0.000031196    0.000012364    0.000009727
  12   H   :   -0.000015384   -0.000031667    0.000015135
  13   H   :   -0.000004620   -0.000013505    0.000060253
  14   H   :   -0.000018481    0.000004837    0.000074331
  15   H   :   -0.000007469   -0.000034629   -0.000004005

Difference to translation invariance:
           :    0.0000000000    0.0000000000   -0.0000000000

Difference to rotation invariance:
           :   -0.0001422202   -0.0000871606    0.0000194005

Norm of the Cartesian gradient     ...    0.0003454895
RMS gradient                       ...    0.0000515025
MAX gradient                       ...    0.0001496543

-------
TIMINGS
-------

Total SCF gradient time     ....        5.069 sec

Densities                   ....       0.000 sec  (  0.0%)
One electron gradient       ....       0.144 sec  (  2.8%)
RI-J Coulomb gradient       ....       0.801 sec  ( 15.8%)
XC gradient                 ....       3.162 sec  ( 62.4%)
CPCM gradient               ....       0.469 sec  (  9.3%)
   A-Matrix (El+Nuc)        ....       0.048 sec  (  0.9%)
   Potential                ....       0.422 sec  (  8.3%)
SMD gradient                ....       0.014 sec  (  0.3%)

Maximum memory used throughout the entire SCFGRAD-calculation: 31.3 MB

------------------------------------------------------------------------------
                              ORCA PROPERTY CALCULATIONS
------------------------------------------------------------------------------

GBWName                                 ... xtb_opt.gbw
Number of atoms                         ...     15
Number of basis functions               ...    164
Max core memory                         ...   1024 MB

Electric properties:
Dipole moment                           ... YES
Quadrupole moment                       ...  NO
Static polarizability (Dipole/Dipole)   ...  NO
Static polarizability (Dipole/Quad.)    ...  NO
Static polarizability (Quad./Quad.)     ...  NO
Static polarizability (Velocity)        ...  NO

Atomic electric properties:
Dipole moment                           ...  NO
Quadrupole moment                       ...  NO
Static polarizability                   ...  NO

Choice of electric origin               ... Center of mass
Position of electric origin             ...    -0.059348     0.050330     0.066420

General magnetic properties:
Magnetizability                         ...  NO

EPR properties:
g-Tensor (aka g-matrix)                 ...  NO
Zero-Field splitting spin-orbit         ...  NO
Zero-field splitting spin-spin          ...  NO
Hyperfine couplings                     ...  NO (   0 nuclei)
Quadrupole couplings                    ...  NO (   0 nuclei)
Contact density                         ...  NO (   0 nuclei)

NMR properties:
Chemical shifts                         ...  NO (   0 nuclei)
Spin-rotation constants                 ...  NO (   0 nuclei)
Spin-spin couplings                     ...  NO (   0 nuclei,    0 pairs)

Choice of magnetic origin               ... GIAO
Position of magnetic origin             ...     0.000000     0.000000     0.000000

Properties with geometric perturbations:
SCF Hessian                             ...  NO
IR spectrum                             ...  NO
VCD spectrum                            ...  NO
X-ray spectroscopy properties:
SCF XES/XAS/RIXS spectra                ...  NO


-------------
DIPOLE MOMENT
-------------

Method             : SCF
Type of density    : Electron Density
Multiplicity       :   1
Irrep              :   0
Energy             :  -250.6220180180355612 Eh
Relativity type    : 
Basis              : AO
                                X                 Y                 Z
Electronic contribution:      7.317108972       0.666728396       0.126604351
Nuclear contribution   :     -8.778688834      -2.253034610       0.163341014
                        -----------------------------------------
Total Dipole Moment    :     -1.461579863      -1.586306214       0.289945365
                        -----------------------------------------
Magnitude (a.u.)       :      2.176384942
Magnitude (Debye)      :      5.531930892



--------------------
Rotational spectrum 
--------------------
 
Rotational constants in cm-1:             0.194263             0.073854             0.064846 
Rotational constants in MHz :          5823.870520          2214.079336          1944.032916 

Dipole components along the rotational axes: 
x,y,z [a.u.] :     1.519966     1.432912    -0.610833 
x,y,z [Debye]:     3.863446     3.642174    -1.552615 

 

Dipole moment calculation done in   0.0 sec 

Maximum memory used throughout the entire PROP-calculation: 9.6 MB

--------------------------------
SUGGESTED CITATIONS FOR THIS RUN
--------------------------------

Below you find a list of papers that are relevant to this ORCA run
We neither can nor want to force you to cite these papers, but we appreciate if you do
You receive ORCA, which is the product of decades of hard work by many enthusiastic individuals, for free
The only thing we kindly ask in return is that you cite our papers,
We deeply appreciate it, if you show your appreciation for ORCA by not just citing the generic ORCA reference.

Please note that relegating all ORCA citations to the supporting information does *not* help us.
SI sections are not indexed - citations you put there will not count into any citation statistics
But we need these citations in order to attract the funding resources that allow us to do what we are doing

Therefore, if you are a happy ORCA user, please consider citing a few of the papers listed below in the main body of your paper

In addition to the list printed below, the program has created the file xtb_opt.bibtex that contains the list in bibtex format
You can import this file easily into all common literature databanks and citation aid programs


List of essential papers. We consider these as the minimum necessary citations

  1. Neese,F.
     Software update: the ORCA program system, version 5.0
     WIRES Comput. Molec. Sci., 2022 12(1)e1606
     doi.org/10.1002/wcms.1606
  2. Grimme,S.; Hansen,A.; Ehlert,S.; Mewes,J.
     r2SCAN-3c: A 'Swiss army knife' composite electronic-structure method
     J. Chem. Phys., 2021 154 064103
     doi.org/10.1063/5.0040021

List of papers to cite with high priority. The work reported in these papers was absolutely
necessary for this run to complete.
Our perspective: the developers of density functionals and basis sets usually get cited in chemistry papers
Good! But without the algorithms to do something with them, the functionals or basis sets would not do anything.
Hence, in our opinion, the algorithm design and method developments papers are equally worthy of getting cited

  1. Neese,F.
     An improvement of the resolution of the identity approximation for the formation of the Coulomb matrix
     J. Comp. Chem., 2003 24(14)1740-1747
     doi.org/10.1002/jcc.10318
  2. Garcia-Rates,M.; Neese,F.
     Effect of the Solute Cavity on the Solvation Energy and its Derivatives within the Framework of the Gaussian Charge Scheme
     J. Comput. Chem., 2020 41 922-939
     doi.org/10.1002/jcc.26139
  3. Neese,F.
     The SHARK Integral Generation and Digestion System
     J. Comp. Chem., 2022  1-16
     doi.org/10.1002/jcc.26942
  4. Lehtola,S.; Steigemann,C.; Oliveira,M.; Marques,M.
     Recent developments in Libxc - A comprehensive library of functionals for density functional theory
     Software X, 2018 7 
     doi.org/10.1016/j.softx.2017.11.002
  5. Caldeweyher,E.; Bannwarth,C.; Grimme,S.
     Extension of the D3 dispersion coefficient model
     J. Chem. Phys., 2017 147 034112-XXXX
     doi.org/10.1063/1.4993215
  6. Caldeweyher,E.; Ehlert,S.; Hansen,A.; Neugebauer,H.; Spicher,S.; Bannwarth,C.; Grimme,S.
     A generally applicable atomic-charge dependent London dispersion correction
     J. Chem. Phys., 2019 150 154122-XXXX
     doi.org/10.1063/1.5090222
  7. Caldeweyher,E.; Mewes,J.; Ehlert,S.; Grimme,S.
     Extension and evaluation of the D4 London-dispersion model for periodic systems
     Phys. Chem. Chem. Phys., 2020 22(16)8499-8512
     doi.org/10.1039/D0CP00502A

List of suggested additional citations. These are papers that are important in the 'surrounding' of 
of this run, or papers that preceded the highly important papers. If you like your results we are grateful for a citation.

  1. Neese,F.
     The ORCA program system
     WIRES Comput. Molec. Sci., 2012 2(1)73-78
     doi.org/10.1002/wcms.81
  2. Neese,F.
     Software update: the ORCA program system, version 4.0
     WIRES Comput. Molec. Sci., 2018 8(1)1-6
     doi.org/10.1002/wcms.1327
  3. Neese,F.; Wennmohs,F.; Becker,U.; Riplinger,C.
     The ORCA quantum chemistry program package
     J. Chem. Phys., 2020 152 Art. No. L224108
     doi.org/10.1063/5.0004608

List of optional additional citations

  1. Neese,F.
     Approximate second-order SCF convergence for spin unrestricted wavefunctions
     Chem. Phys. Lett., 2000 325(1-3)93-98
     doi.org/10.1016/s0009-2614(00)00662-x

Timings for individual modules:

Sum of individual times          ...       11.308 sec (=   0.188 min)
Startup calculation              ...        0.954 sec (=   0.016 min)   8.4 %
SCF iterations                   ...        5.064 sec (=   0.084 min)  44.8 %
Property calculations            ...        0.113 sec (=   0.002 min)   1.0 %
SCF Gradient evaluation          ...        5.177 sec (=   0.086 min)  45.8 %
                             ****ORCA TERMINATED NORMALLY****
TOTAL RUN TIME: 0 days 0 hours 0 minutes 12 seconds 203 msec
  ------------------------------------------------------------------------
          * successful ORCA run, taking over control again...

         :::::::::::::::::::::::::::::::::::::::::::::::::::::
         ::                  ORCA SUMMARY                   ::
         :::::::::::::::::::::::::::::::::::::::::::::::::::::
         :: total energy            -250.619480821068 Eh    ::
         :: gradient norm              0.000345489477 Eh/a0 ::
         :: HOMO-LUMO gap              0.000000000000 eV    ::
         :::::::::::::::::::::::::::::::::::::::::::::::::::::

           -------------------------------------------------
          |                Property Printout                |
           -------------------------------------------------
           -------------------------------------------------
          |                Geometry Summary                 |
           -------------------------------------------------

      molecular mass/u    :       83.1318495
   center of mass at/Å    :       -0.0314013       0.0266348       0.0351476
  moments of inertia/u·Å² :        0.8677441E+02   0.2282510E+03   0.2599575E+03
rotational constants/cm⁻¹ :        0.1942696E+00   0.7385568E-01   0.6484766E-01

 * 12 selected distances

     #   Z          #   Z                                           value/Å
     1   6 C        2   6 C                                       1.5264900
     2   6 C        3   6 C                                       1.5280407 (max)
     5   6 C        6   7 N                                       1.1588427
     1   6 C        7   1 H                                       1.0961932
     1   6 C        8   1 H                                       1.0953081
     1   6 C        9   1 H                                       1.0944867 (min)
     2   6 C       10   1 H                                       1.0960256
     2   6 C       11   1 H                                       1.0980483
     3   6 C       12   1 H                                       1.0947640
     3   6 C       13   1 H                                       1.0956504
     4   6 C       14   1 H                                       1.0955762
     4   6 C       15   1 H                                       1.0952016

 * 3 distinct bonds (by element types)

   Z      Z             #   av. dist./Å        max./Å        min./Å
   1 H    6 C           9     1.0956949     1.0980483     1.0944867
   6 C    6 C           2     1.5272654     1.5280407     1.5264900
   6 C    7 N           1     1.1588427     1.1588427     1.1588427


optimized geometry written to: xtbopt.coord


           -------------------------------------------------
          | TOTAL ENERGY             -250.619480821068 Eh   |
          | GRADIENT NORM               0.000345489477 Eh/α |
           -------------------------------------------------

------------------------------------------------------------------------
 * finished run on 2025/04/11 at 11:47:09.975     
------------------------------------------------------------------------
 total:
 * wall-time:     0 d,  0 h,  1 min, 53.826 sec
 *  cpu-time:     0 d,  0 h,  0 min,  0.913 sec
 * ratio c/w:     0.008 speedup
 SCF:
 * wall-time:     0 d,  0 h,  0 min, 12.163 sec
 *  cpu-time:     0 d,  0 h,  0 min,  0.291 sec
 * ratio c/w:     0.024 speedup
 ANC optimizer:
 * wall-time:     0 d,  0 h,  1 min, 41.642 sec
 *  cpu-time:     0 d,  0 h,  0 min,  0.611 sec
 * ratio c/w:     0.006 speedup

