
                                 *****************
                                 * O   R   C   A *
                                 *****************

                                            #,                                       
                                            ###                                      
                                            ####                                     
                                            #####                                    
                                            ######                                   
                                           ########,                                 
                                     ,,################,,,,,                         
                               ,,#################################,,                 
                          ,,##########################################,,             
                       ,#########################################, ''#####,          
                    ,#############################################,,   '####,        
                  ,##################################################,,,,####,       
                ,###########''''           ''''###############################       
              ,#####''   ,,,,##########,,,,          '''####'''          '####       
            ,##' ,,,,###########################,,,                        '##       
           ' ,,###''''                  '''############,,,                           
         ,,##''                                '''############,,,,        ,,,,,,###''
      ,#''                                            '''#######################'''  
     '                                                          ''''####''''         
             ,#######,   #######,   ,#######,      ##                                
            ,#'     '#,  ##    ##  ,#'     '#,    #''#        ,####,   ,####,        
            ##       ##  ##   ,#'  ##            #'  '#       #'       #'  '#        
            ##       ##  #######   ##           ,######,      #####,   #    #        
            '#,     ,#'  ##    ##  '#,     ,#' ,#      #,     #,   #   #,  ,#        
             '#######'   ##     ##  '#######'  #'      '#     '####' # '####'        



                #########################################################
                #                        -***-                          #
                #          Department of theory and spectroscopy        #
                #                                                       #
                #                      Frank Neese                      #
                #                                                       #
                #     Directorship, Architecture, Infrastructure        #
                #                    SHARK, DRIVERS                     #
                #        Core code/Algorithms in most modules           #
                #                                                       #
                #        Max Planck Institute fuer Kohlenforschung      #
                #                Kaiser Wilhelm Platz 1                 #
                #                 D-45470 Muelheim/Ruhr                 #
                #                      Germany                          #
                #                                                       #
                #                  All rights reserved                  #
                #                        -***-                          #
                #########################################################


                         Program Version 6.0.0  -   RELEASE  -


 With contributions from (in alphabetic order):
   Daniel Aravena         : Magnetic Suceptibility
   Michael Atanasov       : Ab Initio Ligand Field Theory (pilot matlab implementation)
   Alexander A. Auer      : GIAO ZORA, VPT2 properties, NMR spectrum
   Ute Becker             : All parallelization in ORCA, NUMFREQ, NUMCALC
   Giovanni Bistoni       : ED, misc. LED, open-shell LED, HFLD
   Martin Brehm           : Molecular dynamics
   Dmytro Bykov           : pre 5.0 version of the SCF Hessian
   Marcos Casanova-Páez   : Triplet and SCS-CIS(D). UHF-(DLPNO)-IP/EA/STEOM-CCSD. UHF-CVS-IP/STEOM-CCSD
   Vijay G. Chilkuri      : MRCI spin determinant printing, contributions to CSF-ICE
   Pauline Colinet        : FMM embedding
   Dipayan Datta          : RHF DLPNO-CCSD density
   Achintya Kumar Dutta   : EOM-CC, STEOM-CC
   Nicolas Foglia         : Exact transition moments, OPA infrastructure, MCD improvements
   Dmitry Ganyushin       : Spin-Orbit,Spin-Spin,Magnetic field MRCI
   Miquel Garcia          : C-PCM and meta-GGA Hessian, CCSD/C-PCM, Gaussian charge scheme
   Tiago L. C. Gouveia    : GS-ROHF, GS-ROCIS
   Yang Guo               : DLPNO-NEVPT2, F12-NEVPT2, CIM, IAO-localization
   Andreas Hansen         : Spin unrestricted coupled pair/coupled cluster methods
   Ingolf Harden          : AUTO-CI MPn and infrastructure 
   Benjamin Helmich-Paris : MC-RPA, TRAH-(SCF,CASSCF), AVAS, COSX integrals, SCF dyn. polar.
   Lee Huntington         : MR-EOM, pCC
   Robert Izsak           : Overlap fitted RIJCOSX, COSX-SCS-MP3, EOM
   Riya Kayal             : Wick's Theorem for AUTO-CI, AUTO-CI UHF-CCSDT
   Emily Kempfer          : AUTO-CI, RHF CISDT and CCSDT
   Christian Kollmar      : KDIIS, OOCD, Brueckner-CCSD(T), CCSD density, CASPT2, CASPT2-K, improved NEVPT2
   Axel Koslowski         : Symmetry handling
   Simone Kossmann        : Meta GGA functionals, TD-DFT gradient, OOMP2, (MP2 Hessian; deprecated post 5.0)
   Lucas Lang             : DCDCAS
   Marvin Lechner         : AUTO-CI (C++ implementation), FIC-MRCC
   Spencer Leger          : CASSCF response
   Dagmar Lenk            : GEPOL surface, SMD, ORCA-2-JSON
   Dimitrios Liakos       : Extrapolation schemes; Compound Job, initial MDCI parallelization
   Dimitrios Manganas     : Further ROCIS development; embedding schemes. LFT, Crystal Embedding
   Dimitrios Pantazis     : SARC Basis sets
   Anastasios Papadopoulos: AUTO-CI, single reference methods and gradients
   Taras Petrenko         : pre 6.0 DFT Hessian and TD-DFT gradient, (ASA, deprecated), ECA, 1-Electron XAS/XES, NRVS
   Peter Pinski           : DLPNO-MP2, DLPNO-MP2 Gradient
   Christoph Reimann      : Effective Core Potentials
   Marius Retegan         : Local ZFS, SOC
   Christoph Riplinger    : Optimizer, TS searches, QM/MM, DLPNO-CCSD(T), (RO)-DLPNO pert. Triples
   Michael Roemelt        : Original ROCIS implementation
   Masaaki Saitow         : Open-shell DLPNO-CCSD energy and density
   Barbara Sandhoefer     : DKH picture change effects
   Kantharuban Sivalingam : CASSCF convergence/infrastructure, NEVPT2 and variants, FIC-MRCI
   Bernardo de Souza      : ESD, SOC TD-DFT
   Georgi Stoychev        : AutoAux, RI-MP2 NMR, DLPNO-MP2 response, X2C
   Van Anh Tran           : RI-MP2 g-tensors
   Willem Van den Heuvel  : Paramagnetic NMR
   Zikuan Wang            : NOTCH, Electric field optimization 
   Frank Wennmohs         : Technical directorship and infrastructure
   Hang Xu                : AUTO-CI-Response properties 


 We gratefully acknowledge several colleagues who have allowed us to
 interface, adapt or use parts of their codes:
   Stefan Grimme, W. Hujo, H. Kruse, P. Pracht,  : VdW corrections, initial TS optimization,
                  C. Bannwarth, S. Ehlert,         DFT functionals, gCP, sTDA/sTD-DF
                  L. Wittmann, M. Mueller
   Ed Valeev, F. Pavosevic, A. Kumar             : LibInt (2-el integral package), F12 methods
   Garnet Chan, S. Sharma, J. Yang, R. Olivares  : DMRG
   Ulf Ekstrom                                   : XCFun DFT Library
   Mihaly Kallay                                 : mrcc  (arbitrary order and MRCC methods)
   Frank Weinhold                                : gennbo (NPA and NBO analysis)
   Simon Mueller                                 : openCOSMO-RS
   Christopher J. Cramer and Donald G. Truhlar   : smd solvation model
   Lars Goerigk                                  : TD-DFT with DH, B97 family of functionals
   V. Asgeirsson, H. Jonsson                     : NEB implementation
   FAccTs GmbH                                   : IRC, NEB, NEB-TS, DLPNO-Multilevel, CI-OPT
                                                   MM, QMMM, 2- and 3-layer-ONIOM, Crystal-QMMM,
                                                   LR-CPCM, SF, NACMEs, symmetry and pop. for TD-DFT,
                                                   nearIR, NL-DFT gradient (VV10), updates on ESD,
                                                   ML-optimized integration grids, MBIS, APM,
                                                   GOAT, DOCKER, SOLVATOR, interface openCOSMO-RS
   S Lehtola, MJT Oliveira, MAL Marques          : LibXC Library
   Liviu Ungur et al                             : ANISO software


 Your calculation uses the libint2 library for the computation of 2-el integrals
 For citations please refer to: http://libint.valeyev.net

 Your ORCA version has been built with support for libXC version: 6.2.2
 For citations please refer to: https://libxc.gitlab.io

 This ORCA versions uses:
   CBLAS   interface :  Fast vector & matrix operations
   LAPACKE interface :  Fast linear algebra routines
   SCALAPACK package :  Parallel linear algebra routines
   Shared memory     :  Shared parallel matrices
   BLAS/LAPACK       :  OpenBLAS 0.3.27  USE64BITINT DYNAMIC_ARCH NO_AFFINITY SkylakeX SINGLE_THREADED
        Core in use  :  SkylakeX
   Copyright (c) 2011-2014, The OpenBLAS Project


Your calculation utilizes the geometrical counterpoise correction gCP
Please cite in your paper:
H.Kruse, S. Grimme J.Chem.Phys., 136, (2012), 154101 
   

Your calculation utilizes the atom-pairwise dispersion correction
based on EEQ partial charges (D4)


================================================================================

----- Orbital basis set information -----
Your calculation utilizes the basis: def2-SV(P)
   F. Weigend and R. Ahlrichs, Phys. Chem. Chem. Phys. 7, 3297 (2005).

----- AuxJ basis set information -----
Your calculation utilizes the auxiliary basis: def2/J
   F. Weigend, Phys. Chem. Chem. Phys. 8, 1057 (2006).

================================================================================
                                        WARNINGS
                       Please study these warnings very carefully!
================================================================================


================================================================================
                                       INPUT FILE
================================================================================
NAME = sp.inp
|  1> ! pbe def2-sv(p) def2/J RI DEFGRID1 loosescf d4 GCP(DFT/SV(P)) printgap
|  2> %output
|  3>     printlevel normal
|  4> end
|  5> * xyz 0 1
|  6> C 3.0729812215 -0.4562968405 1.2780452345
|  7> C 2.5956659542 0.013124049 -0.0632895273
|  8> C 3.4395616169 0.2389079997 -1.0588740474
|  9> C 1.1102517474 0.2045712329 -0.2517907762
| 10> H 0.9531421511 0.6892455392 -1.2210274123
| 11> C 0.365020963 -1.1369447656 -0.2810942842
| 12> C -1.0749201527 -0.9098131696 -0.7284739087
| 13> C -1.7165088818 0.2071816002 0.0450934941
| 14> C -0.9994022262 1.1008814658 0.7451408183
| 15> C 0.4824189202 1.0891110567 0.8303257769
| 16> C -3.1631838961 0.2987284064 0.0225244365
| 17> O -3.9135698163 -0.4634075795 -0.5612443785
| 18> H 4.1021049532 -0.7988443362 1.2149836692
| 19> H 3.0331157192 0.357503125 2.0007678526
| 20> H 2.4555798963 -1.2714688224 1.6473780302
| 21> H 3.107337551 0.5856977891 -2.0229892973
| 22> H 4.5002305254 0.0854748064 -0.952533122
| 23> H 0.8621716254 -1.8259913571 -0.9648499722
| 24> H 0.3663028504 -1.5824413324 0.7144875794
| 25> H -1.107278988 -0.6604096001 -1.7932063809
| 26> H -1.6740479905 -1.8141902113 -0.5995461981
| 27> H -1.5107170901 1.8748708482 1.3020934689
| 28> H 0.8630866118 2.1100307855 0.7558501793
| 29> H 0.7540022804 0.7204416635 1.8237912174
| 30> H -3.581788719 1.1467959021 0.5974028563
| 31> *
| 32> 
| 33>                          ****END OF INPUT****
================================================================================

                       ****************************
                       * Single Point Calculation *
                       ****************************

---------------------------------
CARTESIAN COORDINATES (ANGSTROEM)
---------------------------------
  C      3.072981   -0.456297    1.278045
  C      2.595666    0.013124   -0.063290
  C      3.439562    0.238908   -1.058874
  C      1.110252    0.204571   -0.251791
  H      0.953142    0.689246   -1.221027
  C      0.365021   -1.136945   -0.281094
  C     -1.074920   -0.909813   -0.728474
  C     -1.716509    0.207182    0.045093
  C     -0.999402    1.100881    0.745141
  C      0.482419    1.089111    0.830326
  C     -3.163184    0.298728    0.022524
  O     -3.913570   -0.463408   -0.561244
  H      4.102105   -0.798844    1.214984
  H      3.033116    0.357503    2.000768
  H      2.455580   -1.271469    1.647378
  H      3.107338    0.585698   -2.022989
  H      4.500231    0.085475   -0.952533
  H      0.862172   -1.825991   -0.964850
  H      0.366303   -1.582441    0.714488
  H     -1.107279   -0.660410   -1.793206
  H     -1.674048   -1.814190   -0.599546
  H     -1.510717    1.874871    1.302093
  H      0.863087    2.110031    0.755850
  H      0.754002    0.720442    1.823791
  H     -3.581789    1.146796    0.597403

----------------------------
CARTESIAN COORDINATES (A.U.)
----------------------------
  NO LB      ZA    FRAG     MASS         X           Y           Z
   0 C     6.0000    0    12.011    5.807093   -0.862276    2.415155
   1 C     6.0000    0    12.011    4.905098    0.024801   -0.119600
   2 C     6.0000    0    12.011    6.499829    0.451471   -2.000982
   3 C     6.0000    0    12.011    2.098072    0.386584   -0.475816
   4 H     1.0000    0     1.008    1.801178    1.302485   -2.307407
   5 C     6.0000    0    12.011    0.689790   -2.148514   -0.531191
   6 C     6.0000    0    12.011   -2.031305   -1.719298   -1.376616
   7 C     6.0000    0    12.011   -3.243732    0.391516    0.085214
   8 C     6.0000    0    12.011   -1.888597    2.080364    1.408112
   9 C     6.0000    0    12.011    0.911640    2.058122    1.569088
  10 C     6.0000    0    12.011   -5.977551    0.564515    0.042565
  11 O     8.0000    0    15.999   -7.395575   -0.875713   -1.060598
  12 H     1.0000    0     1.008    7.751855   -1.509597    2.295986
  13 H     1.0000    0     1.008    5.731758    0.675583    3.780903
  14 H     1.0000    0     1.008    4.640374   -2.402728    3.113093
  15 H     1.0000    0     1.008    5.872017    1.106808   -3.822896
  16 H     1.0000    0     1.008    8.504203    0.161524   -1.800027
  17 H     1.0000    0     1.008    1.629268   -3.450624   -1.823302
  18 H     1.0000    0     1.008    0.692212   -2.990381    1.350186
  19 H     1.0000    0     1.008   -2.092454   -1.247993   -3.388669
  20 H     1.0000    0     1.008   -3.163492   -3.428323   -1.132978
  21 H     1.0000    0     1.008   -2.854842    3.542992    2.460600
  22 H     1.0000    0     1.008    1.630997    3.987380    1.428350
  23 H     1.0000    0     1.008    1.424858    1.361437    3.446466
  24 H     1.0000    0     1.008   -6.768600    2.167130    1.128928

--------------------------------
INTERNAL COORDINATES (ANGSTROEM)
--------------------------------
 C      0   0   0     0.000000000000     0.00000000     0.00000000
 C      1   0   0     1.499121335686     0.00000000     0.00000000
 C      2   1   0     1.324510029626   121.53797053     0.00000000
 C      2   1   3     1.509516515585   117.69456378   179.19830841
 H      4   2   1     1.094994185005   107.93028387   171.50502473
 C      4   2   1     1.534891785055   111.67306708   289.42448025
 C      6   4   2     1.524850060499   109.50595627   190.44570539
 C      7   6   4     1.502571109713   111.27844508   310.75589846
 C      8   7   6     1.342761207884   122.35370754    17.10783274
 C      9   8   7     1.484314296105   123.90372905     0.14673646
 C      8   7   6     1.449744383361   117.71138156   197.32172429
 O     11   8   7     1.218489359660   125.62591020     0.80872908
 H      1   2   3     1.086467304145   110.38848987   346.13444386
 H      1   2   3     1.089122410400   110.37180953   105.43559224
 H      1   2   3     1.087242599613   110.97197324   225.50672727
 H      3   2   1     1.077104546033   122.08497794   180.62570948
 H      3   2   1     1.076971991595   121.93707651     0.68637583
 H      6   4   2     1.090626346305   110.04998184   311.37367360
 H      6   4   2     1.090711731575   109.81535035    70.47960898
 H      7   6   4     1.094031293912   110.32974247    71.37356042
 H      7   6   4     1.092462518415   111.09701163   189.49878430
 H      9   8   7     1.081988312840   119.47832577   181.24266210
 H     10   9   8     1.092122520013   109.67264496   138.46224744
 H     10   9   8     1.093914176016   107.61643427   254.38411217
 H     11   8   7     1.106767216975   114.69090024   180.76698438

---------------------------
INTERNAL COORDINATES (A.U.)
---------------------------
 C      0   0   0     0.000000000000     0.00000000     0.00000000
 C      1   0   0     2.832928765965     0.00000000     0.00000000
 C      2   1   0     2.502961217625   121.53797053     0.00000000
 C      2   1   3     2.852572809086   117.69456378   179.19830841
 H      4   2   1     2.069239127896   107.93028387   171.50502473
 C      4   2   1     2.900525118960   111.67306708   289.42448025
 C      6   4   2     2.881549009636   109.50595627   190.44570539
 C      7   6   4     2.839447894099   111.27844508   310.75589846
 C      8   7   6     2.537450946155   122.35370754    17.10783274
 C      9   8   7     2.804947516302   123.90372905     0.14673646
 C      8   7   6     2.739619848743   117.71138156   197.32172429
 O     11   8   7     2.302611186854   125.62591020     0.80872908
 H      1   2   3     2.053125658294   110.38848987   346.13444386
 H      1   2   3     2.058143081972   110.37180953   105.43559224
 H      1   2   3     2.054590754401   110.97197324   225.50672727
 H      3   2   1     2.035432609604   122.08497794   180.62570948
 H      3   2   1     2.035182118018   121.93707651     0.68637583
 H      6   4   2     2.060985108956   110.04998184   311.37367360
 H      6   4   2     2.061146463732   109.81535035    70.47960898
 H      7   6   4     2.067419527433   110.32974247    71.37356042
 H      7   6   4     2.064454971378   111.09701163   189.49878430
 H      9   8   7     2.044661591372   119.47832577   181.24266210
 H     10   9   8     2.063812467512   109.67264496   138.46224744
 H     10   9   8     2.067198206684   107.61643427   254.38411217
 H     11   8   7     2.091486934084   114.69090024   180.76698438

---------------------
BASIS SET INFORMATION
---------------------
There are 3 groups of distinct atoms

 Group   1 Type C   : 7s4p1d contracted to 3s2p1d pattern {511/31/1}
 Group   2 Type H   : 4s contracted to 2s pattern {31}
 Group   3 Type O   : 7s4p1d contracted to 3s2p1d pattern {511/31/1}

Atom   0C    basis set group =>   1
Atom   1C    basis set group =>   1
Atom   2C    basis set group =>   1
Atom   3C    basis set group =>   1
Atom   4H    basis set group =>   2
Atom   5C    basis set group =>   1
Atom   6C    basis set group =>   1
Atom   7C    basis set group =>   1
Atom   8C    basis set group =>   1
Atom   9C    basis set group =>   1
Atom  10C    basis set group =>   1
Atom  11O    basis set group =>   3
Atom  12H    basis set group =>   2
Atom  13H    basis set group =>   2
Atom  14H    basis set group =>   2
Atom  15H    basis set group =>   2
Atom  16H    basis set group =>   2
Atom  17H    basis set group =>   2
Atom  18H    basis set group =>   2
Atom  19H    basis set group =>   2
Atom  20H    basis set group =>   2
Atom  21H    basis set group =>   2
Atom  22H    basis set group =>   2
Atom  23H    basis set group =>   2
Atom  24H    basis set group =>   2
---------------------------------
AUXILIARY/J BASIS SET INFORMATION
---------------------------------
There are 3 groups of distinct atoms

 Group   1 Type C   : 12s5p4d2f1g contracted to 6s4p3d1f1g pattern {711111/2111/211/2/1}
 Group   2 Type H   : 5s2p1d contracted to 3s1p1d pattern {311/2/1}
 Group   3 Type O   : 12s5p4d2f1g contracted to 6s4p3d1f1g pattern {711111/2111/211/2/1}

Atom   0C    basis set group =>   1
Atom   1C    basis set group =>   1
Atom   2C    basis set group =>   1
Atom   3C    basis set group =>   1
Atom   4H    basis set group =>   2
Atom   5C    basis set group =>   1
Atom   6C    basis set group =>   1
Atom   7C    basis set group =>   1
Atom   8C    basis set group =>   1
Atom   9C    basis set group =>   1
Atom  10C    basis set group =>   1
Atom  11O    basis set group =>   3
Atom  12H    basis set group =>   2
Atom  13H    basis set group =>   2
Atom  14H    basis set group =>   2
Atom  15H    basis set group =>   2
Atom  16H    basis set group =>   2
Atom  17H    basis set group =>   2
Atom  18H    basis set group =>   2
Atom  19H    basis set group =>   2
Atom  20H    basis set group =>   2
Atom  21H    basis set group =>   2
Atom  22H    basis set group =>   2
Atom  23H    basis set group =>   2
Atom  24H    basis set group =>   2
------------------------------------------------------------------------------
                             ORCA STARTUP CALCULATIONS
                           -- RI-GTO INTEGRALS CHOSEN --
------------------------------------------------------------------------------
------------------------------------------------------------------------------
                   ___                                                        
                  /   \      - P O W E R E D   B Y -                         
                 /     \                                                     
                 |  |  |   _    _      __       _____    __    __             
                 |  |  |  | |  | |    /  \     |  _  \  |  |  /  |          
                  \  \/   | |  | |   /    \    | | | |  |  | /  /          
                 / \  \   | |__| |  /  /\  \   | |_| |  |  |/  /          
                |  |  |   |  __  | /  /__\  \  |    /   |      \           
                |  |  |   | |  | | |   __   |  |    \   |  |\   \          
                \     /   | |  | | |  |  |  |  | |\  \  |  | \   \       
                 \___/    |_|  |_| |__|  |__|  |_| \__\ |__|  \__/        
                                                                              
                      - O R C A' S   B I G   F R I E N D -                    
                                      &                                       
                       - I N T E G R A L  F E E D E R -                       
                                                                              
 v1 FN, 2020, v2 2021, v3 2022-2024                                           
------------------------------------------------------------------------------


----------------------
SHARK INTEGRAL PACKAGE
----------------------

Number of atoms                             ...     25
Number of basis functions                   ...    182
Number of shells                            ...     94
Maximum angular momentum                    ...      2
Integral batch strategy                     ... SHARK/LIBINT Hybrid
RI-J (if used) integral strategy            ... SPLIT-RIJ (Revised 2003 algorithm where possible)
Printlevel                                  ...      1
Contraction scheme used                     ... SEGMENTED contraction
Prescreening option                         ... SCHWARTZ
   Thresh                                   ... 1.000e-09
   Tcut                                     ... 1.000e-10
   Tpresel                                  ... 1.000e-10 
Coulomb Range Separation                    ... NOT USED
Exchange Range Separation                   ... NOT USED
Multipole approximations                    ... NOT USED
Finite Nucleus Model                        ... NOT USED
CABS basis                                  ... NOT available
Auxiliary Coulomb fitting basis             ... AVAILABLE
   # of basis functions in Aux-J            ...    693
   # of shells in Aux-J                     ...    235
   Maximum angular momentum in Aux-J        ...      4
Auxiliary J/K fitting basis                 ... NOT available
Auxiliary Correlation fitting basis         ... NOT available
Auxiliary 'external' fitting basis          ... NOT available

Checking pre-screening integrals            ... done (  0.0 sec) Dimension = 94
Check shell pair data                       ... done (  0.0 sec)
Shell pair information
Shell pair cut-off parameter TPreSel        ...   1.0e-10
Total number of shell pairs                 ...      4465
Shell pairs after pre-screening             ...      3996
Total number of primitive shell pairs       ...     17951
Primitive shell pairs kept                  ...     10929
          la=0 lb=0:   1683 shell pairs
          la=1 lb=0:   1237 shell pairs
          la=1 lb=1:    240 shell pairs
          la=2 lb=0:    567 shell pairs
          la=2 lb=1:    217 shell pairs
          la=2 lb=2:     52 shell pairs

Calculating one electron integrals          ... done (  0.0 sec)
Calculating RI/J V-Matrix + Cholesky decomp.... done (  0.1 sec)
Calculating Nuclear repulsion               ... done (  0.0 sec) ENN=    597.160108227932 Eh

Diagonalization of the overlap matrix:
Smallest eigenvalue                        ... 7.032e-04
Time for diagonalization                   ...    0.004 sec
Threshold for overlap eigenvalues          ... 1.000e-07
Number of eigenvalues below threshold      ... 0
Time for construction of square roots      ...    0.038 sec
Total time needed                          ...    0.058 sec

-------------------
DFT GRID GENERATION
-------------------

General Integration Accuracy     IntAcc      ... 4.159
Radial Grid Type                 RadialGrid  ... OptM3 with GC (2021)
Angular Grid (max. ang.)         AngularGrid ... 3 (Lebedev-194)
Angular grid pruning method      GridPruning ... 4 (adaptive)
Weight generation scheme         WeightScheme... mBecke (2022)
Basis function cutoff            BFCut       ... 1.0000e-10
Integration weight cutoff        WCut        ... 1.0000e-14
Partially contracted basis set               ... off
Rotationally invariant grid construction     ... off
Angular grids for H and He will be reduced by one unit

Total number of grid points                  ...    55031
Total number of batches                      ...      869
Average number of points per batch           ...       63
Average number of grid points per atom       ...     2201
Initializing property integral containers    ... done (  0.0 sec)

SHARK setup successfully completed in   1.2 seconds

Maximum memory used throughout the entire STARTUP-calculation: 27.8 MB
-------------------------------------------------------------------------------
                                 ORCA GUESS
                   Start orbitals & Density for SCF / CASSCF
-------------------------------------------------------------------------------

------------
SCF SETTINGS
------------
Hamiltonian:
 Density Functional     Method          .... DFT(GTOs)
 Exchange Functional    Exchange        .... PBE
   PBE kappa parameter   XKappa         ....  0.804000
   PBE mue parameter    XMuePBE         ....  0.219520
 Correlation Functional Correlation     .... PBE
   PBE beta parameter  CBetaPBE         ....  0.066725
 LDA part of GGA corr.  LDAOpt          .... PW91-LDA
 Gradients option       PostSCFGGA      .... off
   NL short-range parameter             ....  6.400000
 RI-approximation to the Coulomb term is turned on
   Number of AuxJ basis functions       .... 693


General Settings:
 Integral files         IntName         .... sp
 Hartree-Fock type      HFTyp           .... RHF
 Total Charge           Charge          ....    0
 Multiplicity           Mult            ....    1
 Number of Electrons    NEL             ....   82
 Basis Dimension        Dim             ....  182
 Nuclear Repulsion      ENuc            ....    597.1601082279 Eh

Convergence Acceleration:
 AO-DIIS                CNVDIIS         .... on
   Start iteration      DIISMaxIt       ....    12
   Startup error        DIISStart       ....  0.200000
   # of expansion vecs  DIISMaxEq       ....     5
   Bias factor          DIISBfac        ....   1.050
   Max. coefficient     DIISMaxC        ....  10.000
 MO-DIIS                CNVKDIIS        .... off
 Trust-Rad. Augm. Hess. CNVTRAH         .... auto
   Auto Start mean grad. ratio tolernc. ....  1.125000
   Auto Start start iteration           ....    50
   Auto Start num. interpolation iter.  ....    10
   Max. Number of Micro iterations      ....    24
   Max. Number of Macro iterations      .... Maxiter - #DIIS iter
   Number of Davidson start vectors     ....     2
   Converg. threshold    (grad. norm)   ....   1.000e-04
   Grad. Scal. Fac. for Micro threshold ....   0.100
   Minimum threshold for Micro iter.    ....   1.000e-02
   NR start threshold (gradient norm)   ....   1.000e-04
   Initial trust radius                 ....   0.400
   Minimum AH scaling param. (alpha)    ....   1.000
   Maximum AH scaling param. (alpha)    .... 1000.000
   Quad. conv. algorithm                .... NR
   White noise on init. David. guess    .... on
   Maximum white noise                  ....   0.010
   Pseudo random numbers                .... off
   Inactive MOs                         .... canonical
   Orbital update algorithm             .... Taylor
   Preconditioner                       .... Diag
   Full preconditioner red. dimension   ....   250
 SOSCF                  CNVSOSCF        .... on
   Start iteration      SOSCFMaxIt      ....   150
   Startup grad/error   SOSCFStart      ....  0.003300
   Hessian update       SOSCFHessUp     .... L-BFGS
 Level Shifting         CNVShift        .... on
   Level shift para.    LevelShift      ....    0.2500
   Turn off err/grad.   ShiftErr        ....    0.0010
 Zerner damping         CNVZerner       .... off
 Static damping         CNVDamp         .... on
   Fraction old density DampFac         ....    0.7000
   Max. Damping (<1)    DampMax         ....    0.9800
   Min. Damping (>=0)   DampMin         ....    0.0000
   Turn off err/grad.   DampErr         ....    0.1000

SCF Procedure:
 Maximum # iterations   MaxIter         ....   125
 SCF integral mode      SCFMode         .... Direct
   Integral package                     .... SHARK and LIBINT hybrid scheme
 Reset frequency        DirectResetFreq ....    20
 Integral Threshold     Thresh          ....  1.000e-09 Eh
 Primitive CutOff       TCut            ....  1.000e-10 Eh

Convergence Tolerance:
 Convergence Check Mode ConvCheckMode   .... Total+1el-Energy
 Convergence forced     ConvForced      .... 0
 Energy Change          TolE            ....  1.000e-05 Eh
 1-El. energy change                    ....  1.000e-02 Eh
 Orbital Gradient       TolG            ....  1.000e-04
 Orbital Rotation angle TolX            ....  1.000e-04
 DIIS Error             TolErr          ....  5.000e-04

------------------------------
INITIAL GUESS: MODEL POTENTIAL
------------------------------
Loading Hartree-Fock densities                     ... done
Calculating cut-offs                               ... done
Initializing the effective Hamiltonian             ... done
Setting up the integral package (SHARK)            ... done
Starting the Coulomb interaction                   ... done (   0.3 sec)
Making the grid                                    ... done (   0.3 sec)
Mapping shells                                     ... done
Starting the XC term evaluation                    ... done (   0.3 sec)
  promolecular density results
     # of electrons  =     82.000685980
     EX              =    -63.438910611
     EC              =     -2.712750345
     EX+EC           =    -66.151660956
Transforming the Hamiltonian                       ... done (   0.0 sec)
Diagonalizing the Hamiltonian                      ... done (   0.0 sec)
Back transforming the eigenvectors                 ... done (   0.0 sec)
Now organizing SCF variables                       ... done
                      ------------------
                      INITIAL GUESS DONE (   1.0 sec)
                      ------------------
             **** ENERGY FILE WAS UPDATED (sp.en.tmp) ****
Finished Guess after   1.3 sec
Maximum memory used throughout the entire GUESS-calculation: 21.5 MB

-------------------------------------------------------------------------------------------
                                      ORCA LEAN-SCF
                              memory conserving SCF solver
-------------------------------------------------------------------------------------------

----------------------------------------D-I-I-S--------------------------------------------
Iteration    Energy (Eh)           Delta-E    RMSDP     MaxDP     DIISErr   Damp  Time(sec)
-------------------------------------------------------------------------------------------
               ***  Starting incremental Fock matrix formation  ***
    1    -463.4388395886842318     0.00e+00  4.82e-03  1.86e-01  2.15e-01  0.700   1.5
Warning: op=0 Small HOMO/LUMO gap (   0.098) - skipping pre-diagonalization
         Will do a full diagonalization
    2    -463.5715374482560946    -1.33e-01  2.99e-03  7.41e-02  7.39e-02  0.700   1.5
                               ***Turning on AO-DIIS***
    3    -463.6165589466238544    -4.50e-02  1.12e-03  1.37e-02  2.30e-02  0.700   1.8
    4    -463.6435351081099725    -2.70e-02  1.62e-03  2.40e-02  9.94e-03  0.000   1.4
    5    -463.7048363113626692    -6.13e-02  5.34e-04  9.58e-03  5.94e-03  0.000   1.5
                              *** Initializing SOSCF ***
---------------------------------------S-O-S-C-F--------------------------------------
Iteration    Energy (Eh)           Delta-E    RMSDP     MaxDP     MaxGrad    Time(sec)
--------------------------------------------------------------------------------------
    6    -463.7054782347920536    -6.42e-04  2.12e-04  4.53e-03  1.95e-03     1.4
               *** Restarting incremental Fock matrix formation ***
    7    -463.7055333151624836    -5.51e-05  1.36e-04  2.33e-03  3.23e-04     1.6
    8    -463.7055209894276686     1.23e-05  9.12e-05  4.31e-03  8.97e-04     1.6
    9    -463.7055395247641627    -1.85e-05  6.27e-05  1.90e-03  1.81e-04     1.3
   10    -463.7055371273629589     2.40e-06  2.87e-05  8.79e-04  5.48e-04     1.3
                 **** Energy Check signals convergence ****

               *****************************************************
               *                     SUCCESS                       *
               *           SCF CONVERGED AFTER  10 CYCLES          *
               *****************************************************

             **** ENERGY FILE WAS UPDATED (sp.en.tmp) ****

----------------
TOTAL SCF ENERGY
----------------

Total Energy       :       -463.70553712736296 Eh          -12618.06916 eV

Components:
Nuclear Repulsion  :        597.16010822793169 Eh           16249.55266 eV
Electronic Energy  :      -1060.86564535529465 Eh          -28867.62181 eV
One Electron Energy:      -1810.92980155697137 Eh          -49277.90514 eV
Two Electron Energy:        750.06415620167672 Eh           20410.28333 eV

Virial components:
Potential Energy   :       -923.36638148119789 Eh          -25126.07663 eV
Kinetic Energy     :        459.66084435383493 Eh           12508.00747 eV
Virial Ratio       :          2.00879929805466

DFT components:
N(Alpha)           :       40.999600775620 electrons
N(Beta)            :       40.999600775620 electrons
N(Total)           :       81.999201551240 electrons
E(X)               :      -64.726703291249 Eh       
E(C)               :       -2.723543624422 Eh       
E(XC)              :      -67.450246915671 Eh       

---------------
SCF CONVERGENCE
---------------

  Last Energy change         ...   -2.3974e-06  Tolerance :   1.0000e-05
  Last MAX-Density change    ...    8.7918e-04  Tolerance :   1.0000e-03
  Last RMS-Density change    ...    2.8711e-05  Tolerance :   1.0000e-04
  Last DIIS Error            ...    1.9538e-03  Tolerance :   5.0000e-04
  Last Orbital Gradient      ...    5.4850e-04  Tolerance :   1.0000e-04
  Last Orbital Rotation      ...    1.1008e-03  Tolerance :   1.0000e-04


----------------
ORBITAL ENERGIES
----------------

  NO   OCC          E(Eh)            E(eV) 
   0   2.0000     -18.742150      -509.9998 
   1   2.0000      -9.961673      -271.0709 
   2   2.0000      -9.919800      -269.9315 
   3   2.0000      -9.907580      -269.5990 
   4   2.0000      -9.906651      -269.5737 
   5   2.0000      -9.905477      -269.5417 
   6   2.0000      -9.905086      -269.5311 
   7   2.0000      -9.893635      -269.2195 
   8   2.0000      -9.893450      -269.2144 
   9   2.0000      -9.888700      -269.0852 
  10   2.0000      -9.877114      -268.7699 
  11   2.0000      -0.931710       -25.3531 
  12   2.0000      -0.784155       -21.3379 
  13   2.0000      -0.734504       -19.9869 
  14   2.0000      -0.685218       -18.6457 
  15   2.0000      -0.678999       -18.4765 
  16   2.0000      -0.622559       -16.9407 
  17   2.0000      -0.587537       -15.9877 
  18   2.0000      -0.562025       -15.2935 
  19   2.0000      -0.523310       -14.2400 
  20   2.0000      -0.484403       -13.1813 
  21   2.0000      -0.473799       -12.8927 
  22   2.0000      -0.443044       -12.0558 
  23   2.0000      -0.423813       -11.5325 
  24   2.0000      -0.407376       -11.0853 
  25   2.0000      -0.400416       -10.8959 
  26   2.0000      -0.396218       -10.7816 
  27   2.0000      -0.383999       -10.4492 
  28   2.0000      -0.374626       -10.1941 
  29   2.0000      -0.360383        -9.8065 
  30   2.0000      -0.355080        -9.6622 
  31   2.0000      -0.348823        -9.4920 
  32   2.0000      -0.339472        -9.2375 
  33   2.0000      -0.330752        -9.0002 
  34   2.0000      -0.325322        -8.8525 
  35   2.0000      -0.300042        -8.1645 
  36   2.0000      -0.289729        -7.8839 
  37   2.0000      -0.281880        -7.6703 
  38   2.0000      -0.238646        -6.4939 
  39   2.0000      -0.222245        -6.0476 
  40   2.0000      -0.200214        -5.4481 
  41   0.0000      -0.088192        -2.3998 
  42   0.0000      -0.018013        -0.4902 
  43   0.0000       0.018431         0.5015 
  44   0.0000       0.033533         0.9125 
  45   0.0000       0.048785         1.3275 
  46   0.0000       0.057722         1.5707 
  47   0.0000       0.064988         1.7684 
  48   0.0000       0.077572         2.1108 
  49   0.0000       0.084390         2.2964 
  50   0.0000       0.097625         2.6565 
  51   0.0000       0.103943         2.8284 
*Only the first 10 virtual orbitals were printed.

                    ********************************
                    * MULLIKEN POPULATION ANALYSIS *
                    ********************************

-----------------------
MULLIKEN ATOMIC CHARGES
-----------------------
   0 C :   -0.235914
   1 C :   -0.011058
   2 C :   -0.231572
   3 C :   -0.168602
   4 H :    0.064233
   5 C :   -0.143565
   6 C :   -0.053404
   7 C :   -0.056931
   8 C :   -0.165010
   9 C :   -0.053595
  10 C :    0.034864
  11 O :   -0.172880
  12 H :    0.102268
  13 H :    0.120026
  14 H :    0.112799
  15 H :    0.085192
  16 H :    0.080853
  17 H :    0.090770
  18 H :    0.090303
  19 H :    0.100183
  20 H :    0.101944
  21 H :    0.066137
  22 H :    0.104285
  23 H :    0.108156
  24 H :    0.030516
Sum of atomic charges:    0.0000000

--------------------------------
MULLIKEN REDUCED ORBITAL CHARGES
--------------------------------
  0 C s       :     3.027247  s :     3.027247
      pz      :     1.049455  p :     3.179733
      px      :     1.067463
      py      :     1.062814
      dz2     :     0.006088  d :     0.028934
      dxz     :     0.003682
      dyz     :     0.009043
      dx2y2   :     0.004823
      dxy     :     0.005299

  1 C s       :     3.051718  s :     3.051718
      pz      :     0.983246  p :     2.917404
      px      :     0.985053
      py      :     0.949106
      dz2     :     0.010900  d :     0.041936
      dxz     :     0.011355
      dyz     :     0.007129
      dx2y2   :     0.005863
      dxy     :     0.006688

  2 C s       :     3.189963  s :     3.189963
      pz      :     0.995019  p :     3.014734
      px      :     0.969105
      py      :     1.050610
      dz2     :     0.009029  d :     0.026875
      dxz     :     0.005715
      dyz     :     0.003885
      dx2y2   :     0.005845
      dxy     :     0.002401

  3 C s       :     3.097258  s :     3.097258
      pz      :     1.011757  p :     3.028748
      px      :     1.007386
      py      :     1.009605
      dz2     :     0.008860  d :     0.042596
      dxz     :     0.005991
      dyz     :     0.009429
      dx2y2   :     0.009499
      dxy     :     0.008817

  4 H s       :     0.935767  s :     0.935767

  5 C s       :     3.055003  s :     3.055003
      pz      :     1.027407  p :     3.052298
      px      :     1.008827
      py      :     1.016063
      dz2     :     0.006867  d :     0.036264
      dxz     :     0.005306
      dyz     :     0.008936
      dx2y2   :     0.006887
      dxy     :     0.008268

  6 C s       :     2.936102  s :     2.936102
      pz      :     1.059071  p :     3.081265
      px      :     0.991587
      py      :     1.030608
      dz2     :     0.010482  d :     0.036038
      dxz     :     0.004815
      dyz     :     0.004624
      dx2y2   :     0.005965
      dxy     :     0.010152

  7 C s       :     3.090740  s :     3.090740
      pz      :     0.991972  p :     2.927273
      px      :     0.930207
      py      :     1.005094
      dz2     :     0.007385  d :     0.038918
      dxz     :     0.005873
      dyz     :     0.005588
      dx2y2   :     0.011705
      dxy     :     0.008367

  8 C s       :     3.264233  s :     3.264233
      pz      :     0.937015  p :     2.865800
      px      :     0.983950
      py      :     0.944836
      dz2     :     0.004089  d :     0.034976
      dxz     :     0.008195
      dyz     :     0.004870
      dx2y2   :     0.007633
      dxy     :     0.010189

  9 C s       :     2.935914  s :     2.935914
      pz      :     1.059878  p :     3.081038
      px      :     0.992824
      py      :     1.028335
      dz2     :     0.010102  d :     0.036643
      dxz     :     0.006171
      dyz     :     0.004329
      dx2y2   :     0.009244
      dxy     :     0.006797

 10 C s       :     3.216455  s :     3.216455
      pz      :     0.845195  p :     2.663800
      px      :     0.944514
      py      :     0.874091
      dz2     :     0.010149  d :     0.084881
      dxz     :     0.014669
      dyz     :     0.013736
      dx2y2   :     0.028511
      dxy     :     0.017816

 11 O s       :     3.756615  s :     3.756615
      pz      :     1.342460  p :     4.398957
      px      :     1.625947
      py      :     1.430551
      dz2     :     0.002967  d :     0.017308
      dxz     :     0.003449
      dyz     :     0.003116
      dx2y2   :     0.003363
      dxy     :     0.004413

 12 H s       :     0.897732  s :     0.897732

 13 H s       :     0.879974  s :     0.879974

 14 H s       :     0.887201  s :     0.887201

 15 H s       :     0.914808  s :     0.914808

 16 H s       :     0.919147  s :     0.919147

 17 H s       :     0.909230  s :     0.909230

 18 H s       :     0.909697  s :     0.909697

 19 H s       :     0.899817  s :     0.899817

 20 H s       :     0.898056  s :     0.898056

 21 H s       :     0.933863  s :     0.933863

 22 H s       :     0.895715  s :     0.895715

 23 H s       :     0.891844  s :     0.891844

 24 H s       :     0.969484  s :     0.969484


------------------------
MULLIKEN OVERLAP CHARGES
------------------------
B(  0-C ,  1-C ) :   0.8065 B(  0-C ,  2-C ) :  -0.1663 B(  0-C ,  3-C ) :  -0.2237 
B(  0-C , 12-H ) :   0.6923 B(  0-C , 13-H ) :   0.6993 B(  0-C , 14-H ) :   0.7087 
B(  0-C , 16-H ) :  -0.0571 B(  1-C ,  2-C ) :   1.5314 B(  1-C ,  3-C ) :   0.5998 
B(  1-C ,  5-C ) :  -0.0672 B(  1-C ,  9-C ) :  -0.0550 B(  1-C , 23-H ) :  -0.0505 
B(  2-C ,  3-C ) :  -0.1222 B(  2-C , 15-H ) :   0.6926 B(  2-C , 16-H ) :   0.6734 
B(  3-C ,  4-H ) :   0.6783 B(  3-C ,  5-C ) :   0.7056 B(  3-C ,  7-C ) :  -0.0672 
B(  3-C ,  9-C ) :   0.6633 B(  3-C , 15-H ) :  -0.0681 B(  3-C , 22-H ) :  -0.0513 
B(  4-H ,  5-C ) :  -0.0974 B(  4-H ,  9-C ) :  -0.0811 B(  5-C ,  6-C ) :   0.7310 
B(  5-C ,  7-C ) :  -0.0554 B(  5-C ,  9-C ) :  -0.1044 B(  5-C , 17-H ) :   0.6712 
B(  5-C , 18-H ) :   0.6816 B(  6-C ,  7-C ) :   0.5909 B(  6-C ,  8-C ) :  -0.1759 
B(  6-C ,  9-C ) :  -0.1182 B(  6-C , 10-C ) :  -0.1065 B(  6-C , 19-H ) :   0.6300 
B(  6-C , 20-H ) :   0.6458 B(  7-C ,  8-C ) :   1.0492 B(  7-C , 10-C ) :   0.1977 
B(  7-C , 11-O ) :  -0.2589 B(  7-C , 21-H ) :  -0.1113 B(  7-C , 24-H ) :  -0.3709 
B(  8-C ,  9-C ) :   0.5185 B(  8-C , 10-C ) :  -0.0558 B(  8-C , 21-H ) :   0.7699 
B(  9-C , 21-H ) :  -0.1355 B(  9-C , 22-H ) :   0.6696 B(  9-C , 23-H ) :   0.6043 
B( 10-C , 11-O ) :   1.3740 B( 10-C , 24-H ) :   0.8279 B( 11-O , 24-H ) :  -0.0953 
B( 13-H , 14-H ) :  -0.0510 B( 15-H , 16-H ) :  -0.1156 B( 17-H , 18-H ) :  -0.0635 
B( 22-H , 23-H ) :  -0.0512 


                     *******************************
                     * LOEWDIN POPULATION ANALYSIS *
                     *******************************

----------------------
LOEWDIN ATOMIC CHARGES
----------------------
   0 C :   -0.325445
   1 C :   -0.049205
   2 C :   -0.264600
   3 C :   -0.127367
   4 H :    0.123243
   5 C :   -0.208386
   6 C :   -0.208691
   7 C :   -0.103543
   8 C :   -0.084967
   9 C :   -0.212853
  10 C :   -0.004266
  11 O :   -0.135377
  12 H :    0.128456
  13 H :    0.131368
  14 H :    0.125748
  15 H :    0.117141
  16 H :    0.116798
  17 H :    0.123139
  18 H :    0.117533
  19 H :    0.133965
  20 H :    0.134031
  21 H :    0.124658
  22 H :    0.134511
  23 H :    0.137208
  24 H :    0.076900

-------------------------------
LOEWDIN REDUCED ORBITAL CHARGES
-------------------------------
  0 C s       :     2.934895  s :     2.934895
      pz      :     1.084976  p :     3.319371
      px      :     1.119276
      py      :     1.115119
      dz2     :     0.015278  d :     0.071179
      dxz     :     0.009100
      dyz     :     0.021990
      dx2y2   :     0.011787
      dxy     :     0.013023

  1 C s       :     2.867862  s :     2.867862
      pz      :     1.071113  p :     3.072717
      px      :     1.059178
      py      :     0.942426
      dz2     :     0.029937  d :     0.108627
      dxz     :     0.032245
      dyz     :     0.015469
      dx2y2   :     0.016531
      dxy     :     0.014444

  2 C s       :     2.953771  s :     2.953771
      pz      :     1.089681  p :     3.241198
      px      :     1.085447
      py      :     1.066071
      dz2     :     0.023607  d :     0.069630
      dxz     :     0.018255
      dyz     :     0.008415
      dx2y2   :     0.014083
      dxy     :     0.005270

  3 C s       :     2.871611  s :     2.871611
      pz      :     1.065715  p :     3.150902
      px      :     1.030745
      py      :     1.054442
      dz2     :     0.022042  d :     0.104854
      dxz     :     0.013531
      dyz     :     0.022976
      dx2y2   :     0.023888
      dxy     :     0.022416

  4 H s       :     0.876757  s :     0.876757

  5 C s       :     2.906755  s :     2.906755
      pz      :     1.101736  p :     3.213674
      px      :     1.050865
      py      :     1.061073
      dz2     :     0.016899  d :     0.087957
      dxz     :     0.011964
      dyz     :     0.020277
      dx2y2   :     0.017907
      dxy     :     0.020911

  6 C s       :     2.894284  s :     2.894284
      pz      :     1.089604  p :     3.225650
      px      :     1.054764
      py      :     1.081282
      dz2     :     0.025278  d :     0.088757
      dxz     :     0.011420
      dyz     :     0.011359
      dx2y2   :     0.016254
      dxy     :     0.024447

  7 C s       :     2.874756  s :     2.874756
      pz      :     1.012512  p :     3.121197
      px      :     1.067588
      py      :     1.041097
      dz2     :     0.016318  d :     0.107590
      dxz     :     0.016806
      dyz     :     0.015907
      dx2y2   :     0.033405
      dxy     :     0.025154

  8 C s       :     2.908993  s :     2.908993
      pz      :     0.988541  p :     3.085797
      px      :     1.062647
      py      :     1.034609
      dz2     :     0.009512  d :     0.090177
      dxz     :     0.019771
      dyz     :     0.012169
      dx2y2   :     0.022878
      dxy     :     0.025847

  9 C s       :     2.895898  s :     2.895898
      pz      :     1.084192  p :     3.226430
      px      :     1.057408
      py      :     1.084830
      dz2     :     0.023609  d :     0.090526
      dxz     :     0.014933
      dyz     :     0.011622
      dx2y2   :     0.024299
      dxy     :     0.016063

 10 C s       :     2.921349  s :     2.921349
      pz      :     0.883765  p :     2.881910
      px      :     1.036678
      py      :     0.961467
      dz2     :     0.021062  d :     0.201007
      dxz     :     0.033211
      dyz     :     0.032243
      dx2y2   :     0.072199
      dxy     :     0.042291

 11 O s       :     3.559284  s :     3.559284
      pz      :     1.379692  p :     4.545869
      px      :     1.665484
      py      :     1.500694
      dz2     :     0.003967  d :     0.030224
      dxz     :     0.006147
      dyz     :     0.006280
      dx2y2   :     0.005211
      dxy     :     0.008618

 12 H s       :     0.871544  s :     0.871544

 13 H s       :     0.868632  s :     0.868632

 14 H s       :     0.874252  s :     0.874252

 15 H s       :     0.882859  s :     0.882859

 16 H s       :     0.883202  s :     0.883202

 17 H s       :     0.876861  s :     0.876861

 18 H s       :     0.882467  s :     0.882467

 19 H s       :     0.866035  s :     0.866035

 20 H s       :     0.865969  s :     0.865969

 21 H s       :     0.875342  s :     0.875342

 22 H s       :     0.865489  s :     0.865489

 23 H s       :     0.862792  s :     0.862792

 24 H s       :     0.923100  s :     0.923100


---------------------------------
LOEWDIN BOND ORDERS (THRESH 0.050000)
---------------------------------
B(  0-C ,  1-C ) :   1.0992 B(  0-C ,  2-C ) :   0.0874 B(  0-C ,  3-C ) :   0.0517 
B(  0-C , 12-H ) :   0.9286 B(  0-C , 13-H ) :   0.9181 B(  0-C , 14-H ) :   0.9221 
B(  1-C ,  2-C ) :   1.9789 B(  1-C ,  3-C ) :   1.0291 B(  1-C ,  5-C ) :   0.0562 
B(  1-C ,  9-C ) :   0.0541 B(  2-C ,  3-C ) :   0.0921 B(  2-C , 15-H ) :   0.9171 
B(  2-C , 16-H ) :   0.9172 B(  3-C ,  4-H ) :   0.8622 B(  3-C ,  5-C ) :   1.0358 
B(  3-C ,  6-C ) :   0.0548 B(  3-C ,  8-C ) :   0.0559 B(  3-C ,  9-C ) :   1.0371 
B(  5-C ,  6-C ) :   1.0857 B(  5-C ,  7-C ) :   0.0555 B(  5-C ,  9-C ) :   0.0503 
B(  5-C , 17-H ) :   0.9004 B(  5-C , 18-H ) :   0.8996 B(  6-C ,  7-C ) :   1.0527 
B(  6-C ,  8-C ) :   0.0761 B(  6-C , 10-C ) :   0.0610 B(  6-C , 19-H ) :   0.8860 
B(  6-C , 20-H ) :   0.8844 B(  7-C ,  8-C ) :   1.7730 B(  7-C ,  9-C ) :   0.0837 
B(  7-C , 10-C ) :   1.1653 B(  7-C , 11-O ) :   0.1151 B(  8-C ,  9-C ) :   1.1176 
B(  8-C , 10-C ) :   0.1328 B(  8-C , 11-O ) :   0.1135 B(  8-C , 21-H ) :   0.8772 
B(  9-C , 22-H ) :   0.8842 B(  9-C , 23-H ) :   0.8691 B( 10-C , 11-O ) :   2.2638 
B( 10-C , 24-H ) :   0.8721 B( 11-O , 24-H ) :   0.0678 

------------------------------------------
LOEWDIN REDUCED ORBITAL POPULATIONS PER MO
-------------------------------------------
THRESHOLD FOR PRINTING IS 0.1%%
                      0         1         2         3         4         5   
                 -18.74215  -9.96167  -9.91980  -9.90758  -9.90665  -9.90548
                   2.00000   2.00000   2.00000   2.00000   2.00000   2.00000
                  --------  --------  --------  --------  --------  --------
 1 C  px              0.0       0.0       0.0       0.0       0.1       0.0
 3 C  s               0.0       0.0       0.0       0.0      99.5       0.0
 7 C  s               0.0       0.0       0.1       0.0       0.0      99.4
 7 C  px              0.0       0.1       0.0       0.0       0.0       0.0
 8 C  s               0.0       0.0      99.5       0.0       0.0       0.1
 8 C  px              0.0       0.0       0.0       0.1       0.0       0.0
 9 C  s               0.0       0.0       0.0      99.6       0.0       0.0
 9 C  px              0.0       0.0       0.1       0.0       0.0       0.0
10 C  s               0.0      99.5       0.0       0.0       0.0       0.0
10 C  px              0.0       0.0       0.0       0.0       0.0       0.1
11 O  s              99.9       0.0       0.0       0.0       0.0       0.0
11 O  px              0.0       0.1       0.0       0.0       0.0       0.0
11 O  py              0.0       0.1       0.0       0.0       0.0       0.0

                      6         7         8         9        10        11   
                  -9.90509  -9.89364  -9.89345  -9.88870  -9.87711  -0.93171
                   2.00000   2.00000   2.00000   2.00000   2.00000   2.00000
                  --------  --------  --------  --------  --------  --------
 0 C  s               0.0       0.0       0.0      99.7       0.0       0.0
 1 C  s              99.4       0.0       0.0       0.0       0.0       0.0
 2 C  s               0.0       0.0       0.0       0.0      99.6       0.0
 3 C  px              0.1       0.0       0.0       0.0       0.0       0.0
 5 C  s               0.0      98.6       1.0       0.0       0.0       0.0
 6 C  s               0.0       1.0      98.6       0.0       0.0       0.2
 6 C  px              0.0       0.1       0.0       0.0       0.0       0.2
 7 C  s               0.1       0.0       0.0       0.0       0.0       1.4
 7 C  px              0.0       0.0       0.0       0.0       0.0       1.9
 8 C  s               0.0       0.0       0.0       0.0       0.0       0.1
10 C  s               0.0       0.0       0.0       0.0       0.0      19.4
10 C  pz              0.0       0.0       0.0       0.0       0.0       3.2
10 C  px              0.0       0.0       0.0       0.0       0.0       4.5
10 C  py              0.0       0.0       0.0       0.0       0.0       5.6
10 C  dxz             0.0       0.0       0.0       0.0       0.0       0.4
10 C  dyz             0.0       0.0       0.0       0.0       0.0       0.5
10 C  dxy             0.0       0.0       0.0       0.0       0.0       0.7
11 O  s               0.0       0.0       0.0       0.0       0.0      52.3
11 O  pz              0.0       0.0       0.0       0.0       0.0       1.5
11 O  px              0.0       0.0       0.0       0.0       0.0       2.6
11 O  py              0.0       0.0       0.0       0.0       0.0       2.6
11 O  dxy             0.0       0.0       0.0       0.0       0.0       0.1
20 H  s               0.0       0.0       0.1       0.0       0.0       0.1
24 H  s               0.0       0.0       0.0       0.0       0.0       1.7

                     12        13        14        15        16        17   
                  -0.78415  -0.73450  -0.68522  -0.67900  -0.62256  -0.58754
                   2.00000   2.00000   2.00000   2.00000   2.00000   2.00000
                  --------  --------  --------  --------  --------  --------
 0 C  s               1.3       9.0       0.3       7.5      25.0       0.0
 0 C  pz              0.4       1.6       0.0       0.5       1.2       0.0
 0 C  px              0.2       0.2       0.0       0.0       0.0       0.4
 0 C  py              0.1       0.2       0.0       0.0       0.1       0.0
 1 C  s               5.1      19.3       0.1       5.3       1.1       0.0
 1 C  pz              0.0       0.0       0.1       0.0      18.5       0.6
 1 C  px              1.0       0.0       0.1       5.8       0.0       8.2
 1 C  py              0.0       0.0       0.1       0.1       1.7       0.0
 1 C  dz2             0.0       0.0       0.0       0.1       0.0       0.0
 1 C  dxz             0.0       0.0       0.0       0.0       0.3       0.1
 1 C  dx2y2           0.1       0.1       0.0       0.0       0.1       0.0
 2 C  s               1.3       8.8       0.1       6.6      15.2       6.6
 2 C  pz              0.3       1.7       0.0       0.9       0.2       0.0
 2 C  px              0.4       1.2       0.0       0.1       0.5       0.5
 3 C  s              13.5       5.9       0.1       5.8       1.0       7.8
 3 C  pz              0.6       0.0       1.4       0.4       1.3       0.3
 3 C  px              0.3       3.9       0.2       3.0       0.6       0.5
 3 C  py              0.0       0.1       4.9       0.1       0.1       0.8
 3 C  dxy             0.0       0.0       0.1       0.0       0.0       0.0
 4 H  s               2.4       1.0       0.1       1.1       0.8       1.8
 5 C  s               8.6       0.1      15.4       3.2       0.1       0.5
 5 C  pz              0.0       0.0       0.4       0.0       0.1       0.2
 5 C  px              0.1       2.0       1.4       0.5       0.2       5.9
 5 C  py              1.9       0.2       0.0       0.6       0.1       0.7
 6 C  s               7.1       3.1      16.0       0.8       0.3       8.1
 6 C  pz              0.7       0.3       0.0       0.1       0.0       0.2
 6 C  px              0.4       0.5       1.4       2.3       0.0       0.1
 6 C  py              0.7       0.7       0.3       0.7       0.1       0.3
 7 C  s               9.7      10.9       0.0      10.5       0.1       1.2
 7 C  pz              0.1       0.1       3.1       0.0       0.0       0.9
 7 C  px              1.5       0.1       0.0       1.0       0.2       6.7
 7 C  py              0.1       0.2       6.2       0.1       0.1       2.5
 7 C  dyz             0.1       0.1       0.0       0.1       0.0       0.0
 7 C  dx2y2           0.0       0.0       0.0       0.0       0.0       0.1
 7 C  dxy             0.0       0.0       0.1       0.0       0.0       0.0
 8 C  s              11.2       6.7      10.8       0.6       0.0       0.7
 8 C  pz              0.4       0.4       0.2       0.6       0.0       0.4
 8 C  px              0.4       0.9       1.2       7.1       0.3       5.3
 8 C  py              0.9       0.7       0.3       0.7       0.0       0.3
 9 C  s              11.6       0.0      11.4       8.6       0.2       3.1
 9 C  pz              0.8       0.2       0.2       0.2       0.3       1.6
 9 C  px              0.4       2.8       1.1       0.4       0.0       1.8
 9 C  py              0.7       0.2       0.4       0.2       0.0       1.3
10 C  s               0.5       1.2       0.1       2.9       0.2       6.3
10 C  pz              0.1       0.2       0.1       0.4       0.0       1.3
10 C  px              2.2       3.3       0.0       5.0       0.1       2.2
10 C  py              0.1       0.2       0.2       0.5       0.1       2.2
11 O  s               0.5       0.8       0.0       1.4       0.0       1.6
11 O  pz              0.0       0.0       0.0       0.0       0.0       0.2
11 O  px              0.0       0.0       0.0       0.2       0.0       0.3
11 O  py              0.0       0.0       0.0       0.1       0.0       0.4
12 H  s               0.2       1.7       0.1       2.0       6.1       0.2
13 H  s               0.3       1.6       0.1       1.4       7.4       0.0
14 H  s               0.3       1.6       0.0       1.3       7.7       0.0
15 H  s               0.2       1.4       0.0       1.0       4.6       1.5
16 H  s               0.2       1.4       0.0       1.5       2.8       2.5
17 H  s               1.3       0.1       3.4       0.6       0.0       0.2
18 H  s               1.6       0.0       2.9       0.7       0.2       0.1
19 H  s               1.1       0.5       3.4       0.1       0.1       2.4
20 H  s               1.0       0.5       3.3       0.2       0.1       2.7
21 H  s               1.6       1.2       2.7       0.2       0.0       0.1
22 H  s               1.8       0.0       2.8       1.8       0.0       1.2
23 H  s               2.1       0.0       2.6       1.8       0.4       1.1
24 H  s               0.1       0.3       0.1       0.7       0.1       3.2

                     18        19        20        21        22        23   
                  -0.56202  -0.52331  -0.48440  -0.47380  -0.44304  -0.42381
                   2.00000   2.00000   2.00000   2.00000   2.00000   2.00000
                  --------  --------  --------  --------  --------  --------
 0 C  s               0.1       0.0       1.0       1.5       0.3       0.0
 0 C  pz              0.0       0.0       3.4       3.0       5.0       4.8
 0 C  px              0.1       0.0       1.5       2.0       0.1       6.9
 0 C  py              0.2       0.0       0.5       0.3       0.9       0.0
 1 C  s               0.1       0.5       6.7       2.0       1.9       0.3
 1 C  pz              0.2       0.0       0.1       0.6       0.7       0.1
 1 C  px              1.6       1.6       2.0       0.0       2.7       8.4
 1 C  py              0.6       0.0       0.0       0.1       0.0       0.6
 2 C  s               0.9       1.6       4.1       0.1       0.5       0.8
 2 C  pz              0.0       0.2       4.0       1.3       7.1      12.5
 2 C  px              0.2       1.0       5.8       0.1       0.0       0.1
 2 C  py              0.0       0.0       0.2       0.1       0.5       1.8
 2 C  dxz             0.0       0.0       0.2       0.0       0.1       0.1
 3 C  s               1.6       2.2       0.2       1.3       0.2       0.1
 3 C  pz              0.4       2.0       0.1      10.2       1.4       2.7
 3 C  px              0.7       0.3      10.7       1.6       0.7       3.2
 3 C  py              6.8       0.3       0.2       2.2       0.2       0.0
 4 H  s               0.7       2.1       0.3       7.5       0.7       0.6
 5 C  s              10.5       3.8       0.0       0.3       0.2       0.9
 5 C  pz              0.2       0.2       1.3       8.4       0.1       1.4
 5 C  px              0.8       0.0       0.0       0.3       3.6       0.9
 5 C  py              1.5       3.8       2.6       1.0       1.2       0.0
 6 C  s               3.8       0.0       2.1       1.1       0.5       1.2
 6 C  pz              0.5       0.0       2.2       6.6       0.0       0.0
 6 C  px              7.2       0.3       0.4       1.0       2.2       0.3
 6 C  py              0.5       2.9       3.4       0.2       0.1       1.6
 7 C  s               0.9       0.8       0.9       2.4       0.5       0.3
 7 C  pz              4.9       0.1       0.0       0.2       0.2       1.5
 7 C  px              2.6      13.1       0.3       0.1       5.4       2.0
 7 C  py              6.2       0.2       0.1       1.3       0.2       0.1
 7 C  dx2y2           0.0       0.2       0.1       0.0       0.0       0.1
 7 C  dxy             0.1       0.1       0.0       0.0       0.0       0.0
 8 C  s               8.4       2.2       2.4       0.4       0.2       0.2
 8 C  pz              0.3       2.1       3.7       0.2       1.3       0.7
 8 C  px              1.1       0.9       0.8       0.0       0.8       2.4
 8 C  py              0.3       1.7       6.7       5.0       3.3       0.5
 8 C  dx2y2           0.0       0.1       0.0       0.0       0.0       0.1
 9 C  s               2.9       4.6       0.1       0.2       0.0       0.4
 9 C  pz              0.2       4.2       1.8       3.3       0.4       1.9
 9 C  px              6.5       1.1       0.2       0.6       0.2       1.1
 9 C  py              0.0       1.1       3.0       2.5       2.1       4.7
10 C  s               0.9       9.5       0.1       0.9       1.2       0.1
10 C  pz              0.0       2.1       0.0       0.8       3.1       1.6
10 C  px              2.3       0.6       0.1       2.2      11.6       4.2
10 C  py              0.1       3.4       0.0       3.4       7.9       1.7
10 C  dxy             0.1       0.1       0.0       0.0       0.0       0.0
11 O  s               1.0       3.7       0.0       0.3       0.5       0.2
11 O  pz              0.0       0.8       0.0       0.3       1.7       0.2
11 O  px              0.6       0.8       0.0       0.2       2.1       2.6
11 O  py              0.0       1.3       0.0       1.1       4.0       0.1
12 H  s               0.1       0.0       1.8       2.1       0.1       2.2
13 H  s               0.0       0.0       0.9       1.0       0.7       1.3
14 H  s               0.1       0.0       0.7       0.5       1.9       2.1
15 H  s               0.2       0.5       3.6       0.8       3.9       7.5
16 H  s               0.5       1.2       5.6       0.1       0.2       0.0
17 H  s               4.4       2.3       0.6       0.0       1.6       1.7
18 H  s               4.3       2.8       0.1       3.9       0.2       0.1
19 H  s               1.9       0.1       1.9       3.6       0.1       0.2
20 H  s               1.8       0.1       2.8       0.1       0.1       2.0
21 H  s               4.2       0.0       7.4       2.5       2.2       0.6
22 H  s               1.7       3.2       0.3       0.2       0.7       2.1
23 H  s               1.0       4.3       0.0       2.4       0.1       1.6
24 H  s               0.0       7.0       0.0       4.0      10.1       2.2

                     24        25        26        27        28        29   
                  -0.40738  -0.40042  -0.39622  -0.38400  -0.37463  -0.36038
                   2.00000   2.00000   2.00000   2.00000   2.00000   2.00000
                  --------  --------  --------  --------  --------  --------
 0 C  s               0.0       0.1       0.1       0.0       0.0       0.0
 0 C  pz              1.5       0.6       2.8       2.9       0.6       0.7
 0 C  px              1.0       0.7       0.2       6.8       3.5       0.6
 0 C  py              2.1       3.4       0.7      15.6      19.7       0.0
 0 C  dyz             0.0       0.0       0.0       0.2       0.1       0.0
 0 C  dx2y2           0.0       0.0       0.0       0.0       0.1       0.0
 1 C  s               0.0       0.0       0.1       0.1       0.2       0.0
 1 C  pz              0.4       3.9       5.1       0.9       3.1       1.5
 1 C  px              0.1       0.0       0.2       1.2       0.2       0.4
 1 C  py              4.4       0.1       0.1       3.9       2.3       0.3
 1 C  dz2             0.0       0.0       0.1       0.0       0.1       0.0
 2 C  s               0.1       0.1       0.1       0.1       0.1       0.0
 2 C  pz              0.1       0.0       0.6       1.7       0.6       0.2
 2 C  px              2.2       7.0      14.8       1.1       0.3       2.8
 2 C  py              0.6       0.0       0.1       0.2       1.1       0.0
 3 C  s               0.3       0.1       2.4       0.2       0.2       0.0
 3 C  pz              0.3       1.6       2.4       1.0       0.3       0.2
 3 C  px              0.7       0.0       1.6       0.7       0.1       0.4
 3 C  py             10.1       0.0       1.2       0.1       0.0       0.7
 3 C  dyz             0.0       0.1       0.0       0.0       0.0       0.0
 3 C  dxy             0.0       0.0       0.0       0.1       0.0       0.1
 4 H  s               0.6       0.8       0.1       0.6       0.3       0.2
 5 C  s               0.4       0.1       0.1       0.0       0.2       0.2
 5 C  pz              0.3       6.4       4.3       1.2       0.3      10.0
 5 C  px              3.6       0.8       0.9       0.5       0.1       1.0
 5 C  py              8.3       0.1       0.8       1.9       0.1       3.8
 5 C  dyz             0.0       0.1       0.0       0.0       0.0       0.2
 5 C  dxy             0.1       0.0       0.1       0.0       0.0       0.0
 6 C  s               0.0       0.0       0.2       0.0       0.0       0.1
 6 C  pz              5.2      11.1       0.8       0.0       0.1       0.4
 6 C  px              0.8       2.0       1.0       0.7       0.4       0.2
 6 C  py              3.8       1.3       5.8       0.2       2.3       7.9
 6 C  dxy             0.0       0.0       0.1       0.0       0.1       0.0
 7 C  s               0.5       0.4       0.9       0.1       0.0       0.0
 7 C  pz              2.7       0.4       0.8       1.6       2.7       6.2
 7 C  px              0.6       0.0       1.9       1.0       0.5       0.1
 7 C  py              0.8       7.6       0.1       0.3       0.2       0.4
 7 C  dxy             0.0       0.0       0.0       0.0       0.0       0.4
 8 C  s               0.2       0.2       0.2       0.0       0.3       0.5
 8 C  pz              3.4       2.1       1.7       4.8       0.4       0.5
 8 C  px              2.5       5.7       2.5       0.5       0.7       0.9
 8 C  py              1.1       0.5       4.6       0.5       2.1       6.7
 8 C  dxz             0.0       0.1       0.2       0.0       0.0       0.0
 8 C  dxy             0.2       0.0       0.1       0.1       0.0       0.1
 9 C  s               0.1       0.1       0.3       0.0       0.4       0.1
 9 C  pz              3.9       0.5       6.6       7.7       2.2       0.2
 9 C  px              5.8       8.4       0.7       0.0       0.7       0.8
 9 C  py              6.6       0.0       0.9       7.7       1.4       0.9
 9 C  dz2             0.0       0.0       0.0       0.2       0.1       0.0
 9 C  dxz             0.0       0.0       0.1       0.0       0.0       0.0
 9 C  dyz             0.0       0.0       0.1       0.0       0.0       0.0
 9 C  dxy             0.1       0.0       0.1       0.0       0.0       0.0
10 C  s               0.3       0.6       0.1       0.0       0.5       0.2
10 C  pz              0.6       0.7       0.3       0.4       4.0       2.9
10 C  px              0.0       0.6       0.4       0.7       0.9       0.5
10 C  py              0.1       1.0       0.4       1.1       1.0       6.8
11 O  s               1.2       2.7       0.2       0.0       4.8       2.3
11 O  pz              0.1       3.9       0.0       0.1       1.1      12.8
11 O  px              1.9       2.5       0.0       0.1       8.2       4.5
11 O  py              1.0       1.0       1.5       1.1       9.7       0.0
12 H  s               0.1       1.0       0.0       0.6       5.4       0.2
13 H  s               1.9       0.2       0.4       8.3       7.3       0.1
14 H  s               0.5       1.1       1.2       7.3       2.0       0.0
15 H  s               0.0       0.1       1.1       0.4       0.5       0.0
16 H  s               1.3       3.5       7.6       0.6       0.1       1.4
17 H  s               0.6       2.5       3.2       0.1       0.0       6.0
18 H  s               1.7       1.6       0.6       1.1       0.3       3.2
19 H  s               3.2       4.9       0.4       0.1       0.0       0.1
20 H  s               0.6       1.9       4.3       0.0       1.7       3.0
21 H  s               1.0       0.2       6.1       0.5       0.4       3.6
22 H  s               6.4       0.9       0.4       4.2       0.1       0.7
23 H  s               1.2       1.4       2.8       6.0       2.7       0.0
24 H  s               0.0       0.2       0.1       0.3       0.6       0.9

                     30        31        32        33        34        35   
                  -0.35508  -0.34882  -0.33947  -0.33075  -0.32532  -0.30004
                   2.00000   2.00000   2.00000   2.00000   2.00000   2.00000
                  --------  --------  --------  --------  --------  --------
 0 C  s               0.0       0.0       0.0       0.0       0.4       0.1
 0 C  pz              0.5       0.1       0.4       1.5      13.3       5.1
 0 C  px              1.6       3.0      20.4       3.7       0.7       0.0
 0 C  py              0.1       6.5       1.1       0.0       0.1       0.0
 0 C  dx2y2           0.0       0.1       0.2       0.0       0.1       0.0
 0 C  dxy             0.0       0.0       0.3       0.1       0.1       0.0
 1 C  s               0.0       0.1       0.1       0.0       0.2       0.0
 1 C  pz              0.7       1.0       0.1       0.2       7.6       4.1
 1 C  px              0.1       0.0       4.1       0.0       0.4       0.1
 1 C  py              0.7       0.1       0.1       0.0       1.0       0.8
 1 C  dz2             0.0       0.1       0.2       0.0       0.1       0.0
 1 C  dxz             0.0       0.0       0.3       0.0       0.3       0.2
 1 C  dx2y2           0.0       0.0       0.1       0.0       0.1       0.0
 1 C  dxy             0.0       0.0       0.0       0.0       0.0       0.1
 2 C  s               0.0       0.0       0.3       0.0       0.3       0.3
 2 C  pz              0.0       0.2       1.7       3.7      11.2       0.4
 2 C  px              2.1       0.1       1.9       5.4       0.9       0.7
 2 C  py              0.2       0.0       0.0       1.0       1.1       1.3
 2 C  dz2             0.0       0.0       0.0       0.2       0.2       0.0
 2 C  dxz             0.0       0.0       0.0       0.0       0.1       0.0
 3 C  s               0.0       0.1       0.4       0.1       0.0       0.2
 3 C  pz              3.2       0.8       0.0       8.0       0.0       5.4
 3 C  px              0.1       0.1       4.6       0.3       0.0       0.6
 3 C  py              1.6       1.2       2.2       0.3       0.0      13.1
 3 C  dz2             0.0       0.0       0.0       0.1       0.0       0.4
 3 C  dxz             0.2       0.0       0.0       0.0       0.1       0.0
 3 C  dyz             0.0       0.0       0.0       0.1       0.0       0.3
 4 H  s               0.4       0.0       0.2       4.8       0.0      11.4
 5 C  s               0.1       0.0       0.0       0.1       0.1       0.2
 5 C  pz              1.4       0.2       0.4       0.8       4.2       2.8
 5 C  px              0.8       2.5       9.4       0.0       5.4       0.4
 5 C  py              4.5       0.0       0.7       0.4       0.7      12.5
 5 C  dz2             0.1       0.0       0.0       0.0       0.1       0.3
 5 C  dyz             0.0       0.0       0.0       0.0       0.0       0.2
 5 C  dxy             0.0       0.0       0.0       0.0       0.0       0.2
 6 C  s               0.2       0.1       0.0       0.0       0.0       0.1
 6 C  pz              7.2       0.3       0.4       6.1       4.3       0.9
 6 C  px              2.2       2.4      10.1       0.8       4.6       0.0
 6 C  py              6.1       0.0       0.6       1.6       1.7       5.7
 6 C  dz2             0.0       0.0       0.0       0.1       0.1       0.1
 6 C  dx2y2           0.0       0.0       0.2       0.0       0.1       0.0
 6 C  dxy             0.0       0.0       0.0       0.0       0.0       0.3
 7 C  s               0.5       0.0       0.4       0.1       0.0       0.1
 7 C  pz              0.7       0.4       0.7       0.0       0.2       0.9
 7 C  px              1.2       0.8       3.5       0.4       0.6       0.0
 7 C  py              5.4       2.1       1.1       0.1       0.0       0.6
 7 C  dxz             0.2       0.0       0.0       0.1       0.0       0.0
 7 C  dx2y2           0.0       0.1       0.2       0.0       0.1       0.0
 7 C  dxy             0.1       0.0       0.0       0.0       0.1       0.0
 8 C  s               0.4       0.0       0.1       0.0       0.0       0.0
 8 C  pz              1.9       0.1       0.0       0.2       0.2       1.6
 8 C  px              2.1      11.4       0.0       0.0       0.4       0.2
 8 C  py              0.4       0.0       0.0       0.4       0.0       0.1
 8 C  dx2y2           0.2       0.1       0.1       0.0       0.0       0.0
 9 C  s               0.3       0.0       0.0       0.1       0.0       0.1
 9 C  pz              3.9       0.9       0.6       3.6       0.2       1.6
 9 C  px              2.8      11.0       0.1       0.1       0.4       0.4
 9 C  py              8.9       0.7       1.0       0.0       0.0       1.9
 9 C  dz2             0.0       0.1       0.0       0.1       0.0       0.2
 9 C  dx2y2           0.1       0.1       0.0       0.0       0.0       0.2
10 C  s               0.1       0.7       0.2       0.0       0.1       0.0
10 C  pz              6.3       5.2       0.0       7.3       2.8       0.3
10 C  px              0.9       1.7       3.5       0.1       1.1       0.0
10 C  py              2.4       2.2       0.9       4.7       1.1       0.0
10 C  dz2             0.1       0.0       0.0       0.1       0.1       0.0
10 C  dxz             0.0       0.1       0.0       0.1       0.0       0.0
10 C  dxy             0.0       0.1       0.0       0.1       0.0       0.0
11 O  s               0.0       4.1       0.1       0.0       0.1       0.0
11 O  pz              8.4       1.2       0.0      11.5       7.4       0.4
11 O  px              0.5      10.0       1.1       0.0       0.1       0.4
11 O  py              1.1      12.6       2.3       8.0       0.7       0.4
12 H  s               0.6       3.5      10.2       2.0       1.0       0.0
13 H  s               0.1       2.6       0.0       0.3       2.4       1.5
14 H  s               0.1       0.4       8.1       1.5       2.6       0.1
15 H  s               0.1       0.1       0.1       4.9       8.4       0.4
16 H  s               1.1       0.0       1.0       4.5       1.8       0.1
17 H  s               0.5       0.7       1.2       0.2       0.0       0.4
18 H  s               1.6       0.2       0.1       0.3       3.7       8.1
19 H  s               2.1       0.3       0.0       4.3       3.7       1.8
20 H  s               2.8       0.3       0.7       1.8       0.0       4.3
21 H  s               1.3       1.6       0.0       0.1       0.1       0.2
22 H  s               5.3       0.1       0.5       0.2       0.1       3.1
23 H  s               0.5       1.9       0.0       2.2       0.1       1.8
24 H  s               0.0       2.9       0.7       0.1       0.0       0.1

                     36        37        38        39        40        41   
                  -0.28973  -0.28188  -0.23865  -0.22224  -0.20021  -0.08819
                   2.00000   2.00000   2.00000   2.00000   2.00000   0.00000
                  --------  --------  --------  --------  --------  --------
 0 C  s               0.1       0.1       0.0       0.0       0.0       0.1
 0 C  pz              2.2       1.9       0.0       0.2       0.0       0.0
 0 C  px              0.3       1.8       0.0       0.0       0.0       0.1
 0 C  py              2.1       0.2       0.0       1.7       0.0       0.0
 0 C  dz2             0.1       0.1       0.0       0.1       0.0       0.0
 0 C  dyz             0.0       0.0       0.0       0.5       0.0       0.0
 1 C  s               0.0       0.4       0.0       0.0       0.0       0.0
 1 C  pz              0.8       0.5       0.1       2.5       0.0       0.0
 1 C  px              1.4      12.5       0.2       0.3       0.0       0.0
 1 C  py              2.9       0.7       1.1      25.5       0.0       0.0
 1 C  dz2             0.1       0.3       0.0       0.1       0.0       0.0
 1 C  dxz             0.1       0.0       0.0       0.0       0.0       0.0
 1 C  dyz             0.0       0.0       0.0       0.3       0.0       0.0
 1 C  dx2y2           0.0       0.2       0.0       0.0       0.0       0.0
 1 C  dxy             0.0       0.0       0.0       0.3       0.0       0.0
[...]
 6 C  s               0.6       0.1       0.1       0.1       0.4       0.0
 6 C  pz              0.1       0.0       0.0       0.0       0.2       0.0
 6 C  px              1.4       0.0       0.3       0.2       0.5       0.0
 6 C  py              0.0       0.0       0.2       0.0       0.6       0.0
 6 C  dz2             0.3       0.2       0.9       0.1       0.1       0.1
 6 C  dxz             1.7       0.0       0.2       0.2       2.0       0.0
 6 C  dyz             0.1       0.1       0.9       0.0       0.9       0.0
 6 C  dx2y2           4.2       1.0       4.1       0.4       0.3       0.0
 6 C  dxy             0.6       0.9       0.8       0.4       3.6       0.0
 7 C  s               0.8       0.6       2.2       0.2       0.0       0.0
 7 C  pz              0.0       0.2       0.7       0.0       0.1       0.0
 7 C  px              0.4       0.2       0.1       0.1       0.2       0.0
 7 C  py              0.0       0.4       1.4       0.0       0.1       0.0
 7 C  dz2             0.7       0.1       0.0       0.0       1.4       0.3
 7 C  dxz             0.2       0.8       5.1       0.0       4.0       0.6
 7 C  dyz             0.4       2.9       2.3       0.3       6.7       0.1
 7 C  dx2y2           0.7       2.6       0.1       0.2      16.0       0.1
 7 C  dxy             0.7       1.7       8.9       0.0       5.8       0.2
 8 C  s               0.8       0.6       1.5       0.0       0.3       0.0
 8 C  pz              0.1       0.2       0.6       0.0       0.1       0.0
 8 C  px              0.2       0.6       0.7       0.3       0.4       0.0
 8 C  py              0.1       0.4       1.1       0.0       0.1       0.0
 8 C  dz2             0.1       0.0       0.0       0.0       2.7       0.0
 8 C  dxz             0.2       2.1       3.8       0.6       2.7       0.0
 8 C  dyz             0.6       0.4       2.7       0.0       2.2       0.0
 8 C  dx2y2           0.0       0.1       0.4       0.2      15.9       0.0
 8 C  dxy             0.0       2.9       6.6       0.5       2.5       0.1
 9 C  s               0.0       0.1       0.0       0.0       0.8       0.0
 9 C  pz              0.2       0.1       0.0       0.1       0.0       0.0
 9 C  px              0.2       0.1       0.2       0.4       1.1       0.0
 9 C  py              0.4       0.0       0.0       0.0       0.0       0.0
 9 C  dz2             1.6       0.2       0.0       0.1       1.7       0.0
 9 C  dxz             0.1       0.7       1.7       1.1       0.4       0.0
 9 C  dyz             1.4       1.2       0.0       0.5       0.3       0.0
 9 C  dx2y2           1.1       0.1       0.1       0.9       5.0       0.0
 9 C  dxy             0.4       0.5       2.8       0.4       1.2       0.0
10 C  s               0.0       0.1       0.0       0.0       0.8       0.0
10 C  pz              0.0       0.0       0.0       0.0       0.1       0.7
10 C  px              0.1       0.3       0.0       0.0       0.7       0.0
10 C  py              0.0       0.0       0.0       0.0       0.1       0.4
10 C  dz2             0.9       0.0       0.4       0.0       0.2       7.8
10 C  dxz             0.3       0.1       0.9       0.0       1.5       5.3
10 C  dyz             0.4       0.0       0.2       0.0       0.0       0.9
10 C  dx2y2           0.7       0.1       1.6       0.0       0.8       1.7
10 C  dxy             1.3       0.1       2.1       0.0       4.0       3.0
11 O  s               0.1       0.0       0.2       0.0       0.6       0.0
11 O  pz              0.0       0.0       0.1       0.0       0.1       0.8
11 O  px              0.1       0.0       0.1       0.0       0.3       0.0
11 O  py              0.0       0.0       0.2       0.0       0.2       0.4
11 O  dz2             7.4       0.0       0.0       0.0       1.2      36.2
11 O  dxz             1.2       0.1       0.1       0.1       0.2      16.7
11 O  dyz            12.9       1.8       6.0       0.3       0.7       4.5
11 O  dx2y2           3.6       1.8       3.4       0.2       0.6       9.3
11 O  dxy             6.2       0.2       0.3       0.1       0.5      10.6
12 H  s               0.0       0.1       0.0       0.1       0.0       0.0
15 H  s               0.0       0.1       0.0       0.7       0.0       0.0
16 H  s               0.0       0.0       0.1       0.7       0.0       0.0
20 H  s               0.2       0.0       0.0       0.0       0.1       0.0
21 H  s               0.0       0.1       0.1       0.0       0.7       0.0
24 H  s               0.2       0.0       0.0       0.0       0.0       0.0

                    180       181   
                   3.22476   3.51115
                   0.00000   0.00000
                  --------  --------
 5 C  dxy             0.1       0.0
 6 C  dxz             0.2       0.0
 6 C  dyz             0.3       0.1
 6 C  dx2y2           0.4       0.1
 6 C  dxy             0.3       0.0
 7 C  px              1.2       0.1
 7 C  py              0.1       0.1
 7 C  dz2             0.6       0.0
 7 C  dxz             1.7       0.4
 7 C  dyz             1.0       0.1
 7 C  dx2y2           3.0       0.0
 7 C  dxy             4.1       0.8
 8 C  s               0.5       0.1
 8 C  pz              0.2       0.0
 8 C  px              0.3       0.0
 8 C  py              0.3       0.0
 8 C  dxz             0.6       0.0
 8 C  dx2y2           0.0       0.2
 8 C  dxy             0.9       0.0
 9 C  dxy             0.1       0.0
10 C  s               0.1       7.2
10 C  pz              0.2       1.4
10 C  px              0.1       2.7
10 C  py              0.4       2.4
10 C  dz2             2.1       0.3
10 C  dxz             1.4       2.2
10 C  dyz             3.3       0.8
10 C  dx2y2          15.6       0.2
10 C  dxy             1.5       3.6
11 O  s               0.3       6.2
11 O  pz              0.0       1.0
11 O  px              1.0       1.3
11 O  py              0.1       1.7
11 O  dz2             5.0       1.0
11 O  dxz             3.8      16.4
11 O  dyz             7.1      20.1
11 O  dx2y2          36.4       0.5
11 O  dxy             4.4      28.7
24 H  s               0.5       0.0


                      *****************************
                      * MAYER POPULATION ANALYSIS *
                      *****************************

  NA   - Mulliken gross atomic population
  ZA   - Total nuclear charge
  QA   - Mulliken gross atomic charge
  VA   - Mayer's total valence
  BVA  - Mayer's bonded valence
  FA   - Mayer's free valence

  ATOM       NA         ZA         QA         VA         BVA        FA
  0 C      6.2359     6.0000    -0.2359     3.9214     3.9214    -0.0000
  1 C      6.0111     6.0000    -0.0111     4.2734     4.2734     0.0000
  2 C      6.2316     6.0000    -0.2316     3.9429     3.9429    -0.0000
  3 C      6.1686     6.0000    -0.1686     4.1132     4.1132    -0.0000
  4 H      0.9358     1.0000     0.0642     0.9606     0.9606    -0.0000
  5 C      6.1436     6.0000    -0.1436     4.0584     4.0584     0.0000
  6 C      6.0534     6.0000    -0.0534     4.0242     4.0242     0.0000
  7 C      6.0569     6.0000    -0.0569     3.9137     3.9137     0.0000
  8 C      6.1650     6.0000    -0.1650     3.9691     3.9691     0.0000
  9 C      6.0536     6.0000    -0.0536     3.9137     3.9137     0.0000
 10 C      5.9651     6.0000     0.0349     4.1105     4.1105     0.0000
 11 O      8.1729     8.0000    -0.1729     2.2954     2.2954     0.0000
 12 H      0.8977     1.0000     0.1023     0.9681     0.9681     0.0000
 13 H      0.8800     1.0000     0.1200     0.9512     0.9512    -0.0000
 14 H      0.8872     1.0000     0.1128     0.9609     0.9609    -0.0000
 15 H      0.9148     1.0000     0.0852     0.9497     0.9497    -0.0000
 16 H      0.9191     1.0000     0.0809     0.9504     0.9504     0.0000
 17 H      0.9092     1.0000     0.0908     0.9531     0.9531    -0.0000
 18 H      0.9097     1.0000     0.0903     0.9547     0.9547    -0.0000
 19 H      0.8998     1.0000     0.1002     0.9535     0.9535     0.0000
 20 H      0.8981     1.0000     0.1019     0.9672     0.9672     0.0000
 21 H      0.9339     1.0000     0.0661     0.9646     0.9646     0.0000
 22 H      0.8957     1.0000     0.1043     0.9493     0.9493     0.0000
 23 H      0.8918     1.0000     0.1082     0.9648     0.9648     0.0000
 24 H      0.9695     1.0000     0.0305     0.9591     0.9591    -0.0000

  Mayer bond orders larger than 0.100000
B(  0-C ,  1-C ) :   1.1077 B(  0-C , 12-H ) :   0.9338 B(  0-C , 13-H ) :   0.9223 
B(  0-C , 14-H ) :   0.9314 B(  1-C ,  2-C ) :   2.0375 B(  1-C ,  3-C ) :   1.0171 
B(  2-C , 15-H ) :   0.9108 B(  2-C , 16-H ) :   0.9039 B(  3-C ,  4-H ) :   0.8885 
B(  3-C ,  5-C ) :   1.0512 B(  3-C ,  9-C ) :   1.0737 B(  5-C ,  6-C ) :   1.1309 
B(  5-C , 17-H ) :   0.9181 B(  5-C , 18-H ) :   0.9090 B(  6-C ,  7-C ) :   1.0626 
B(  6-C , 19-H ) :   0.8859 B(  6-C , 20-H ) :   0.8923 B(  7-C ,  8-C ) :   1.7632 
B(  7-C , 10-C ) :   1.0203 B(  8-C ,  9-C ) :   1.0580 B(  8-C , 11-O ) :   0.1009 
B(  8-C , 21-H ) :   0.9269 B(  9-C , 22-H ) :   0.9003 B(  9-C , 23-H ) :   0.8641 
B( 10-C , 11-O ) :   2.1149 B( 10-C , 24-H ) :   0.9215 

-------
TIMINGS
-------

Total SCF time: 0 days 0 hours 0 min 15 sec 

Total time                  ....      15.231 sec
Sum of individual times     ....      14.530 sec  ( 95.4%)

SCF preparation             ....       0.212 sec  (  1.4%)
Fock matrix formation       ....      13.155 sec  ( 86.4%)
  Startup                   ....       0.076 sec  (  0.6% of F)
  Split-RI-J                ....       5.354 sec  ( 40.7% of F)
  XC integration            ....       7.044 sec  ( 53.5% of F)
    Basis function eval.    ....       2.324 sec  ( 33.0% of XC)
    Density eval.           ....       0.999 sec  ( 14.2% of XC)
    XC-Functional eval.     ....       0.487 sec  (  6.9% of XC)
    XC-Potential eval.      ....       1.474 sec  ( 20.9% of XC)
Diagonalization             ....       0.000 sec  (  0.0%)
Density matrix formation    ....       0.295 sec  (  1.9%)
Total Energy calculation    ....       0.051 sec  (  0.3%)
Population analysis         ....       0.126 sec  (  0.8%)
Orbital Transformation      ....       0.064 sec  (  0.4%)
Orbital Orthonormalization  ....       0.000 sec  (  0.0%)
DIIS solution               ....       0.383 sec  (  2.5%)
  MO trafo                  ....       0.000 sec  (  0.0 % of DIIS)
  Orb grad                  ....       0.000 sec  (  0.0 % of DIIS)
  Energy W gradient         ....       0.000 sec  (  0.0 % of DIIS)
  DIIS error                ....       0.010 sec  (  2.5 % of DIIS)
  DIIS work                 ....       0.321 sec  ( 83.8 % of DIIS)
  Form Q                    ....       0.000 sec  (  0.0 % of DIIS)
  Form QpQm                 ....       0.000 sec  (  0.0 % of DIIS)
  Exp/Cayley                ....       0.000 sec  (  0.0 % of DIIS)
  Orb update                ....       0.000 sec  (  0.0 % of DIIS)
  Wake-sleep                ....       0.018 sec  (  4.8 % of DIIS)
SOSCF solution              ....       0.244 sec  (  1.6%)
  MO trafo                  ....       0.091 sec  ( 37.1 % of SOSCF)
  Orb grad                  ....       0.004 sec  (  1.7 % of SOSCF)
  Rot update                ....       0.093 sec  ( 38.2 % of SOSCF)
  Step                      ....       0.056 sec  ( 22.8 % of SOSCF)
Finished LeanSCF after  15.3 sec

Maximum memory used throughout the entire LEANSCF-calculation: 17.4 MB


-------------------------------------------------------------------------------
                          DFT DISPERSION CORRECTION                            
                                                                               
                                DFTD4 V3.4.0                                   
-------------------------------------------------------------------------------
The PBE functional is recognized
Active option DFTDOPT                   ...         5   

-------------------------   ----------------
Dispersion correction           -0.026281369
-------------------------   ----------------

------------------   -----------------
gCP correction             0.102550008
------------------   -----------------

-------------------------   --------------------
FINAL SINGLE POINT ENERGY      -463.629268488003
-------------------------   --------------------


------------------------------------------------------------------------------
                              ORCA PROPERTY CALCULATIONS
------------------------------------------------------------------------------

GBWName                                 ... sp.gbw
Number of atoms                         ...     25
Number of basis functions               ...    182
Max core memory                         ...   1024 MB

Electric properties:
Dipole moment                           ... YES
Quadrupole moment                       ...  NO
Static polarizability (Dipole/Dipole)   ...  NO
Static polarizability (Dipole/Quad.)    ...  NO
Static polarizability (Quad./Quad.)     ...  NO
Static polarizability (Velocity)        ...  NO

Atomic electric properties:
Dipole moment                           ...  NO
Quadrupole moment                       ...  NO
Static polarizability                   ...  NO

Choice of electric origin               ... Center of mass
Position of electric origin             ...     0.000036     0.000002     0.000006

General magnetic properties:
Magnetizability                         ...  NO

EPR properties:
g-Tensor (aka g-matrix)                 ...  NO
Zero-Field splitting spin-orbit         ...  NO
Zero-field splitting spin-spin          ...  NO
Hyperfine couplings                     ...  NO (   0 nuclei)
Quadrupole couplings                    ...  NO (   0 nuclei)
Contact density                         ...  NO (   0 nuclei)

NMR properties:
Chemical shifts                         ...  NO (   0 nuclei)
Spin-rotation constants                 ...  NO (   0 nuclei)
Spin-spin couplings                     ...  NO (   0 nuclei,    0 pairs)

Choice of magnetic origin               ... GIAO
Position of magnetic origin             ...     0.000000     0.000000     0.000000

Properties with geometric perturbations:
SCF Hessian                             ...  NO
IR spectrum                             ...  NO
VCD spectrum                            ...  NO
X-ray spectroscopy properties:
SCF XES/XAS/RIXS spectra                ...  NO


-------------
DIPOLE MOMENT
-------------

Method             : SCF
Type of density    : Electron Density
Multiplicity       :   1
Irrep              :   0
Energy             :  -463.7055371273629589 Eh
Relativity type    : 
Basis              : AO
                                X                 Y                 Z
Electronic contribution:    -11.144834687       0.821646070      -1.757702691
Nuclear contribution   :     12.253784718      -0.366455479       2.339540650
                        -----------------------------------------
Total Dipole Moment    :      1.108950031       0.455190591       0.581837959
                        -----------------------------------------
Magnitude (a.u.)       :      1.332480415
Magnitude (Debye)      :      3.386896055



--------------------
Rotational spectrum 
--------------------
 
Rotational constants in cm-1:             0.098681             0.018245             0.017116 
Rotational constants in MHz :          2958.389263           546.976668           513.125990 

Dipole components along the rotational axes: 
x,y,z [a.u.] :    -1.140021    -0.687344    -0.058440 
x,y,z [Debye]:    -2.897702    -1.747089    -0.148543 

 

Dipole moment calculation done in   0.0 sec 

Maximum memory used throughout the entire PROP-calculation: 11.2 MB

--------------------------------
SUGGESTED CITATIONS FOR THIS RUN
--------------------------------

Below you find a list of papers that are relevant to this ORCA run
We neither can nor want to force you to cite these papers, but we appreciate if you do
You receive ORCA, which is the product of decades of hard work by many enthusiastic individuals, for free
The only thing we kindly ask in return is that you cite our papers,
We deeply appreciate it, if you show your appreciation for ORCA by not just citing the generic ORCA reference.

Please note that relegating all ORCA citations to the supporting information does *not* help us.
SI sections are not indexed - citations you put there will not count into any citation statistics
But we need these citations in order to attract the funding resources that allow us to do what we are doing

Therefore, if you are a happy ORCA user, please consider citing a few of the papers listed below in the main body of your paper

In addition to the list printed below, the program has created the file sp.bibtex that contains the list in bibtex format
You can import this file easily into all common literature databanks and citation aid programs


List of essential papers. We consider these as the minimum necessary citations

  1. Neese,F.
     Software update: the ORCA program system, version 5.0
     WIRES Comput. Molec. Sci., 2022 12(1)e1606
     doi.org/10.1002/wcms.1606

List of papers to cite with high priority. The work reported in these papers was absolutely
necessary for this run to complete.
Our perspective: the developers of density functionals and basis sets usually get cited in chemistry papers
Good! But without the algorithms to do something with them, the functionals or basis sets would not do anything.
Hence, in our opinion, the algorithm design and method developments papers are equally worthy of getting cited

  1. Neese,F.
     An improvement of the resolution of the identity approximation for the formation of the Coulomb matrix
     J. Comp. Chem., 2003 24(14)1740-1747
     doi.org/10.1002/jcc.10318
  2. Neese,F.
     The SHARK Integral Generation and Digestion System
     J. Comp. Chem., 2022  1-16
     doi.org/10.1002/jcc.26942
  3. Caldeweyher,E.; Bannwarth,C.; Grimme,S.
     Extension of the D3 dispersion coefficient model
     J. Chem. Phys., 2017 147 034112-XXXX
     doi.org/10.1063/1.4993215
  4. Caldeweyher,E.; Ehlert,S.; Hansen,A.; Neugebauer,H.; Spicher,S.; Bannwarth,C.; Grimme,S.
     A generally applicable atomic-charge dependent London dispersion correction
     J. Chem. Phys., 2019 150 154122-XXXX
     doi.org/10.1063/1.5090222
  5. Caldeweyher,E.; Mewes,J.; Ehlert,S.; Grimme,S.
     Extension and evaluation of the D4 London-dispersion model for periodic systems
     Phys. Chem. Chem. Phys., 2020 22(16)8499-8512
     doi.org/10.1039/D0CP00502A

List of suggested additional citations. These are papers that are important in the 'surrounding' of 
of this run, or papers that preceded the highly important papers. If you like your results we are grateful for a citation.

  1. Neese,F.
     The ORCA program system
     WIRES Comput. Molec. Sci., 2012 2(1)73-78
     doi.org/10.1002/wcms.81
  2. Neese,F.
     Software update: the ORCA program system, version 4.0
     WIRES Comput. Molec. Sci., 2018 8(1)1-6
     doi.org/10.1002/wcms.1327
  3. Neese,F.; Wennmohs,F.; Becker,U.; Riplinger,C.
     The ORCA quantum chemistry program package
     J. Chem. Phys., 2020 152 Art. No. L224108
     doi.org/10.1063/5.0004608

List of optional additional citations

  1. Neese,F.
     Approximate second-order SCF convergence for spin unrestricted wavefunctions
     Chem. Phys. Lett., 2000 325(1-3)93-98
     doi.org/10.1016/s0009-2614(00)00662-x

Timings for individual modules:

Sum of individual times          ...       18.111 sec (=   0.302 min)
Startup calculation              ...        1.230 sec (=   0.021 min)   6.8 %
SCF iterations                   ...       16.747 sec (=   0.279 min)  92.5 %
Property calculations            ...        0.134 sec (=   0.002 min)   0.7 %
                             ****ORCA TERMINATED NORMALLY****
TOTAL RUN TIME: 0 days 0 hours 0 minutes 19 seconds 64 msec
