      -----------------------------------------------------------      
     |                   =====================                   |     
     |                           x T B                           |     
     |                   =====================                   |     
     |                         S. Grimme                         |     
     |          Mulliken Center for Theoretical Chemistry        |     
     |                    University of Bonn                     |     
      -----------------------------------------------------------      

   * xtb version 6.7.1 (edcfbbe) compiled by 'albert@albert-system' on 2024-07-22

   xtb is free software: you can redistribute it and/or modify it under
   the terms of the GNU Lesser General Public License as published by
   the Free Software Foundation, either version 3 of the License, or
   (at your option) any later version.
   
   xtb is distributed in the hope that it will be useful,
   but WITHOUT ANY WARRANTY; without even the implied warranty of
   MERCHANTABILITY or FITNESS FOR A PARTICULAR PURPOSE.  See the
   GNU Lesser General Public License for more details.
   
   Cite this work as:
   * C. Bannwarth, E. Caldeweyher, S. Ehlert, A. Hansen, P. Pracht,
     J. Seibert, S. Spicher, S. Grimme, WIREs Comput. Mol. Sci., 2020, 11,
     e01493. DOI: 10.1002/wcms.1493
   
   for GFN2-xTB:
   * C. Bannwarth, S. Ehlert and S. Grimme., J. Chem. Theory Comput., 2019,
     15, 1652-1671. DOI: 10.1021/acs.jctc.8b01176
   for GFN1-xTB:
   * S. Grimme, C. Bannwarth, P. Shushkov, J. Chem. Theory Comput., 2017,
     13, 1989-2009. DOI: 10.1021/acs.jctc.7b00118
   for GFN0-xTB:
   * P. Pracht, E. Caldeweyher, S. Ehlert, S. Grimme, ChemRxiv, 2019, preprint.
     DOI: 10.26434/chemrxiv.8326202.v1
   for GFN-FF:
   * S. Spicher and S. Grimme, Angew. Chem. Int. Ed., 2020, 59, 15665-15673.
     DOI: 10.1002/anie.202004239
   
   for ALPB and GBSA implicit solvation:
   * S. Ehlert, M. Stahn, S. Spicher, S. Grimme, J. Chem. Theory Comput.,
     2021, 17, 4250-4261. DOI: 10.1021/acs.jctc.1c00471
   
   for ddCOSMO and CPCM-X implicit solvation:
   * M. Stahn, S. Ehlert, S. Grimme, J. Phys. Chem. A,
     2023, XX, XXXX-XXXX. DOI: 10.1021/acs.jpca.3c04382
   
   for DFT-D4:
   * E. Caldeweyher, C. Bannwarth and S. Grimme, J. Chem. Phys., 2017,
     147, 034112. DOI: 10.1063/1.4993215
   * E. Caldeweyher, S. Ehlert, A. Hansen, H. Neugebauer, S. Spicher,
     C. Bannwarth and S. Grimme, J. Chem. Phys., 2019, 150, 154122.
     DOI: 10.1063/1.5090222
   * E. Caldeweyher, J.-M. Mewes, S. Ehlert and S. Grimme, Phys. Chem. Chem. Phys.
     2020, 22, 8499-8512. DOI: 10.1039/D0CP00502A
   
   for sTDA-xTB:
   * S. Grimme and C. Bannwarth, J. Chem. Phys., 2016, 145, 054103.
     DOI: 10.1063/1.4959605
   
   in the mass-spec context:
   * V. Asgeirsson, C. Bauer and S. Grimme, Chem. Sci., 2017, 8, 4879.
     DOI: 10.1039/c7sc00601b
   * J. Koopman and S. Grimme, ACS Omega 2019, 4, 12, 15120-15133.
     DOI: 10.1021/acsomega.9b02011
   
   for metadynamics refer to:
   * S. Grimme, J. Chem. Theory Comput., 2019, 155, 2847-2862
     DOI: 10.1021/acs.jctc.9b00143
   
   for SPH calculations refer to:
   * S. Spicher and S. Grimme, J. Chem. Theory Comput., 2021, 17, 1701-1714
     DOI: 10.1021/acs.jctc.0c01306
   
   for ONIOM refer to:
   * C. Plett, A. Katbashev, S. Ehlert, S. Grimme, M. Bursch,
     Phys. Chem. Chem. Phys., 2023, 25, 17860-17868. DOI: 10.1039/D3CP02178E
   
   for DIPRO refer to:
   * J. Kohn, N. Gildemeister, S. Grimme, D. Fazzi, A. Hansen,
     J. Chem. Phys., 2023, just accepted.
   
   for PTB refer to:
   * S. Grimme, M. Mueller, A. Hansen, J. Chem. Phys., 2023, 158, 124111.
     DOI: 10.1063/5.0137838
   
   with help from (in alphabetical order)
   P. Atkinson, C. Bannwarth, F. Bohle, G. Brandenburg, E. Caldeweyher
   M. Checinski, S. Dohm, S. Ehlert, S. Ehrlich, I. Gerasimov, C. Hölzer
   A. Katbashev, J. Kohn, J. Koopman, C. Lavigne, S. Lehtola, F. März, M. Müller,
   F. Musil, H. Neugebauer, J. Pisarek, C. Plett, P. Pracht, F. Pultar,
   J. Seibert, P. Shushkov, S. Spicher, M. Stahn, M. Steiner, T. Strunk,
   J. Stückrath, T. Rose, and J. Unsleber
   
 * started run on 2025/04/11 at 12:03:45.804     
   ID    Z sym.   atoms
    1    6 C      1-8
    2    1 H      9-24

           -------------------------------------------------
          |                Calculation Setup                |
           -------------------------------------------------

          program call               : /srv/scratch/z5358697/.xtb/bin/xtb xtb_opt.coord --opt normal --orca -I xtb_opt-xcontrol-inp
          hostname                   : k071
          coordinate file            : xtb_opt.coord
          omp threads                :                    16

           -------------------------------------------------
          |                   Orca driver                   |
           -------------------------------------------------
orca executable           : /apps/z_install_tree/linux-rocky8-ivybridge/gcc-12.2.0/orca-6.0.0-srtngmq3qlimg2qxbl6avaaiffipurdx/bin/orca
orca input file           : xtb_opt.inp
orca input line           : 
orca parallel             : true
orca number of threads    : 16
                         * ORCA takes the control...
  ------------------------------------------------------------------------

                                 *****************
                                 * O   R   C   A *
                                 *****************

                                            #,                                       
                                            ###                                      
                                            ####                                     
                                            #####                                    
                                            ######                                   
                                           ########,                                 
                                     ,,################,,,,,                         
                               ,,#################################,,                 
                          ,,##########################################,,             
                       ,#########################################, ''#####,          
                    ,#############################################,,   '####,        
                  ,##################################################,,,,####,       
                ,###########''''           ''''###############################       
              ,#####''   ,,,,##########,,,,          '''####'''          '####       
            ,##' ,,,,###########################,,,                        '##       
           ' ,,###''''                  '''############,,,                           
         ,,##''                                '''############,,,,        ,,,,,,###''
      ,#''                                            '''#######################'''  
     '                                                          ''''####''''         
             ,#######,   #######,   ,#######,      ##                                
            ,#'     '#,  ##    ##  ,#'     '#,    #''#        ,####,   ,####,        
            ##       ##  ##   ,#'  ##            #'  '#       #'       #'  '#        
            ##       ##  #######   ##           ,######,      #####,   #    #        
            '#,     ,#'  ##    ##  '#,     ,#' ,#      #,     #,   #   #,  ,#        
             '#######'   ##     ##  '#######'  #'      '#     '####' # '####'        



                #########################################################
                #                        -***-                          #
                #          Department of theory and spectroscopy        #
                #                                                       #
                #                      Frank Neese                      #
                #                                                       #
                #     Directorship, Architecture, Infrastructure        #
                #                    SHARK, DRIVERS                     #
                #        Core code/Algorithms in most modules           #
                #                                                       #
                #        Max Planck Institute fuer Kohlenforschung      #
                #                Kaiser Wilhelm Platz 1                 #
                #                 D-45470 Muelheim/Ruhr                 #
                #                      Germany                          #
                #                                                       #
                #                  All rights reserved                  #
                #                        -***-                          #
                #########################################################


                         Program Version 6.0.0  -   RELEASE  -


 With contributions from (in alphabetic order):
   Daniel Aravena         : Magnetic Suceptibility
   Michael Atanasov       : Ab Initio Ligand Field Theory (pilot matlab implementation)
   Alexander A. Auer      : GIAO ZORA, VPT2 properties, NMR spectrum
   Ute Becker             : All parallelization in ORCA, NUMFREQ, NUMCALC
   Giovanni Bistoni       : ED, misc. LED, open-shell LED, HFLD
   Martin Brehm           : Molecular dynamics
   Dmytro Bykov           : pre 5.0 version of the SCF Hessian
   Marcos Casanova-Páez   : Triplet and SCS-CIS(D). UHF-(DLPNO)-IP/EA/STEOM-CCSD. UHF-CVS-IP/STEOM-CCSD
   Vijay G. Chilkuri      : MRCI spin determinant printing, contributions to CSF-ICE
   Pauline Colinet        : FMM embedding
   Dipayan Datta          : RHF DLPNO-CCSD density
   Achintya Kumar Dutta   : EOM-CC, STEOM-CC
   Nicolas Foglia         : Exact transition moments, OPA infrastructure, MCD improvements
   Dmitry Ganyushin       : Spin-Orbit,Spin-Spin,Magnetic field MRCI
   Miquel Garcia          : C-PCM and meta-GGA Hessian, CCSD/C-PCM, Gaussian charge scheme
   Tiago L. C. Gouveia    : GS-ROHF, GS-ROCIS
   Yang Guo               : DLPNO-NEVPT2, F12-NEVPT2, CIM, IAO-localization
   Andreas Hansen         : Spin unrestricted coupled pair/coupled cluster methods
   Ingolf Harden          : AUTO-CI MPn and infrastructure 
   Benjamin Helmich-Paris : MC-RPA, TRAH-(SCF,CASSCF), AVAS, COSX integrals, SCF dyn. polar.
   Lee Huntington         : MR-EOM, pCC
   Robert Izsak           : Overlap fitted RIJCOSX, COSX-SCS-MP3, EOM
   Riya Kayal             : Wick's Theorem for AUTO-CI, AUTO-CI UHF-CCSDT
   Emily Kempfer          : AUTO-CI, RHF CISDT and CCSDT
   Christian Kollmar      : KDIIS, OOCD, Brueckner-CCSD(T), CCSD density, CASPT2, CASPT2-K, improved NEVPT2
   Axel Koslowski         : Symmetry handling
   Simone Kossmann        : Meta GGA functionals, TD-DFT gradient, OOMP2, (MP2 Hessian; deprecated post 5.0)
   Lucas Lang             : DCDCAS
   Marvin Lechner         : AUTO-CI (C++ implementation), FIC-MRCC
   Spencer Leger          : CASSCF response
   Dagmar Lenk            : GEPOL surface, SMD, ORCA-2-JSON
   Dimitrios Liakos       : Extrapolation schemes; Compound Job, initial MDCI parallelization
   Dimitrios Manganas     : Further ROCIS development; embedding schemes. LFT, Crystal Embedding
   Dimitrios Pantazis     : SARC Basis sets
   Anastasios Papadopoulos: AUTO-CI, single reference methods and gradients
   Taras Petrenko         : pre 6.0 DFT Hessian and TD-DFT gradient, (ASA, deprecated), ECA, 1-Electron XAS/XES, NRVS
   Peter Pinski           : DLPNO-MP2, DLPNO-MP2 Gradient
   Christoph Reimann      : Effective Core Potentials
   Marius Retegan         : Local ZFS, SOC
   Christoph Riplinger    : Optimizer, TS searches, QM/MM, DLPNO-CCSD(T), (RO)-DLPNO pert. Triples
   Michael Roemelt        : Original ROCIS implementation
   Masaaki Saitow         : Open-shell DLPNO-CCSD energy and density
   Barbara Sandhoefer     : DKH picture change effects
   Kantharuban Sivalingam : CASSCF convergence/infrastructure, NEVPT2 and variants, FIC-MRCI
   Bernardo de Souza      : ESD, SOC TD-DFT
   Georgi Stoychev        : AutoAux, RI-MP2 NMR, DLPNO-MP2 response, X2C
   Van Anh Tran           : RI-MP2 g-tensors
   Willem Van den Heuvel  : Paramagnetic NMR
   Zikuan Wang            : NOTCH, Electric field optimization 
   Frank Wennmohs         : Technical directorship and infrastructure
   Hang Xu                : AUTO-CI-Response properties 


 We gratefully acknowledge several colleagues who have allowed us to
 interface, adapt or use parts of their codes:
   Stefan Grimme, W. Hujo, H. Kruse, P. Pracht,  : VdW corrections, initial TS optimization,
                  C. Bannwarth, S. Ehlert,         DFT functionals, gCP, sTDA/sTD-DF
                  L. Wittmann, M. Mueller
   Ed Valeev, F. Pavosevic, A. Kumar             : LibInt (2-el integral package), F12 methods
   Garnet Chan, S. Sharma, J. Yang, R. Olivares  : DMRG
   Ulf Ekstrom                                   : XCFun DFT Library
   Mihaly Kallay                                 : mrcc  (arbitrary order and MRCC methods)
   Frank Weinhold                                : gennbo (NPA and NBO analysis)
   Simon Mueller                                 : openCOSMO-RS
   Christopher J. Cramer and Donald G. Truhlar   : smd solvation model
   Lars Goerigk                                  : TD-DFT with DH, B97 family of functionals
   V. Asgeirsson, H. Jonsson                     : NEB implementation
   FAccTs GmbH                                   : IRC, NEB, NEB-TS, DLPNO-Multilevel, CI-OPT
                                                   MM, QMMM, 2- and 3-layer-ONIOM, Crystal-QMMM,
                                                   LR-CPCM, SF, NACMEs, symmetry and pop. for TD-DFT,
                                                   nearIR, NL-DFT gradient (VV10), updates on ESD,
                                                   ML-optimized integration grids, MBIS, APM,
                                                   GOAT, DOCKER, SOLVATOR, interface openCOSMO-RS
   S Lehtola, MJT Oliveira, MAL Marques          : LibXC Library
   Liviu Ungur et al                             : ANISO software


 Your calculation uses the libint2 library for the computation of 2-el integrals
 For citations please refer to: http://libint.valeyev.net

 Your ORCA version has been built with support for libXC version: 6.2.2
 For citations please refer to: https://libxc.gitlab.io

 This ORCA versions uses:
   CBLAS   interface :  Fast vector & matrix operations
   LAPACKE interface :  Fast linear algebra routines
   SCALAPACK package :  Parallel linear algebra routines
   Shared memory     :  Shared parallel matrices
   BLAS/LAPACK       :  OpenBLAS 0.3.27  USE64BITINT DYNAMIC_ARCH NO_AFFINITY SkylakeX SINGLE_THREADED
        Core in use  :  SkylakeX
   Copyright (c) 2011-2014, The OpenBLAS Project




***************************************
The coordinates will be read from file: xtb_opt.xyz
***************************************


Your calculation utilizes the geometrical counterpoise correction gCP
Please cite in your paper:
H.Kruse, S. Grimme J.Chem.Phys., 136, (2012), 154101 
   

Your calculation utilizes the atom-pairwise dispersion correction
based on EEQ partial charges (D4)


Your calculation utilizes the SMD solvation module
Please cite in your paper:
A.V. Marenich, C.J. Cramer, D.G. Truhlar J. Phys. Chem. B, 113, (2009), 6378 

================================================================================

----- Orbital basis set information -----
Your calculation utilizes the basis: def2-mTZVPP
   Stefan Grimme, Andreas Hansen, Sebastian Ehlert, and Jan-Michael Mewes 
   J. Chem. Phys. 154, 064103 (2021). DOI: 10.1063/5.0040021

----- AuxJ basis set information -----
Your calculation utilizes the auxiliary basis: def2/J
   F. Weigend, Phys. Chem. Chem. Phys. 8, 1057 (2006).

================================================================================
                                        WARNINGS
                       Please study these warnings very carefully!
================================================================================

Using LibXC functional ID 497 : Re-regularized SCAN exchange by Furness et al
[ 1]  J. W. Furness, A. D. Kaplan, J. Ning, J. P. Perdew, and J. Sun.,  J. Phys. Chem. Lett. 11, 8208-8215 (2020)
[ 2]  J. W. Furness, A. D. Kaplan, J. Ning, J. P. Perdew, and J. Sun.,  J. Phys. Chem. Lett. 11, 9248-9248 (2020)
Using LibXC functional ID 498 : Re-regularized SCAN correlation by Furness et al
[ 1]  J. W. Furness, A. D. Kaplan, J. Ning, J. P. Perdew, and J. Sun.,  J. Phys. Chem. Lett. 11, 8208-8215 (2020)
[ 2]  J. W. Furness, A. D. Kaplan, J. Ning, J. P. Perdew, and J. Sun.,  J. Phys. Chem. Lett. 11, 9248-9248 (2020)
Using LibXC functional ID 497 : Re-regularized SCAN exchange by Furness et al
[ 1]  J. W. Furness, A. D. Kaplan, J. Ning, J. P. Perdew, and J. Sun.,  J. Phys. Chem. Lett. 11, 8208-8215 (2020)
[ 2]  J. W. Furness, A. D. Kaplan, J. Ning, J. P. Perdew, and J. Sun.,  J. Phys. Chem. Lett. 11, 9248-9248 (2020)
Using LibXC functional ID 498 : Re-regularized SCAN correlation by Furness et al
[ 1]  J. W. Furness, A. D. Kaplan, J. Ning, J. P. Perdew, and J. Sun.,  J. Phys. Chem. Lett. 11, 8208-8215 (2020)
[ 2]  J. W. Furness, A. D. Kaplan, J. Ning, J. P. Perdew, and J. Sun.,  J. Phys. Chem. Lett. 11, 9248-9248 (2020)

================================================================================
                                       INPUT FILE
================================================================================
NAME = xtb_opt.inp
|  1> ! r2scan-3c def2/J RI DEFGRID2 scfconv7 ENGRAD tightSCF miniprint
|  2> %cpcm
|  3>     smd true
|  4>     smdsolvent "water"
|  5> end
|  6> * xyzfile 0 1 xtb_opt.xyz
|  7> 
|  8>                          ****END OF INPUT****
================================================================================

                     *******************************
                     * Energy+Gradient Calculation *
                     *******************************

---------------------------------
CARTESIAN COORDINATES (ANGSTROEM)
---------------------------------
  C     -3.078692    0.031893   -0.711507
  C     -1.561164    0.103352   -0.577374
  C     -1.114913   -0.300970    0.824632
  C      0.396953   -0.301165    1.085374
  C      1.189743   -1.253227    0.179258
  C      1.724850   -0.415569   -0.990607
  C      1.617050    1.058220   -0.564309
  C      1.074455    1.058394    0.869988
  H     -3.432042   -0.980001   -0.524336
  H     -3.557244    0.697419    0.003966
  H     -3.388326    0.323965   -1.712206
  H     -1.107974   -0.559095   -1.315052
  H     -1.235169    1.121767   -0.789485
  H     -1.582432    0.374546    1.546743
  H     -1.492090   -1.306375    1.032925
  H      0.518148   -0.607102    2.130000
  H      2.025464   -1.667937    0.744497
  H      0.576504   -2.085702   -0.162988
  H      2.756312   -0.686246   -1.214804
  H      1.141107   -0.592231   -1.893343
  H      2.585047    1.556415   -0.610745
  H      0.944101    1.595692   -1.231217
  H      1.902359    1.157275    1.573582
  H      0.387495    1.884896    1.046614

----------------------------
CARTESIAN COORDINATES (A.U.)
----------------------------
  NO LB      ZA    FRAG     MASS         X           Y           Z
   0 C     6.0000    0    12.011   -5.817884    0.060268   -1.344553
   1 C     6.0000    0    12.011   -2.950172    0.195308   -1.091079
   2 C     6.0000    0    12.011   -2.106880   -0.568750    1.558328
   3 C     6.0000    0    12.011    0.750132   -0.569120    2.051059
   4 C     6.0000    0    12.011    2.248288   -2.368256    0.338748
   5 C     6.0000    0    12.011    3.259493   -0.785312   -1.871977
   6 C     6.0000    0    12.011    3.055782    1.999746   -1.066390
   7 C     6.0000    0    12.011    2.030426    2.000074    1.644039
   8 H     1.0000    0     1.008   -6.485620   -1.851934   -0.990852
   9 H     1.0000    0     1.008   -6.722217    1.317931    0.007495
  10 H     1.0000    0     1.008   -6.403008    0.612204   -3.235600
  11 H     1.0000    0     1.008   -2.093767   -1.056536   -2.485088
  12 H     1.0000    0     1.008   -2.334130    2.119833   -1.491910
  13 H     1.0000    0     1.008   -2.990363    0.707789    2.922921
  14 H     1.0000    0     1.008   -2.819641   -2.468691    1.951945
  15 H     1.0000    0     1.008    0.979158   -1.147257    4.025118
  16 H     1.0000    0     1.008    3.827571   -3.151945    1.406895
  17 H     1.0000    0     1.008    1.089435   -3.941406   -0.308002
  18 H     1.0000    0     1.008    5.208675   -1.296816   -2.295646
  19 H     1.0000    0     1.008    2.156380   -1.119155   -3.577900
  20 H     1.0000    0     1.008    4.885031    2.941198   -1.154140
  21 H     1.0000    0     1.008    1.784093    3.015422   -2.326664
  22 H     1.0000    0     1.008    3.594938    2.186932    2.973638
  23 H     1.0000    0     1.008    0.732259    3.561937    1.977814

------------------------------------------------------------------------------
                   ___                                                        
                  /   \      - P O W E R E D   B Y -                         
                 /     \                                                     
                 |  |  |   _    _      __       _____    __    __             
                 |  |  |  | |  | |    /  \     |  _  \  |  |  /  |          
                  \  \/   | |  | |   /    \    | | | |  |  | /  /          
                 / \  \   | |__| |  /  /\  \   | |_| |  |  |/  /          
                |  |  |   |  __  | /  /__\  \  |    /   |      \           
                |  |  |   | |  | | |   __   |  |    \   |  |\   \          
                \     /   | |  | | |  |  |  |  | |\  \  |  | \   \       
                 \___/    |_|  |_| |__|  |__|  |_| \__\ |__|  \__/        
                                                                              
                      - O R C A' S   B I G   F R I E N D -                    
                                      &                                       
                       - I N T E G R A L  F E E D E R -                       
                                                                              
 v1 FN, 2020, v2 2021, v3 2022-2024                                           
------------------------------------------------------------------------------


----------------------
SHARK INTEGRAL PACKAGE
----------------------

Number of atoms                             ...     24
Number of basis functions                   ...    232
Number of shells                            ...    120
Maximum angular momentum                    ...      2
Integral batch strategy                     ... SHARK/LIBINT Hybrid
RI-J (if used) integral strategy            ... SPLIT-RIJ (Revised 2003 algorithm where possible)
Printlevel                                  ...      1
Contraction scheme used                     ... SEGMENTED contraction
Prescreening option                         ... SCHWARTZ
   Thresh                                   ... 3.000e-11
   Tcut                                     ... 1.000e-12
   Tpresel                                  ... 1.000e-12 
Coulomb Range Separation                    ... NOT USED
Exchange Range Separation                   ... NOT USED
Multipole approximations                    ... NOT USED
Finite Nucleus Model                        ... NOT USED
CABS basis                                  ... NOT available
Auxiliary Coulomb fitting basis             ... AVAILABLE
   # of basis functions in Aux-J            ...    568
   # of shells in Aux-J                     ...    200
   Maximum angular momentum in Aux-J        ...      4
Auxiliary J/K fitting basis                 ... NOT available
Auxiliary Correlation fitting basis         ... NOT available
Auxiliary 'external' fitting basis          ... NOT available

Checking pre-screening integrals            ... done (  0.0 sec) Dimension = 120
Check shell pair data                       ... done (  0.0 sec)
Shell pair information
Shell pair cut-off parameter TPreSel        ...   1.0e-12
Total number of shell pairs                 ...      7260
Shell pairs after pre-screening             ...      6693
Total number of primitive shell pairs       ...     25424
Primitive shell pairs kept                  ...     16898
          la=0 lb=0:   2411 shell pairs
          la=1 lb=0:   2651 shell pairs
          la=1 lb=1:    759 shell pairs
          la=2 lb=0:    538 shell pairs
          la=2 lb=1:    298 shell pairs
          la=2 lb=2:     36 shell pairs

Calculating one electron integrals          ... done (  0.0 sec)
Calculating RI/J V-Matrix + Cholesky decomp.... done (  0.1 sec)
Calculating Nuclear repulsion               ... done (  0.0 sec) ENN=    405.885994344254 Eh

Diagonalization of the overlap matrix:
Smallest eigenvalue                        ... 6.082e-05
Time for diagonalization                   ...    0.006 sec
Threshold for overlap eigenvalues          ... 1.000e-07
Number of eigenvalues below threshold      ... 0
Time for construction of square roots      ...    0.021 sec
Total time needed                          ...    0.037 sec

-------------------
DFT GRID GENERATION
-------------------

General Integration Accuracy     IntAcc      ... 4.388
Radial Grid Type                 RadialGrid  ... OptM3 with GC (2021)
Angular Grid (max. ang.)         AngularGrid ... 4 (Lebedev-302)
Angular grid pruning method      GridPruning ... 4 (adaptive)
Weight generation scheme         WeightScheme... mBecke (2022)
Basis function cutoff            BFCut       ... 1.0000e-11
Integration weight cutoff        WCut        ... 1.0000e-14
Partially contracted basis set               ... off
Rotationally invariant grid construction     ... off
Angular grids for H and He will be reduced by one unit

Total number of grid points                  ...    98575
Total number of batches                      ...     1551
Average number of points per batch           ...       63
Average number of grid points per atom       ...     4107
Initializing property integral containers    ... done (  0.0 sec)

SHARK setup successfully completed in   1.4 seconds

Maximum memory used throughout the entire STARTUP-calculation: 42.4 MB
Occupation numbers will be reassigned to an Aufbau configuration
             **** ENERGY FILE WAS UPDATED (xtb_opt.en.tmp) ****
Finished Guess after   0.3 sec
Maximum memory used throughout the entire GUESS-calculation: 16.7 MB
--------------------
CPCM SOLVATION MODEL
--------------------
CPCM parameters:
  Epsilon                                         ...      78.3550
  Refrac                                          ...       1.3328
  Rsolv                                           ...       1.3000
  Surface type                                    ... GAUSSIAN VDW
  Discretization scheme                           ... Constant charge density
    Threshold for H atoms                         ...       5.0000 (charges/Ang^2)
    Threshold for non-H atoms                     ...       5.0000 (charges/Ang^2)
  Epsilon function type                           ...         CPCM
Solvent:                                          ... WATER
SMD-CDS solvent descriptors:
  Soln                                            ...       1.3328
  Soln25                                          ...       1.3323
  Sola                                            ...       0.0000
  Solb                                            ...       0.0000
  Solg                                            ...       0.0000
  Solc                                            ...       0.0000
  Solh                                            ...       0.0000
Radii:
  Scheme                                          ... Element-dependent radii
  Radius for C  used is    3.4960 Bohr (=   1.8500 Ang.)
  Radius for H  used is    2.2677 Bohr (=   1.2000 Ang.)
Calculating surface                               ...        done! (  0.0s)
Cavity surface points                             ...         1733
Cavity Volume                                     ...     963.9465
Cavity Surface-area                               ...     600.7996
Calculating surface distance matrix               ...        done! (  0.0s)
Performing Cholesky decomposition & store         ...        done! (  0.1s)
Overall time for CPCM initialization              ...                 0.1s

----------------------------------------D-I-I-S--------------------------------------------
Iteration    Energy (Eh)           Delta-E    RMSDP     MaxDP     DIISErr   Damp  Time(sec)
-------------------------------------------------------------------------------------------
               ***  Starting incremental Fock matrix formation  ***
                              *** Initializing SOSCF ***
---------------------------------------S-O-S-C-F--------------------------------------
Iteration    Energy (Eh)           Delta-E    RMSDP     MaxDP     MaxGrad    Time(sec)
--------------------------------------------------------------------------------------
    1    -314.3839937846485100     0.00e+00  9.72e-06  2.55e-04  1.84e-05     4.5
               *** Restarting incremental Fock matrix formation ***
    2    -314.3839938216601695    -3.70e-08  1.02e-05  2.57e-04  4.61e-05     4.4
    3    -314.3839937132518116     1.08e-07  6.17e-06  1.49e-04  7.48e-05     3.5
    4    -314.3839938973223980    -1.84e-07  4.28e-07  2.19e-05  1.29e-06     3.6
                  *** Gradient check signals convergence ***

               *****************************************************
               *                     SUCCESS                       *
               *           SCF CONVERGED AFTER   4 CYCLES          *
               *****************************************************


SMD CDS free energy correction energy :                 3.06395     Kcal/mol
Total Energy after SMD CDS correction =              -314.379111179 Eh
             **** ENERGY FILE WAS UPDATED (xtb_opt.en.tmp) ****

----------------
TOTAL SCF ENERGY
----------------

Total Energy       :       -314.37911117855361 Eh           -8554.69053 eV

Components:
Nuclear Repulsion  :        405.88599434425350 Eh           11044.71941 eV
Electronic Energy  :       -720.26760695779990 Eh          -19599.47800 eV
One Electron Energy:      -1226.78599637986167 Eh          -33382.54410 eV
Two Electron Energy:        506.51838942206177 Eh           13783.06609 eV
CPCM Dielectric    :         -0.00238128377601 Eh              -0.06480 eV
SMD CDS (Gcds)     :          0.00488271876876 Eh               0.13287 eV

Virial components:
Potential Energy   :       -627.30482208955152 Eh          -17069.83202 eV
Kinetic Energy     :        312.92571091099791 Eh            8515.14150 eV
Virial Ratio       :          2.00464455369718

DFT components:
N(Alpha)           :       32.000177103445 electrons
N(Beta)            :       32.000177103445 electrons
N(Total)           :       64.000354206890 electrons
E(X)               :      -47.377933052616 Eh       
E(C)               :       -1.994100125535 Eh       
E(XC)              :      -49.372033178151 Eh       

CPCM Solvation Model Properties:
Surface-charge          :         -0.05296609099386
Corrected charge        :         -0.00000000000000
Outlying charge corr.   :          0.00021170617173 Eh               0.00576 eV
Free-energy (cav+disp)  :          0.00488271876876 Eh               0.13287 eV

---------------
SCF CONVERGENCE
---------------

  Last Energy change         ...    1.8407e-07  Tolerance :   1.0000e-07
  Last MAX-Density change    ...    2.1911e-05  Tolerance :   1.0000e-07
  Last RMS-Density change    ...    4.2756e-07  Tolerance :   5.0000e-09
  Last DIIS Error            ...    1.6317e-04  Tolerance :   1.0000e-07
  Last Orbital Gradient      ...    1.2929e-06  Tolerance :   1.0000e-04
  Last Orbital Rotation      ...    2.3309e-06  Tolerance :   1.0000e-04


----------------
ORBITAL ENERGIES
----------------

  NO   OCC          E(Eh)            E(eV) 
   0   2.0000     -10.017161      -272.5808 
   1   2.0000     -10.012647      -272.4580 
   2   2.0000     -10.010536      -272.4005 
   3   2.0000     -10.010317      -272.3946 
   4   2.0000     -10.010112      -272.3890 
   5   2.0000     -10.009402      -272.3697 
   6   2.0000     -10.009304      -272.3670 
   7   2.0000     -10.006695      -272.2960 
   8   2.0000      -0.795668       -21.6512 
   9   2.0000      -0.738599       -20.0983 
  10   2.0000      -0.681720       -18.5505 
  11   2.0000      -0.665543       -18.1104 
  12   2.0000      -0.616841       -16.7851 
  13   2.0000      -0.550316       -14.9749 
  14   2.0000      -0.519625       -14.1397 
  15   2.0000      -0.494418       -13.4538 
  16   2.0000      -0.442292       -12.0354 
  17   2.0000      -0.432478       -11.7683 
  18   2.0000      -0.426147       -11.5961 
  19   2.0000      -0.379442       -10.3251 
  20   2.0000      -0.373160       -10.1542 
  21   2.0000      -0.365243        -9.9388 
  22   2.0000      -0.341963        -9.3053 
  23   2.0000      -0.326073        -8.8729 
  24   2.0000      -0.310449        -8.4478 
  25   2.0000      -0.300239        -8.1699 
  26   2.0000      -0.297308        -8.0902 
  27   2.0000      -0.291719        -7.9381 
  28   2.0000      -0.280153        -7.6234 
  29   2.0000      -0.270548        -7.3620 
  30   2.0000      -0.260348        -7.0844 
  31   2.0000      -0.259801        -7.0695 
  32   0.0000       0.080513         2.1909 
  33   0.0000       0.094646         2.5755 
  34   0.0000       0.117736         3.2038 
  35   0.0000       0.120515         3.2794 
  36   0.0000       0.131116         3.5678 
  37   0.0000       0.139944         3.8081 
  38   0.0000       0.145403         3.9566 
  39   0.0000       0.149053         4.0560 
  40   0.0000       0.151258         4.1159 
  41   0.0000       0.157998         4.2993 
  42   0.0000       0.163822         4.4578 
*Only the first 10 virtual orbitals were printed.
Total SCF time: 0 days 0 hours 0 min 16 sec 
Finished LeanSCF after  16.7 sec

Maximum memory used throughout the entire LEANSCF-calculation: 37.9 MB


-------------------------------------------------------------------------------
                          DFT DISPERSION CORRECTION                            
                                                                               
                                DFTD4 V3.4.0                                   
-------------------------------------------------------------------------------
-------------------------   ----------------
Dispersion correction           -0.007297610
-------------------------   ----------------

------------------   -----------------
gCP correction             0.010405900
------------------   -----------------

-------------------------   --------------------
FINAL SINGLE POINT ENERGY      -314.376002889258
-------------------------   --------------------

------------------------------------------------------------------------------
                         ORCA SCF GRADIENT CALCULATION
------------------------------------------------------------------------------

Nuc. rep. gradient        (SHARK) ... done (  0.0 sec)
HCore & Overlap gradient  (SHARK) ... done (  0.5 sec)
Split-RIJ-J gradient      (SHARK) ... done (  2.2 sec)
XC gradient                       ... done ( 10.1 sec)
CPCM gradient                     ... done (  1.4 sec)
SMD gradient                      ... done (  0.0 sec)
Dispersion correction             ... done (  0.0 sec)

-------------------
DISPERSION GRADIENT
-------------------

   1   C   :   -0.000125203    0.000002381   -0.000032981
   2   C   :   -0.000092868    0.000006953   -0.000036206
   3   C   :   -0.000068066   -0.000020793    0.000058446
   4   C   :    0.000026719   -0.000017450    0.000063781
   5   C   :    0.000062100   -0.000073645    0.000010691
   6   C   :    0.000086304   -0.000024504   -0.000059413
   7   C   :    0.000080220    0.000061427   -0.000034713
   8   C   :    0.000055023    0.000061088    0.000050782
   9   H   :   -0.000042035   -0.000004851   -0.000012176
  10   H   :   -0.000042043    0.000005797   -0.000008695
  11   H   :   -0.000037965    0.000003868   -0.000020396
  12   H   :   -0.000041693   -0.000010479   -0.000024509
  13   H   :   -0.000044153    0.000019176   -0.000015412
  14   H   :   -0.000033802    0.000003986    0.000033016
  15   H   :   -0.000032423   -0.000024393    0.000024225
  16   H   :    0.000007604   -0.000013460    0.000046475
  17   H   :    0.000032235   -0.000035982    0.000010179
  18   H   :    0.000021139   -0.000049101   -0.000001075
  19   H   :    0.000038816   -0.000013195   -0.000025703
  20   H   :    0.000035990   -0.000014563   -0.000041735
  21   H   :    0.000036539    0.000029720   -0.000013865
  22   H   :    0.000032411    0.000037629   -0.000026008
  23   H   :    0.000029075    0.000026987    0.000028558
  24   H   :    0.000016078    0.000043402    0.000026736

Difference to translation invariance:
           :   -0.0000000000    0.0000000000   -0.0000000000

Difference to rotation invariance:
           :    0.0000000000    0.0000000000   -0.0000000000

Norm of the Dispersion gradient    ...    0.0003482866
RMS gradient                       ...    0.0000410460
MAX gradient                       ...    0.0001252029
gCP correction                   ... done

------------------
CARTESIAN GRADIENT
------------------

   1   C   :   -0.005502262   -0.000820477    0.001386268
   2   C   :    0.004187754    0.001617734   -0.004951916
   3   C   :   -0.004850857   -0.001303908    0.003295055
   4   C   :    0.003894309    0.001366358   -0.004034794
   5   C   :   -0.000055389    0.000311669   -0.001369014
   6   C   :   -0.001322173    0.001621888    0.002392331
   7   C   :   -0.000907943   -0.002626168    0.000801660
   8   C   :    0.000031208    0.000660663   -0.000960274
   9   H   :    0.002524873    0.004317067   -0.000672835
  10   H   :    0.003118408   -0.002772333   -0.002903893
  11   H   :    0.003253140   -0.001052308    0.004054895
  12   H   :   -0.002747811    0.001102171    0.003352657
  13   H   :   -0.002424757   -0.002970958    0.001891719
  14   H   :    0.002359766   -0.001305076   -0.002449282
  15   H   :    0.002027071    0.002685543   -0.001155490
  16   H   :   -0.000519638    0.000322214   -0.001268501
  17   H   :   -0.002112476    0.001847773   -0.001467560
  18   H   :    0.001573735    0.004279572    0.000435936
  19   H   :   -0.002494953    0.001167226    0.001951292
  20   H   :    0.000996162    0.000784963    0.002923310
  21   H   :   -0.002183144   -0.002483087    0.001108229
  22   H   :    0.001424991   -0.002090824    0.002002316
  23   H   :   -0.002170261   -0.000934775   -0.002279777
  24   H   :    0.001900246   -0.003724926   -0.002082330

Difference to translation invariance:
           :    0.0000000000   -0.0000000000    0.0000000000

Difference to rotation invariance:
           :   -0.0004380964   -0.0000584496   -0.0000867871

Norm of the Cartesian gradient     ...    0.0205456023
RMS gradient                       ...    0.0024213225
MAX gradient                       ...    0.0055022616

-------
TIMINGS
-------

Total SCF gradient time     ....       15.282 sec

Densities                   ....       0.001 sec  (  0.0%)
One electron gradient       ....       0.463 sec  (  3.0%)
RI-J Coulomb gradient       ....       2.180 sec  ( 14.3%)
XC gradient                 ....      10.066 sec  ( 65.9%)
CPCM gradient               ....       1.423 sec  (  9.3%)
   A-Matrix (El+Nuc)        ....       0.190 sec  (  1.2%)
   Potential                ....       1.233 sec  (  8.1%)
SMD gradient                ....       0.013 sec  (  0.1%)

Maximum memory used throughout the entire SCFGRAD-calculation: 37.0 MB

------------------------------------------------------------------------------
                              ORCA PROPERTY CALCULATIONS
------------------------------------------------------------------------------

GBWName                                 ... xtb_opt.gbw
Number of atoms                         ...     24
Number of basis functions               ...    232
Max core memory                         ...   1024 MB

Electric properties:
Dipole moment                           ... YES
Quadrupole moment                       ...  NO
Static polarizability (Dipole/Dipole)   ...  NO
Static polarizability (Dipole/Quad.)    ...  NO
Static polarizability (Quad./Quad.)     ...  NO
Static polarizability (Velocity)        ...  NO

Atomic electric properties:
Dipole moment                           ...  NO
Quadrupole moment                       ...  NO
Static polarizability                   ...  NO

Choice of electric origin               ... Center of mass
Position of electric origin             ...    -0.000005     0.000000    -0.000002

General magnetic properties:
Magnetizability                         ...  NO

EPR properties:
g-Tensor (aka g-matrix)                 ...  NO
Zero-Field splitting spin-orbit         ...  NO
Zero-field splitting spin-spin          ...  NO
Hyperfine couplings                     ...  NO (   0 nuclei)
Quadrupole couplings                    ...  NO (   0 nuclei)
Contact density                         ...  NO (   0 nuclei)

NMR properties:
Chemical shifts                         ...  NO (   0 nuclei)
Spin-rotation constants                 ...  NO (   0 nuclei)
Spin-spin couplings                     ...  NO (   0 nuclei,    0 pairs)

Choice of magnetic origin               ... GIAO
Position of magnetic origin             ...     0.000000     0.000000     0.000000

Properties with geometric perturbations:
SCF Hessian                             ...  NO
IR spectrum                             ...  NO
VCD spectrum                            ...  NO
X-ray spectroscopy properties:
SCF XES/XAS/RIXS spectra                ...  NO


-------------
DIPOLE MOMENT
-------------

Method             : SCF
Type of density    : Electron Density
Multiplicity       :   1
Irrep              :   0
Energy             :  -314.3791111785536145 Eh
Relativity type    : 
Basis              : AO
                                X                 Y                 Z
Electronic contribution:      2.798490148      -0.218888662       1.319588357
Nuclear contribution   :     -2.775780114       0.213230985      -1.290769914
                        -----------------------------------------
Total Dipole Moment    :      0.022710034      -0.005657677       0.028818443
                        -----------------------------------------
Magnitude (a.u.)       :      0.037124892
Magnitude (Debye)      :      0.094363976



--------------------
Rotational spectrum 
--------------------
 
Rotational constants in cm-1:             0.109218             0.042067             0.041088 
Rotational constants in MHz :          3274.261848          1261.136477          1231.784728 

Dipole components along the rotational axes: 
x,y,z [a.u.] :     0.024469     0.027862     0.001793 
x,y,z [Debye]:     0.062195     0.070821     0.004556 

 

Dipole moment calculation done in   0.0 sec 

Maximum memory used throughout the entire PROP-calculation: 15.6 MB

--------------------------------
SUGGESTED CITATIONS FOR THIS RUN
--------------------------------

Below you find a list of papers that are relevant to this ORCA run
We neither can nor want to force you to cite these papers, but we appreciate if you do
You receive ORCA, which is the product of decades of hard work by many enthusiastic individuals, for free
The only thing we kindly ask in return is that you cite our papers,
We deeply appreciate it, if you show your appreciation for ORCA by not just citing the generic ORCA reference.

Please note that relegating all ORCA citations to the supporting information does *not* help us.
SI sections are not indexed - citations you put there will not count into any citation statistics
But we need these citations in order to attract the funding resources that allow us to do what we are doing

Therefore, if you are a happy ORCA user, please consider citing a few of the papers listed below in the main body of your paper

In addition to the list printed below, the program has created the file xtb_opt.bibtex that contains the list in bibtex format
You can import this file easily into all common literature databanks and citation aid programs


List of essential papers. We consider these as the minimum necessary citations

  1. Neese,F.
     Software update: the ORCA program system, version 5.0
     WIRES Comput. Molec. Sci., 2022 12(1)e1606
     doi.org/10.1002/wcms.1606
  2. Grimme,S.; Hansen,A.; Ehlert,S.; Mewes,J.
     r2SCAN-3c: A 'Swiss army knife' composite electronic-structure method
     J. Chem. Phys., 2021 154 064103
     doi.org/10.1063/5.0040021

List of papers to cite with high priority. The work reported in these papers was absolutely
necessary for this run to complete.
Our perspective: the developers of density functionals and basis sets usually get cited in chemistry papers
Good! But without the algorithms to do something with them, the functionals or basis sets would not do anything.
Hence, in our opinion, the algorithm design and method developments papers are equally worthy of getting cited

  1. Neese,F.
     An improvement of the resolution of the identity approximation for the formation of the Coulomb matrix
     J. Comp. Chem., 2003 24(14)1740-1747
     doi.org/10.1002/jcc.10318
  2. Garcia-Rates,M.; Neese,F.
     Effect of the Solute Cavity on the Solvation Energy and its Derivatives within the Framework of the Gaussian Charge Scheme
     J. Comput. Chem., 2020 41 922-939
     doi.org/10.1002/jcc.26139
  3. Neese,F.
     The SHARK Integral Generation and Digestion System
     J. Comp. Chem., 2022  1-16
     doi.org/10.1002/jcc.26942
  4. Lehtola,S.; Steigemann,C.; Oliveira,M.; Marques,M.
     Recent developments in Libxc - A comprehensive library of functionals for density functional theory
     Software X, 2018 7 
     doi.org/10.1016/j.softx.2017.11.002
  5. Caldeweyher,E.; Bannwarth,C.; Grimme,S.
     Extension of the D3 dispersion coefficient model
     J. Chem. Phys., 2017 147 034112-XXXX
     doi.org/10.1063/1.4993215
  6. Caldeweyher,E.; Ehlert,S.; Hansen,A.; Neugebauer,H.; Spicher,S.; Bannwarth,C.; Grimme,S.
     A generally applicable atomic-charge dependent London dispersion correction
     J. Chem. Phys., 2019 150 154122-XXXX
     doi.org/10.1063/1.5090222
  7. Caldeweyher,E.; Mewes,J.; Ehlert,S.; Grimme,S.
     Extension and evaluation of the D4 London-dispersion model for periodic systems
     Phys. Chem. Chem. Phys., 2020 22(16)8499-8512
     doi.org/10.1039/D0CP00502A

List of suggested additional citations. These are papers that are important in the 'surrounding' of 
of this run, or papers that preceded the highly important papers. If you like your results we are grateful for a citation.

  1. Neese,F.
     The ORCA program system
     WIRES Comput. Molec. Sci., 2012 2(1)73-78
     doi.org/10.1002/wcms.81
  2. Neese,F.
     Software update: the ORCA program system, version 4.0
     WIRES Comput. Molec. Sci., 2018 8(1)1-6
     doi.org/10.1002/wcms.1327
  3. Neese,F.; Wennmohs,F.; Becker,U.; Riplinger,C.
     The ORCA quantum chemistry program package
     J. Chem. Phys., 2020 152 Art. No. L224108
     doi.org/10.1063/5.0004608

List of optional additional citations

  1. Neese,F.
     Approximate second-order SCF convergence for spin unrestricted wavefunctions
     Chem. Phys. Lett., 2000 325(1-3)93-98
     doi.org/10.1016/s0009-2614(00)00662-x

Timings for individual modules:

Sum of individual times          ...       33.989 sec (=   0.566 min)
Startup calculation              ...        1.461 sec (=   0.024 min)   4.3 %
SCF iterations                   ...       17.032 sec (=   0.284 min)  50.1 %
Property calculations            ...        0.111 sec (=   0.002 min)   0.3 %
SCF Gradient evaluation          ...       15.385 sec (=   0.256 min)  45.3 %
                             ****ORCA TERMINATED NORMALLY****
TOTAL RUN TIME: 0 days 0 hours 0 minutes 34 seconds 874 msec
  ------------------------------------------------------------------------
          * successful ORCA run, taking over control again...

         :::::::::::::::::::::::::::::::::::::::::::::::::::::
         ::                  ORCA SUMMARY                   ::
         :::::::::::::::::::::::::::::::::::::::::::::::::::::
         :: total energy            -314.376002889258 Eh    ::
         :: gradient norm              0.020545602313 Eh/a0 ::
         :: HOMO-LUMO gap              0.000000000000 eV    ::
         :::::::::::::::::::::::::::::::::::::::::::::::::::::

      ----------------------------------------------------------- 
     |                       L-ANC optimizer                     |
      ----------------------------------------------------------- 
          low memory version by Sebastian Ehlert

          ...................................................
          :                      SETUP                      :
          :.................................................:
          :   energy convergence        0.5000000E-05 Eh    :
          :   grad. convergence         0.1000000E-02 Eh/a0 :
          :   optimization log               true           :
          :   writing optlog all                1     steps :
          :   Hessian reset                     8     steps :
          :   maximium step len.        1.0000000     a0    :
          :   LBFGS images                      8           :
          ...................................................
 * calculating model hessian...
Using Lindh-Hessian (1995)
 Shifting diagonal of input Hessian by   1.000000000000000E-002
 Lowest  eigenvalues of input Hessian
    0.000000    0.000000    0.000000    0.000000    0.000000    0.000000
    0.012761    0.012918    0.013346    0.018987    0.019882    0.021519
    0.021579    0.025398    0.034579    0.051132    0.052282    0.054241
 Highest eigenvalues
    1.212148    1.216127    1.220493    1.241173    1.250791    1.306439
 

........................................................................
.............................. CYCLE    1 ..............................
........................................................................
                         * ORCA takes the control...
  ------------------------------------------------------------------------

                                 *****************
                                 * O   R   C   A *
                                 *****************

                                            #,                                       
                                            ###                                      
                                            ####                                     
                                            #####                                    
                                            ######                                   
                                           ########,                                 
                                     ,,################,,,,,                         
                               ,,#################################,,                 
                          ,,##########################################,,             
                       ,#########################################, ''#####,          
                    ,#############################################,,   '####,        
                  ,##################################################,,,,####,       
                ,###########''''           ''''###############################       
              ,#####''   ,,,,##########,,,,          '''####'''          '####       
            ,##' ,,,,###########################,,,                        '##       
           ' ,,###''''                  '''############,,,                           
         ,,##''                                '''############,,,,        ,,,,,,###''
      ,#''                                            '''#######################'''  
     '                                                          ''''####''''         
             ,#######,   #######,   ,#######,      ##                                
            ,#'     '#,  ##    ##  ,#'     '#,    #''#        ,####,   ,####,        
            ##       ##  ##   ,#'  ##            #'  '#       #'       #'  '#        
            ##       ##  #######   ##           ,######,      #####,   #    #        
            '#,     ,#'  ##    ##  '#,     ,#' ,#      #,     #,   #   #,  ,#        
             '#######'   ##     ##  '#######'  #'      '#     '####' # '####'        



                #########################################################
                #                        -***-                          #
                #          Department of theory and spectroscopy        #
                #                                                       #
                #                      Frank Neese                      #
                #                                                       #
                #     Directorship, Architecture, Infrastructure        #
                #                    SHARK, DRIVERS                     #
                #        Core code/Algorithms in most modules           #
                #                                                       #
                #        Max Planck Institute fuer Kohlenforschung      #
                #                Kaiser Wilhelm Platz 1                 #
                #                 D-45470 Muelheim/Ruhr                 #
                #                      Germany                          #
                #                                                       #
                #                  All rights reserved                  #
                #                        -***-                          #
                #########################################################


                         Program Version 6.0.0  -   RELEASE  -


 With contributions from (in alphabetic order):
   Daniel Aravena         : Magnetic Suceptibility
   Michael Atanasov       : Ab Initio Ligand Field Theory (pilot matlab implementation)
   Alexander A. Auer      : GIAO ZORA, VPT2 properties, NMR spectrum
   Ute Becker             : All parallelization in ORCA, NUMFREQ, NUMCALC
   Giovanni Bistoni       : ED, misc. LED, open-shell LED, HFLD
   Martin Brehm           : Molecular dynamics
   Dmytro Bykov           : pre 5.0 version of the SCF Hessian
   Marcos Casanova-Páez   : Triplet and SCS-CIS(D). UHF-(DLPNO)-IP/EA/STEOM-CCSD. UHF-CVS-IP/STEOM-CCSD
   Vijay G. Chilkuri      : MRCI spin determinant printing, contributions to CSF-ICE
   Pauline Colinet        : FMM embedding
   Dipayan Datta          : RHF DLPNO-CCSD density
   Achintya Kumar Dutta   : EOM-CC, STEOM-CC
   Nicolas Foglia         : Exact transition moments, OPA infrastructure, MCD improvements
   Dmitry Ganyushin       : Spin-Orbit,Spin-Spin,Magnetic field MRCI
   Miquel Garcia          : C-PCM and meta-GGA Hessian, CCSD/C-PCM, Gaussian charge scheme
   Tiago L. C. Gouveia    : GS-ROHF, GS-ROCIS
   Yang Guo               : DLPNO-NEVPT2, F12-NEVPT2, CIM, IAO-localization
   Andreas Hansen         : Spin unrestricted coupled pair/coupled cluster methods
   Ingolf Harden          : AUTO-CI MPn and infrastructure 
   Benjamin Helmich-Paris : MC-RPA, TRAH-(SCF,CASSCF), AVAS, COSX integrals, SCF dyn. polar.
   Lee Huntington         : MR-EOM, pCC
   Robert Izsak           : Overlap fitted RIJCOSX, COSX-SCS-MP3, EOM
   Riya Kayal             : Wick's Theorem for AUTO-CI, AUTO-CI UHF-CCSDT
   Emily Kempfer          : AUTO-CI, RHF CISDT and CCSDT
   Christian Kollmar      : KDIIS, OOCD, Brueckner-CCSD(T), CCSD density, CASPT2, CASPT2-K, improved NEVPT2
   Axel Koslowski         : Symmetry handling
   Simone Kossmann        : Meta GGA functionals, TD-DFT gradient, OOMP2, (MP2 Hessian; deprecated post 5.0)
   Lucas Lang             : DCDCAS
   Marvin Lechner         : AUTO-CI (C++ implementation), FIC-MRCC
   Spencer Leger          : CASSCF response
   Dagmar Lenk            : GEPOL surface, SMD, ORCA-2-JSON
   Dimitrios Liakos       : Extrapolation schemes; Compound Job, initial MDCI parallelization
   Dimitrios Manganas     : Further ROCIS development; embedding schemes. LFT, Crystal Embedding
   Dimitrios Pantazis     : SARC Basis sets
   Anastasios Papadopoulos: AUTO-CI, single reference methods and gradients
   Taras Petrenko         : pre 6.0 DFT Hessian and TD-DFT gradient, (ASA, deprecated), ECA, 1-Electron XAS/XES, NRVS
   Peter Pinski           : DLPNO-MP2, DLPNO-MP2 Gradient
   Christoph Reimann      : Effective Core Potentials
   Marius Retegan         : Local ZFS, SOC
   Christoph Riplinger    : Optimizer, TS searches, QM/MM, DLPNO-CCSD(T), (RO)-DLPNO pert. Triples
   Michael Roemelt        : Original ROCIS implementation
   Masaaki Saitow         : Open-shell DLPNO-CCSD energy and density
   Barbara Sandhoefer     : DKH picture change effects
   Kantharuban Sivalingam : CASSCF convergence/infrastructure, NEVPT2 and variants, FIC-MRCI
   Bernardo de Souza      : ESD, SOC TD-DFT
   Georgi Stoychev        : AutoAux, RI-MP2 NMR, DLPNO-MP2 response, X2C
   Van Anh Tran           : RI-MP2 g-tensors
   Willem Van den Heuvel  : Paramagnetic NMR
   Zikuan Wang            : NOTCH, Electric field optimization 
   Frank Wennmohs         : Technical directorship and infrastructure
   Hang Xu                : AUTO-CI-Response properties 


 We gratefully acknowledge several colleagues who have allowed us to
 interface, adapt or use parts of their codes:
   Stefan Grimme, W. Hujo, H. Kruse, P. Pracht,  : VdW corrections, initial TS optimization,
                  C. Bannwarth, S. Ehlert,         DFT functionals, gCP, sTDA/sTD-DF
                  L. Wittmann, M. Mueller
   Ed Valeev, F. Pavosevic, A. Kumar             : LibInt (2-el integral package), F12 methods
   Garnet Chan, S. Sharma, J. Yang, R. Olivares  : DMRG
   Ulf Ekstrom                                   : XCFun DFT Library
   Mihaly Kallay                                 : mrcc  (arbitrary order and MRCC methods)
   Frank Weinhold                                : gennbo (NPA and NBO analysis)
   Simon Mueller                                 : openCOSMO-RS
   Christopher J. Cramer and Donald G. Truhlar   : smd solvation model
   Lars Goerigk                                  : TD-DFT with DH, B97 family of functionals
   V. Asgeirsson, H. Jonsson                     : NEB implementation
   FAccTs GmbH                                   : IRC, NEB, NEB-TS, DLPNO-Multilevel, CI-OPT
                                                   MM, QMMM, 2- and 3-layer-ONIOM, Crystal-QMMM,
                                                   LR-CPCM, SF, NACMEs, symmetry and pop. for TD-DFT,
                                                   nearIR, NL-DFT gradient (VV10), updates on ESD,
                                                   ML-optimized integration grids, MBIS, APM,
                                                   GOAT, DOCKER, SOLVATOR, interface openCOSMO-RS
   S Lehtola, MJT Oliveira, MAL Marques          : LibXC Library
   Liviu Ungur et al                             : ANISO software


 Your calculation uses the libint2 library for the computation of 2-el integrals
 For citations please refer to: http://libint.valeyev.net

 Your ORCA version has been built with support for libXC version: 6.2.2
 For citations please refer to: https://libxc.gitlab.io

 This ORCA versions uses:
   CBLAS   interface :  Fast vector & matrix operations
   LAPACKE interface :  Fast linear algebra routines
   SCALAPACK package :  Parallel linear algebra routines
   Shared memory     :  Shared parallel matrices
   BLAS/LAPACK       :  OpenBLAS 0.3.27  USE64BITINT DYNAMIC_ARCH NO_AFFINITY SkylakeX SINGLE_THREADED
        Core in use  :  SkylakeX
   Copyright (c) 2011-2014, The OpenBLAS Project




***************************************
The coordinates will be read from file: xtb_opt.xyz
***************************************


Your calculation utilizes the geometrical counterpoise correction gCP
Please cite in your paper:
H.Kruse, S. Grimme J.Chem.Phys., 136, (2012), 154101 
   

Your calculation utilizes the atom-pairwise dispersion correction
based on EEQ partial charges (D4)


Your calculation utilizes the SMD solvation module
Please cite in your paper:
A.V. Marenich, C.J. Cramer, D.G. Truhlar J. Phys. Chem. B, 113, (2009), 6378 

================================================================================

----- Orbital basis set information -----
Your calculation utilizes the basis: def2-mTZVPP
   Stefan Grimme, Andreas Hansen, Sebastian Ehlert, and Jan-Michael Mewes 
   J. Chem. Phys. 154, 064103 (2021). DOI: 10.1063/5.0040021

----- AuxJ basis set information -----
Your calculation utilizes the auxiliary basis: def2/J
   F. Weigend, Phys. Chem. Chem. Phys. 8, 1057 (2006).

================================================================================
                                        WARNINGS
                       Please study these warnings very carefully!
================================================================================

WARNING: Old DensityContainer found on disk!
         Will remove this file - 
         If you want to keep old densities, please start your calculation with a different basename. 

Using LibXC functional ID 497 : Re-regularized SCAN exchange by Furness et al
[ 1]  J. W. Furness, A. D. Kaplan, J. Ning, J. P. Perdew, and J. Sun.,  J. Phys. Chem. Lett. 11, 8208-8215 (2020)
[ 2]  J. W. Furness, A. D. Kaplan, J. Ning, J. P. Perdew, and J. Sun.,  J. Phys. Chem. Lett. 11, 9248-9248 (2020)
Using LibXC functional ID 498 : Re-regularized SCAN correlation by Furness et al
[ 1]  J. W. Furness, A. D. Kaplan, J. Ning, J. P. Perdew, and J. Sun.,  J. Phys. Chem. Lett. 11, 8208-8215 (2020)
[ 2]  J. W. Furness, A. D. Kaplan, J. Ning, J. P. Perdew, and J. Sun.,  J. Phys. Chem. Lett. 11, 9248-9248 (2020)
Using LibXC functional ID 497 : Re-regularized SCAN exchange by Furness et al
[ 1]  J. W. Furness, A. D. Kaplan, J. Ning, J. P. Perdew, and J. Sun.,  J. Phys. Chem. Lett. 11, 8208-8215 (2020)
[ 2]  J. W. Furness, A. D. Kaplan, J. Ning, J. P. Perdew, and J. Sun.,  J. Phys. Chem. Lett. 11, 9248-9248 (2020)
Using LibXC functional ID 498 : Re-regularized SCAN correlation by Furness et al
[ 1]  J. W. Furness, A. D. Kaplan, J. Ning, J. P. Perdew, and J. Sun.,  J. Phys. Chem. Lett. 11, 8208-8215 (2020)
[ 2]  J. W. Furness, A. D. Kaplan, J. Ning, J. P. Perdew, and J. Sun.,  J. Phys. Chem. Lett. 11, 9248-9248 (2020)

================================================================================
                                       INPUT FILE
================================================================================
NAME = xtb_opt.inp
|  1> ! r2scan-3c def2/J RI DEFGRID2 scfconv7 ENGRAD tightSCF miniprint
|  2> %cpcm
|  3>     smd true
|  4>     smdsolvent "water"
|  5> end
|  6> * xyzfile 0 1 xtb_opt.xyz
|  7> 
|  8>                          ****END OF INPUT****
================================================================================

                     *******************************
                     * Energy+Gradient Calculation *
                     *******************************

---------------------------------
CARTESIAN COORDINATES (ANGSTROEM)
---------------------------------
  C     -3.083396    0.034212   -0.719539
  C     -1.563742    0.103641   -0.576772
  C     -1.112739   -0.301107    0.825591
  C      0.398689   -0.303915    1.095338
  C      1.194848   -1.258165    0.184829
  C      1.726496   -0.418834   -0.995807
  C      1.617536    1.063335   -0.567033
  C      1.079265    1.059886    0.876911
  H     -3.443316   -0.981586   -0.530875
  H     -3.569871    0.700405   -0.000800
  H     -3.404907    0.326298   -1.722712
  H     -1.101410   -0.554483   -1.319882
  H     -1.228431    1.122856   -0.794146
  H     -1.588972    0.372268    1.550299
  H     -1.497429   -1.307767    1.035565
  H      0.521237   -0.609745    2.141148
  H      2.035170   -1.672996    0.749812
  H      0.583419   -2.101506   -0.150744
  H      2.758627   -0.691623   -1.231585
  H      1.138542   -0.598488   -1.899547
  H      2.584459    1.570695   -0.622912
  H      0.939042    1.602830   -1.232650
  H      1.912433    1.159796    1.579729
  H      0.393991    1.892207    1.065390

----------------------------
CARTESIAN COORDINATES (A.U.)
----------------------------
  NO LB      ZA    FRAG     MASS         X           Y           Z
   0 C     6.0000    0    12.011   -5.826774    0.064651   -1.359731
   1 C     6.0000    0    12.011   -2.955044    0.195853   -1.089942
   2 C     6.0000    0    12.011   -2.102772   -0.569010    1.560140
   3 C     6.0000    0    12.011    0.753414   -0.574317    2.069889
   4 C     6.0000    0    12.011    2.257936   -2.377588    0.349277
   5 C     6.0000    0    12.011    3.262606   -0.791482   -1.881802
   6 C     6.0000    0    12.011    3.056701    2.009412   -1.071538
   7 C     6.0000    0    12.011    2.039515    2.002895    1.657122
   8 H     1.0000    0     1.008   -6.506924   -1.854928   -1.003209
   9 H     1.0000    0     1.008   -6.746079    1.323573   -0.001511
  10 H     1.0000    0     1.008   -6.434342    0.616614   -3.255453
  11 H     1.0000    0     1.008   -2.081364   -1.047821   -2.494216
  12 H     1.0000    0     1.008   -2.321398    2.121890   -1.500719
  13 H     1.0000    0     1.008   -3.002723    0.703485    2.929640
  14 H     1.0000    0     1.008   -2.829730   -2.471322    1.956934
  15 H     1.0000    0     1.008    0.984995   -1.152252    4.046182
  16 H     1.0000    0     1.008    3.845913   -3.161505    1.416939
  17 H     1.0000    0     1.008    1.102502   -3.971270   -0.284865
  18 H     1.0000    0     1.008    5.213050   -1.306977   -2.327359
  19 H     1.0000    0     1.008    2.151533   -1.130978   -3.589623
  20 H     1.0000    0     1.008    4.883921    2.968183   -1.177133
  21 H     1.0000    0     1.008    1.774532    3.028910   -2.329370
  22 H     1.0000    0     1.008    3.613975    2.191696    2.985254
  23 H     1.0000    0     1.008    0.744536    3.575754    2.013295

------------------------------------------------------------------------------
                   ___                                                        
                  /   \      - P O W E R E D   B Y -                         
                 /     \                                                     
                 |  |  |   _    _      __       _____    __    __             
                 |  |  |  | |  | |    /  \     |  _  \  |  |  /  |          
                  \  \/   | |  | |   /    \    | | | |  |  | /  /          
                 / \  \   | |__| |  /  /\  \   | |_| |  |  |/  /          
                |  |  |   |  __  | /  /__\  \  |    /   |      \           
                |  |  |   | |  | | |   __   |  |    \   |  |\   \          
                \     /   | |  | | |  |  |  |  | |\  \  |  | \   \       
                 \___/    |_|  |_| |__|  |__|  |_| \__\ |__|  \__/        
                                                                              
                      - O R C A' S   B I G   F R I E N D -                    
                                      &                                       
                       - I N T E G R A L  F E E D E R -                       
                                                                              
 v1 FN, 2020, v2 2021, v3 2022-2024                                           
------------------------------------------------------------------------------


----------------------
SHARK INTEGRAL PACKAGE
----------------------

Number of atoms                             ...     24
Number of basis functions                   ...    232
Number of shells                            ...    120
Maximum angular momentum                    ...      2
Integral batch strategy                     ... SHARK/LIBINT Hybrid
RI-J (if used) integral strategy            ... SPLIT-RIJ (Revised 2003 algorithm where possible)
Printlevel                                  ...      1
Contraction scheme used                     ... SEGMENTED contraction
Prescreening option                         ... SCHWARTZ
   Thresh                                   ... 3.000e-11
   Tcut                                     ... 1.000e-12
   Tpresel                                  ... 1.000e-12 
Coulomb Range Separation                    ... NOT USED
Exchange Range Separation                   ... NOT USED
Multipole approximations                    ... NOT USED
Finite Nucleus Model                        ... NOT USED
CABS basis                                  ... NOT available
Auxiliary Coulomb fitting basis             ... AVAILABLE
   # of basis functions in Aux-J            ...    568
   # of shells in Aux-J                     ...    200
   Maximum angular momentum in Aux-J        ...      4
Auxiliary J/K fitting basis                 ... NOT available
Auxiliary Correlation fitting basis         ... NOT available
Auxiliary 'external' fitting basis          ... NOT available

Checking pre-screening integrals            ... done (  0.0 sec) Dimension = 120
Check shell pair data                       ... done (  0.0 sec)
Shell pair information
Shell pair cut-off parameter TPreSel        ...   1.0e-12
Total number of shell pairs                 ...      7260
Shell pairs after pre-screening             ...      6687
Total number of primitive shell pairs       ...     25424
Primitive shell pairs kept                  ...     16878
          la=0 lb=0:   2411 shell pairs
          la=1 lb=0:   2646 shell pairs
          la=1 lb=1:    758 shell pairs
          la=2 lb=0:    538 shell pairs
          la=2 lb=1:    298 shell pairs
          la=2 lb=2:     36 shell pairs

Calculating one electron integrals          ... done (  0.0 sec)
Calculating RI/J V-Matrix + Cholesky decomp.... done (  0.1 sec)
Calculating Nuclear repulsion               ... done (  0.0 sec) ENN=    404.513317090566 Eh

Diagonalization of the overlap matrix:
Smallest eigenvalue                        ... 6.359e-05
Time for diagonalization                   ...    0.006 sec
Threshold for overlap eigenvalues          ... 1.000e-07
Number of eigenvalues below threshold      ... 0
Time for construction of square roots      ...    0.014 sec
Total time needed                          ...    0.029 sec

-------------------
DFT GRID GENERATION
-------------------

General Integration Accuracy     IntAcc      ... 4.388
Radial Grid Type                 RadialGrid  ... OptM3 with GC (2021)
Angular Grid (max. ang.)         AngularGrid ... 4 (Lebedev-302)
Angular grid pruning method      GridPruning ... 4 (adaptive)
Weight generation scheme         WeightScheme... mBecke (2022)
Basis function cutoff            BFCut       ... 1.0000e-11
Integration weight cutoff        WCut        ... 1.0000e-14
Partially contracted basis set               ... off
Rotationally invariant grid construction     ... off
Angular grids for H and He will be reduced by one unit

Total number of grid points                  ...    98602
Total number of batches                      ...     1550
Average number of points per batch           ...       63
Average number of grid points per atom       ...     4108
Initializing property integral containers    ... done (  0.0 sec)

SHARK setup successfully completed in   1.5 seconds

Maximum memory used throughout the entire STARTUP-calculation: 42.4 MB
Occupation numbers will be reassigned to an Aufbau configuration
             **** ENERGY FILE WAS UPDATED (xtb_opt.en.tmp) ****
Finished Guess after   0.3 sec
Maximum memory used throughout the entire GUESS-calculation: 16.7 MB
--------------------
CPCM SOLVATION MODEL
--------------------
CPCM parameters:
  Epsilon                                         ...      78.3550
  Refrac                                          ...       1.3328
  Rsolv                                           ...       1.3000
  Surface type                                    ... GAUSSIAN VDW
  Discretization scheme                           ... Constant charge density
    Threshold for H atoms                         ...       5.0000 (charges/Ang^2)
    Threshold for non-H atoms                     ...       5.0000 (charges/Ang^2)
  Epsilon function type                           ...         CPCM
Solvent:                                          ... WATER
SMD-CDS solvent descriptors:
  Soln                                            ...       1.3328
  Soln25                                          ...       1.3323
  Sola                                            ...       0.0000
  Solb                                            ...       0.0000
  Solg                                            ...       0.0000
  Solc                                            ...       0.0000
  Solh                                            ...       0.0000
Radii:
  Scheme                                          ... Element-dependent radii
  Radius for C  used is    3.4960 Bohr (=   1.8500 Ang.)
  Radius for H  used is    2.2677 Bohr (=   1.2000 Ang.)
Calculating surface                               ...        done! (  0.0s)
Cavity surface points                             ...         1732
Cavity Volume                                     ...     967.8964
Cavity Surface-area                               ...     603.2097
Calculating surface distance matrix               ...        done! (  0.0s)
Performing Cholesky decomposition & store         ...        done! (  0.1s)
Overall time for CPCM initialization              ...                 0.1s

----------------------------------------D-I-I-S--------------------------------------------
Iteration    Energy (Eh)           Delta-E    RMSDP     MaxDP     DIISErr   Damp  Time(sec)
-------------------------------------------------------------------------------------------
               ***  Starting incremental Fock matrix formation  ***
                              *** Initializing SOSCF ***
---------------------------------------S-O-S-C-F--------------------------------------
Iteration    Energy (Eh)           Delta-E    RMSDP     MaxDP     MaxGrad    Time(sec)
--------------------------------------------------------------------------------------
    1    -314.3846069725274788     0.00e+00  2.21e-04  6.28e-03  2.82e-04     4.5
               *** Restarting incremental Fock matrix formation ***
    2    -314.3847475392273623    -1.41e-04  1.16e-04  3.74e-03  3.99e-04     4.2
    3    -314.3847452517025545     2.29e-06  4.76e-05  1.13e-03  6.33e-04     3.6
    4    -314.3847617383349302    -1.65e-05  1.02e-05  3.18e-04  4.72e-05     3.5
    5    -314.3847617512778356    -1.29e-08  2.88e-06  6.22e-05  3.53e-05     3.3
                 **** Energy Check signals convergence ****

               *****************************************************
               *                     SUCCESS                       *
               *           SCF CONVERGED AFTER   5 CYCLES          *
               *****************************************************


SMD CDS free energy correction energy :                 3.08919     Kcal/mol
Total Energy after SMD CDS correction =              -314.379838817 Eh
             **** ENERGY FILE WAS UPDATED (xtb_opt.en.tmp) ****

----------------
TOTAL SCF ENERGY
----------------

Total Energy       :       -314.37983881684977 Eh           -8554.71033 eV

Components:
Nuclear Repulsion  :        404.51331709056586 Eh           11007.36696 eV
Electronic Energy  :       -718.89570638236160 Eh          -19562.14669 eV
One Electron Energy:      -1224.08511241652536 Eh          -33309.04931 eV
Two Electron Energy:        505.18940603416382 Eh           13746.90262 eV
CPCM Dielectric    :         -0.00237245948209 Eh              -0.06456 eV
SMD CDS (Gcds)     :          0.00492293442808 Eh               0.13396 eV

Virial components:
Potential Energy   :       -627.14032155534437 Eh          -17065.35574 eV
Kinetic Energy     :        312.76048273849455 Eh            8510.64541 eV
Virial Ratio       :          2.00517762366964

DFT components:
N(Alpha)           :       32.000182836868 electrons
N(Beta)            :       32.000182836868 electrons
N(Total)           :       64.000365673735 electrons
E(X)               :      -47.336333768502 Eh       
E(C)               :       -1.991943311330 Eh       
E(XC)              :      -49.328277079832 Eh       

CPCM Solvation Model Properties:
Surface-charge          :         -0.05318996699100
Corrected charge        :          0.00000000000000
Outlying charge corr.   :          0.00021307316011 Eh               0.00580 eV
Free-energy (cav+disp)  :          0.00492293442808 Eh               0.13396 eV

---------------
SCF CONVERGENCE
---------------

  Last Energy change         ...    1.2943e-08  Tolerance :   1.0000e-07
  Last MAX-Density change    ...    6.2228e-05  Tolerance :   1.0000e-07
  Last RMS-Density change    ...    2.8801e-06  Tolerance :   5.0000e-09
  Last DIIS Error            ...    2.6163e-03  Tolerance :   1.0000e-07
  Last Orbital Gradient      ...    3.5279e-05  Tolerance :   1.0000e-04
  Last Orbital Rotation      ...    2.7181e-05  Tolerance :   1.0000e-04


----------------
ORBITAL ENERGIES
----------------

  NO   OCC          E(Eh)            E(eV) 
   0   2.0000     -10.019275      -272.6383 
   1   2.0000     -10.014685      -272.5134 
   2   2.0000     -10.012892      -272.4646 
   3   2.0000     -10.012662      -272.4584 
   4   2.0000     -10.012359      -272.4501 
   5   2.0000     -10.011782      -272.4344 
   6   2.0000     -10.011707      -272.4324 
   7   2.0000     -10.009589      -272.3748 
   8   2.0000      -0.793088       -21.5810 
   9   2.0000      -0.736928       -20.0528 
  10   2.0000      -0.680538       -18.5184 
  11   2.0000      -0.663812       -18.0632 
  12   2.0000      -0.616290       -16.7701 
  13   2.0000      -0.550001       -14.9663 
  14   2.0000      -0.519883       -14.1467 
  15   2.0000      -0.494208       -13.4481 
  16   2.0000      -0.440324       -11.9818 
  17   2.0000      -0.431155       -11.7323 
  18   2.0000      -0.424182       -11.5426 
  19   2.0000      -0.378747       -10.3062 
  20   2.0000      -0.371523       -10.1097 
  21   2.0000      -0.364293        -9.9129 
  22   2.0000      -0.340652        -9.2696 
  23   2.0000      -0.327003        -8.8982 
  24   2.0000      -0.310258        -8.4425 
  25   2.0000      -0.299312        -8.1447 
  26   2.0000      -0.297020        -8.0823 
  27   2.0000      -0.292074        -7.9477 
  28   2.0000      -0.279791        -7.6135 
  29   2.0000      -0.270866        -7.3706 
  30   2.0000      -0.261632        -7.1194 
  31   2.0000      -0.259973        -7.0742 
  32   0.0000       0.080141         2.1808 
  33   0.0000       0.094322         2.5666 
  34   0.0000       0.116730         3.1764 
  35   0.0000       0.119725         3.2579 
  36   0.0000       0.128949         3.5089 
  37   0.0000       0.138833         3.7778 
  38   0.0000       0.144059         3.9201 
  39   0.0000       0.148156         4.0315 
  40   0.0000       0.149555         4.0696 
  41   0.0000       0.156881         4.2689 
[...]
   3   2.0000     -10.013546      -272.4825 
   4   2.0000     -10.013258      -272.4746 
   5   2.0000     -10.012841      -272.4633 
   6   2.0000     -10.012759      -272.4610 
   7   2.0000     -10.009929      -272.3840 
   8   2.0000      -0.792579       -21.5672 
   9   2.0000      -0.736402       -20.0385 
  10   2.0000      -0.680054       -18.5052 
  11   2.0000      -0.662874       -18.0377 
  12   2.0000      -0.616657       -16.7801 
  13   2.0000      -0.549902       -14.9636 
  14   2.0000      -0.519669       -14.1409 
  15   2.0000      -0.494469       -13.4552 
  16   2.0000      -0.439428       -11.9574 
  17   2.0000      -0.431372       -11.7382 
  18   2.0000      -0.423462       -11.5230 
  19   2.0000      -0.378403       -10.2969 
  20   2.0000      -0.370976       -10.0948 
  21   2.0000      -0.363684        -9.8964 
  22   2.0000      -0.339644        -9.2422 
  23   2.0000      -0.328636        -8.9426 
  24   2.0000      -0.310202        -8.4410 
  25   2.0000      -0.298734        -8.1290 
  26   2.0000      -0.296372        -8.0647 
  27   2.0000      -0.292704        -7.9649 
  28   2.0000      -0.280223        -7.6252 
  29   2.0000      -0.271166        -7.3788 
  30   2.0000      -0.262677        -7.1478 
  31   2.0000      -0.259242        -7.0543 
  32   0.0000       0.080318         2.1856 
  33   0.0000       0.095188         2.5902 
  34   0.0000       0.115950         3.1552 
  35   0.0000       0.120012         3.2657 
  36   0.0000       0.127961         3.4820 
  37   0.0000       0.138787         3.7766 
  38   0.0000       0.143550         3.9062 
  39   0.0000       0.148378         4.0376 
  40   0.0000       0.149184         4.0595 
  41   0.0000       0.156702         4.2641 
  42   0.0000       0.162544         4.4231 
*Only the first 10 virtual orbitals were printed.
Total SCF time: 0 days 0 hours 0 min 9 sec 
Finished LeanSCF after   9.5 sec

Maximum memory used throughout the entire LEANSCF-calculation: 37.9 MB


-------------------------------------------------------------------------------
                          DFT DISPERSION CORRECTION                            
                                                                               
                                DFTD4 V3.4.0                                   
-------------------------------------------------------------------------------
-------------------------   ----------------
Dispersion correction           -0.007273674
-------------------------   ----------------

------------------   -----------------
gCP correction             0.010250565
------------------   -----------------

-------------------------   --------------------
FINAL SINGLE POINT ENERGY      -314.377019029836
-------------------------   --------------------

------------------------------------------------------------------------------
                         ORCA SCF GRADIENT CALCULATION
------------------------------------------------------------------------------

Nuc. rep. gradient        (SHARK) ... done (  0.0 sec)
HCore & Overlap gradient  (SHARK) ... done (  0.5 sec)
Split-RIJ-J gradient      (SHARK) ... done (  2.2 sec)
XC gradient                       ... done (  9.8 sec)
CPCM gradient                     ... done (  1.3 sec)
SMD gradient                      ... done (  0.0 sec)
Dispersion correction             ... done (  0.0 sec)

-------------------
DISPERSION GRADIENT
-------------------

   1   C   :   -0.000124971    0.000002516   -0.000033491
   2   C   :   -0.000092659    0.000007741   -0.000037340
   3   C   :   -0.000068264   -0.000020912    0.000058510
   4   C   :    0.000026494   -0.000017802    0.000065008
   5   C   :    0.000062877   -0.000073579    0.000012104
   6   C   :    0.000085320   -0.000024818   -0.000060134
   7   C   :    0.000079018    0.000061761   -0.000035383
   8   C   :    0.000055812    0.000060381    0.000051667
   9   H   :   -0.000041555   -0.000004618   -0.000012391
  10   H   :   -0.000041432    0.000005705   -0.000008951
  11   H   :   -0.000037354    0.000003796   -0.000020033
  12   H   :   -0.000041395   -0.000009865   -0.000024999
  13   H   :   -0.000043935    0.000019350   -0.000015823
  14   H   :   -0.000034027    0.000003702    0.000032995
  15   H   :   -0.000032623   -0.000024314    0.000024220
  16   H   :    0.000007323   -0.000013478    0.000046622
  17   H   :    0.000032074   -0.000035023    0.000010428
  18   H   :    0.000021468   -0.000049746   -0.000000127
  19   H   :    0.000038589   -0.000013374   -0.000026494
  20   H   :    0.000035617   -0.000014952   -0.000041795
  21   H   :    0.000036303    0.000030287   -0.000014550
  22   H   :    0.000031892    0.000037679   -0.000025898
  23   H   :    0.000029037    0.000026120    0.000028147
  24   H   :    0.000016393    0.000043445    0.000027708

Difference to translation invariance:
           :   -0.0000000000   -0.0000000000   -0.0000000000

Difference to rotation invariance:
           :    0.0000000000    0.0000000000    0.0000000000

Norm of the Dispersion gradient    ...    0.0003485198
RMS gradient                       ...    0.0000410734
MAX gradient                       ...    0.0001249715
gCP correction                   ... done

------------------
CARTESIAN GRADIENT
------------------

   1   C   :    0.000078757    0.000024956   -0.000031422
   2   C   :   -0.000222996   -0.000018482    0.000012367
   3   C   :    0.000162428    0.000039675   -0.000064260
   4   C   :   -0.000133956   -0.000092639    0.000349071
   5   C   :   -0.000022735    0.000028165   -0.000074179
   6   C   :    0.000089660   -0.000056347   -0.000106752
   7   C   :    0.000070657    0.000122095   -0.000013812
   8   C   :   -0.000033709    0.000034002   -0.000122244
   9   H   :    0.000016186    0.000063574    0.000000122
  10   H   :    0.000032679   -0.000018453   -0.000052975
  11   H   :   -0.000002111   -0.000016300    0.000020151
  12   H   :   -0.000035008   -0.000007279    0.000057771
  13   H   :   -0.000018570   -0.000063127    0.000024857
  14   H   :    0.000027580   -0.000009586   -0.000033846
  15   H   :    0.000026812    0.000035056   -0.000006848
  16   H   :    0.000008449   -0.000003933    0.000023400
  17   H   :   -0.000068930    0.000062592   -0.000007921
  18   H   :    0.000031295    0.000079710    0.000009804
  19   H   :   -0.000014565    0.000029066    0.000026085
  20   H   :    0.000019902    0.000011528    0.000048226
  21   H   :   -0.000037514   -0.000022867   -0.000026361
  22   H   :    0.000008152   -0.000069417    0.000051747
  23   H   :   -0.000057840   -0.000077139   -0.000060602
  24   H   :    0.000075376   -0.000074851   -0.000022379

Difference to translation invariance:
           :   -0.0000000000    0.0000000000    0.0000000000

Difference to rotation invariance:
           :   -0.0002961131    0.0000778679   -0.0001752200

Norm of the Cartesian gradient     ...    0.0006199409
RMS gradient                       ...    0.0000730607
MAX gradient                       ...    0.0003490708

-------
TIMINGS
-------

Total SCF gradient time     ....       14.900 sec

Densities                   ....       0.001 sec  (  0.0%)
One electron gradient       ....       0.458 sec  (  3.1%)
RI-J Coulomb gradient       ....       2.175 sec  ( 14.6%)
XC gradient                 ....       9.826 sec  ( 65.9%)
CPCM gradient               ....       1.311 sec  (  8.8%)
   A-Matrix (El+Nuc)        ....       0.099 sec  (  0.7%)
   Potential                ....       1.211 sec  (  8.1%)
SMD gradient                ....       0.012 sec  (  0.1%)

Maximum memory used throughout the entire SCFGRAD-calculation: 37.0 MB

------------------------------------------------------------------------------
                              ORCA PROPERTY CALCULATIONS
------------------------------------------------------------------------------

GBWName                                 ... xtb_opt.gbw
Number of atoms                         ...     24
Number of basis functions               ...    232
Max core memory                         ...   1024 MB

Electric properties:
Dipole moment                           ... YES
Quadrupole moment                       ...  NO
Static polarizability (Dipole/Dipole)   ...  NO
Static polarizability (Dipole/Quad.)    ...  NO
Static polarizability (Quad./Quad.)     ...  NO
Static polarizability (Velocity)        ...  NO

Atomic electric properties:
Dipole moment                           ...  NO
Quadrupole moment                       ...  NO
Static polarizability                   ...  NO

Choice of electric origin               ... Center of mass
Position of electric origin             ...     0.000950    -0.000518     0.002341

General magnetic properties:
Magnetizability                         ...  NO

EPR properties:
g-Tensor (aka g-matrix)                 ...  NO
Zero-Field splitting spin-orbit         ...  NO
Zero-field splitting spin-spin          ...  NO
Hyperfine couplings                     ...  NO (   0 nuclei)
Quadrupole couplings                    ...  NO (   0 nuclei)
Contact density                         ...  NO (   0 nuclei)

NMR properties:
Chemical shifts                         ...  NO (   0 nuclei)
Spin-rotation constants                 ...  NO (   0 nuclei)
Spin-spin couplings                     ...  NO (   0 nuclei,    0 pairs)

Choice of magnetic origin               ... GIAO
Position of magnetic origin             ...     0.000000     0.000000     0.000000

Properties with geometric perturbations:
SCF Hessian                             ...  NO
IR spectrum                             ...  NO
VCD spectrum                            ...  NO
X-ray spectroscopy properties:
SCF XES/XAS/RIXS spectra                ...  NO


-------------
DIPOLE MOMENT
-------------

Method             : SCF
Type of density    : Electron Density
Multiplicity       :   1
Irrep              :   0
Energy             :  -314.3799959205467189 Eh
Relativity type    : 
Basis              : AO
                                X                 Y                 Z
Electronic contribution:      2.810324202      -0.226305867       1.352707328
Nuclear contribution   :     -2.788206128       0.219971610      -1.321244001
                        -----------------------------------------
Total Dipole Moment    :      0.022118074      -0.006334257       0.031463327
                        -----------------------------------------
Magnitude (a.u.)       :      0.038977852
Magnitude (Debye)      :      0.099073827



--------------------
Rotational spectrum 
--------------------
 
Rotational constants in cm-1:             0.107659             0.041975             0.040848 
Rotational constants in MHz :          3227.526251          1258.377421          1224.596283 

Dipole components along the rotational axes: 
x,y,z [a.u.] :     0.024387     0.030325     0.002225 
x,y,z [Debye]:     0.061988     0.077079     0.005655 

 

Dipole moment calculation done in   0.0 sec 

Maximum memory used throughout the entire PROP-calculation: 15.6 MB

--------------------------------
SUGGESTED CITATIONS FOR THIS RUN
--------------------------------

Below you find a list of papers that are relevant to this ORCA run
We neither can nor want to force you to cite these papers, but we appreciate if you do
You receive ORCA, which is the product of decades of hard work by many enthusiastic individuals, for free
The only thing we kindly ask in return is that you cite our papers,
We deeply appreciate it, if you show your appreciation for ORCA by not just citing the generic ORCA reference.

Please note that relegating all ORCA citations to the supporting information does *not* help us.
SI sections are not indexed - citations you put there will not count into any citation statistics
But we need these citations in order to attract the funding resources that allow us to do what we are doing

Therefore, if you are a happy ORCA user, please consider citing a few of the papers listed below in the main body of your paper

In addition to the list printed below, the program has created the file xtb_opt.bibtex that contains the list in bibtex format
You can import this file easily into all common literature databanks and citation aid programs


List of essential papers. We consider these as the minimum necessary citations

  1. Neese,F.
     Software update: the ORCA program system, version 5.0
     WIRES Comput. Molec. Sci., 2022 12(1)e1606
     doi.org/10.1002/wcms.1606
  2. Grimme,S.; Hansen,A.; Ehlert,S.; Mewes,J.
     r2SCAN-3c: A 'Swiss army knife' composite electronic-structure method
     J. Chem. Phys., 2021 154 064103
     doi.org/10.1063/5.0040021

List of papers to cite with high priority. The work reported in these papers was absolutely
necessary for this run to complete.
Our perspective: the developers of density functionals and basis sets usually get cited in chemistry papers
Good! But without the algorithms to do something with them, the functionals or basis sets would not do anything.
Hence, in our opinion, the algorithm design and method developments papers are equally worthy of getting cited

  1. Neese,F.
     An improvement of the resolution of the identity approximation for the formation of the Coulomb matrix
     J. Comp. Chem., 2003 24(14)1740-1747
     doi.org/10.1002/jcc.10318
  2. Garcia-Rates,M.; Neese,F.
     Effect of the Solute Cavity on the Solvation Energy and its Derivatives within the Framework of the Gaussian Charge Scheme
     J. Comput. Chem., 2020 41 922-939
     doi.org/10.1002/jcc.26139
  3. Neese,F.
     The SHARK Integral Generation and Digestion System
     J. Comp. Chem., 2022  1-16
     doi.org/10.1002/jcc.26942
  4. Lehtola,S.; Steigemann,C.; Oliveira,M.; Marques,M.
     Recent developments in Libxc - A comprehensive library of functionals for density functional theory
     Software X, 2018 7 
     doi.org/10.1016/j.softx.2017.11.002
  5. Caldeweyher,E.; Bannwarth,C.; Grimme,S.
     Extension of the D3 dispersion coefficient model
     J. Chem. Phys., 2017 147 034112-XXXX
     doi.org/10.1063/1.4993215
  6. Caldeweyher,E.; Ehlert,S.; Hansen,A.; Neugebauer,H.; Spicher,S.; Bannwarth,C.; Grimme,S.
     A generally applicable atomic-charge dependent London dispersion correction
     J. Chem. Phys., 2019 150 154122-XXXX
     doi.org/10.1063/1.5090222
  7. Caldeweyher,E.; Mewes,J.; Ehlert,S.; Grimme,S.
     Extension and evaluation of the D4 London-dispersion model for periodic systems
     Phys. Chem. Chem. Phys., 2020 22(16)8499-8512
     doi.org/10.1039/D0CP00502A

List of suggested additional citations. These are papers that are important in the 'surrounding' of 
of this run, or papers that preceded the highly important papers. If you like your results we are grateful for a citation.

  1. Neese,F.
     The ORCA program system
     WIRES Comput. Molec. Sci., 2012 2(1)73-78
     doi.org/10.1002/wcms.81
  2. Neese,F.
     Software update: the ORCA program system, version 4.0
     WIRES Comput. Molec. Sci., 2018 8(1)1-6
     doi.org/10.1002/wcms.1327
  3. Neese,F.; Wennmohs,F.; Becker,U.; Riplinger,C.
     The ORCA quantum chemistry program package
     J. Chem. Phys., 2020 152 Art. No. L224108
     doi.org/10.1063/5.0004608

List of optional additional citations

  1. Neese,F.
     Approximate second-order SCF convergence for spin unrestricted wavefunctions
     Chem. Phys. Lett., 2000 325(1-3)93-98
     doi.org/10.1016/s0009-2614(00)00662-x

Timings for individual modules:

Sum of individual times          ...       26.425 sec (=   0.440 min)
Startup calculation              ...        1.441 sec (=   0.024 min)   5.5 %
SCF iterations                   ...        9.860 sec (=   0.164 min)  37.3 %
Property calculations            ...        0.122 sec (=   0.002 min)   0.5 %
SCF Gradient evaluation          ...       15.001 sec (=   0.250 min)  56.8 %
                             ****ORCA TERMINATED NORMALLY****
TOTAL RUN TIME: 0 days 0 hours 0 minutes 27 seconds 312 msec
  ------------------------------------------------------------------------
          * successful ORCA run, taking over control again...

         :::::::::::::::::::::::::::::::::::::::::::::::::::::
         ::                  ORCA SUMMARY                   ::
         :::::::::::::::::::::::::::::::::::::::::::::::::::::
         :: total energy            -314.377019029836 Eh    ::
         :: gradient norm              0.000619940916 Eh/a0 ::
         :: HOMO-LUMO gap              0.000000000000 eV    ::
         :::::::::::::::::::::::::::::::::::::::::::::::::::::

           -------------------------------------------------
          |                Property Printout                |
           -------------------------------------------------
           -------------------------------------------------
          |                Geometry Summary                 |
           -------------------------------------------------

      molecular mass/u    :      112.2129392
   center of mass at/Å    :        0.0005039      -0.0002742       0.0012392
  moments of inertia/u·Å² :        0.1565790E+03   0.4015998E+03   0.4126782E+03
rotational constants/cm⁻¹ :        0.1076622E+00   0.4197619E-01   0.4084934E-01

 * 19 selected distances

     #   Z          #   Z                                           value/Å
     1   6 C        2   6 C                                       1.5270960
     2   6 C        3   6 C                                       1.5291482
     3   6 C        4   6 C                                       1.5359938 (max)
     1   6 C        9   1 H                                       1.0959535
     1   6 C       10   1 H                                       1.0960170
     1   6 C       11   1 H                                       1.0949287
     2   6 C       12   1 H                                       1.0966188
     2   6 C       13   1 H                                       1.0961660
     3   6 C       14   1 H                                       1.0996006
     3   6 C       15   1 H                                       1.0996090
     4   6 C       16   1 H                                       1.0969288
     5   6 C       17   1 H                                       1.0957473
     5   6 C       18   1 H                                       1.0956120
     6   6 C       19   1 H                                       1.0942119
     6   6 C       20   1 H                                       1.0938462
     7   6 C       21   1 H                                       1.0942792
     7   6 C       22   1 H                                       1.0936661 (min)
     8   6 C       23   1 H                                       1.0961286
     8   6 C       24   1 H                                       1.0957210

 * 2 distinct bonds (by element types)

   Z      Z             #   av. dist./Å        max./Å        min./Å
   1 H    6 C          16     1.0959397     1.0996090     1.0936661
   6 C    6 C           3     1.5307460     1.5359938     1.5270960


optimized geometry written to: xtbopt.coord


           -------------------------------------------------
          | TOTAL ENERGY             -314.377019029836 Eh   |
          | GRADIENT NORM               0.000619940916 Eh/α |
           -------------------------------------------------

------------------------------------------------------------------------
 * finished run on 2025/04/11 at 12:07:51.086     
------------------------------------------------------------------------
 total:
 * wall-time:     0 d,  0 h,  4 min,  5.282 sec
 *  cpu-time:     0 d,  0 h,  0 min,  2.834 sec
 * ratio c/w:     0.012 speedup
 SCF:
 * wall-time:     0 d,  0 h,  0 min, 34.942 sec
 *  cpu-time:     0 d,  0 h,  0 min,  1.474 sec
 * ratio c/w:     0.042 speedup
 ANC optimizer:
 * wall-time:     0 d,  0 h,  3 min, 30.280 sec
 *  cpu-time:     0 d,  0 h,  0 min,  1.294 sec
 * ratio c/w:     0.006 speedup

