      -----------------------------------------------------------      
     |                   =====================                   |     
     |                           x T B                           |     
     |                   =====================                   |     
     |                         S. Grimme                         |     
     |          Mulliken Center for Theoretical Chemistry        |     
     |                    University of Bonn                     |     
      -----------------------------------------------------------      

   * xtb version 6.7.1 (edcfbbe) compiled by 'albert@albert-system' on 2024-07-22

   xtb is free software: you can redistribute it and/or modify it under
   the terms of the GNU Lesser General Public License as published by
   the Free Software Foundation, either version 3 of the License, or
   (at your option) any later version.
   
   xtb is distributed in the hope that it will be useful,
   but WITHOUT ANY WARRANTY; without even the implied warranty of
   MERCHANTABILITY or FITNESS FOR A PARTICULAR PURPOSE.  See the
   GNU Lesser General Public License for more details.
   
   Cite this work as:
   * C. Bannwarth, E. Caldeweyher, S. Ehlert, A. Hansen, P. Pracht,
     J. Seibert, S. Spicher, S. Grimme, WIREs Comput. Mol. Sci., 2020, 11,
     e01493. DOI: 10.1002/wcms.1493
   
   for GFN2-xTB:
   * C. Bannwarth, S. Ehlert and S. Grimme., J. Chem. Theory Comput., 2019,
     15, 1652-1671. DOI: 10.1021/acs.jctc.8b01176
   for GFN1-xTB:
   * S. Grimme, C. Bannwarth, P. Shushkov, J. Chem. Theory Comput., 2017,
     13, 1989-2009. DOI: 10.1021/acs.jctc.7b00118
   for GFN0-xTB:
   * P. Pracht, E. Caldeweyher, S. Ehlert, S. Grimme, ChemRxiv, 2019, preprint.
     DOI: 10.26434/chemrxiv.8326202.v1
   for GFN-FF:
   * S. Spicher and S. Grimme, Angew. Chem. Int. Ed., 2020, 59, 15665-15673.
     DOI: 10.1002/anie.202004239
   
   for ALPB and GBSA implicit solvation:
   * S. Ehlert, M. Stahn, S. Spicher, S. Grimme, J. Chem. Theory Comput.,
     2021, 17, 4250-4261. DOI: 10.1021/acs.jctc.1c00471
   
   for ddCOSMO and CPCM-X implicit solvation:
   * M. Stahn, S. Ehlert, S. Grimme, J. Phys. Chem. A,
     2023, XX, XXXX-XXXX. DOI: 10.1021/acs.jpca.3c04382
   
   for DFT-D4:
   * E. Caldeweyher, C. Bannwarth and S. Grimme, J. Chem. Phys., 2017,
     147, 034112. DOI: 10.1063/1.4993215
   * E. Caldeweyher, S. Ehlert, A. Hansen, H. Neugebauer, S. Spicher,
     C. Bannwarth and S. Grimme, J. Chem. Phys., 2019, 150, 154122.
     DOI: 10.1063/1.5090222
   * E. Caldeweyher, J.-M. Mewes, S. Ehlert and S. Grimme, Phys. Chem. Chem. Phys.
     2020, 22, 8499-8512. DOI: 10.1039/D0CP00502A
   
   for sTDA-xTB:
   * S. Grimme and C. Bannwarth, J. Chem. Phys., 2016, 145, 054103.
     DOI: 10.1063/1.4959605
   
   in the mass-spec context:
   * V. Asgeirsson, C. Bauer and S. Grimme, Chem. Sci., 2017, 8, 4879.
     DOI: 10.1039/c7sc00601b
   * J. Koopman and S. Grimme, ACS Omega 2019, 4, 12, 15120-15133.
     DOI: 10.1021/acsomega.9b02011
   
   for metadynamics refer to:
   * S. Grimme, J. Chem. Theory Comput., 2019, 155, 2847-2862
     DOI: 10.1021/acs.jctc.9b00143
   
   for SPH calculations refer to:
   * S. Spicher and S. Grimme, J. Chem. Theory Comput., 2021, 17, 1701-1714
     DOI: 10.1021/acs.jctc.0c01306
   
   for ONIOM refer to:
   * C. Plett, A. Katbashev, S. Ehlert, S. Grimme, M. Bursch,
     Phys. Chem. Chem. Phys., 2023, 25, 17860-17868. DOI: 10.1039/D3CP02178E
   
   for DIPRO refer to:
   * J. Kohn, N. Gildemeister, S. Grimme, D. Fazzi, A. Hansen,
     J. Chem. Phys., 2023, just accepted.
   
   for PTB refer to:
   * S. Grimme, M. Mueller, A. Hansen, J. Chem. Phys., 2023, 158, 124111.
     DOI: 10.1063/5.0137838
   
   with help from (in alphabetical order)
   P. Atkinson, C. Bannwarth, F. Bohle, G. Brandenburg, E. Caldeweyher
   M. Checinski, S. Dohm, S. Ehlert, S. Ehrlich, I. Gerasimov, C. Hölzer
   A. Katbashev, J. Kohn, J. Koopman, C. Lavigne, S. Lehtola, F. März, M. Müller,
   F. Musil, H. Neugebauer, J. Pisarek, C. Plett, P. Pracht, F. Pultar,
   J. Seibert, P. Shushkov, S. Spicher, M. Stahn, M. Steiner, T. Strunk,
   J. Stückrath, T. Rose, and J. Unsleber
   
 * started run on 2025/04/11 at 12:02:14.949     
   ID    Z sym.   atoms
    1    6 C      1-4, 7
    2    8 O      5, 6
    3    1 H      8-17

           -------------------------------------------------
          |                Calculation Setup                |
           -------------------------------------------------

          program call               : /srv/scratch/z5358697/.xtb/bin/xtb xtb_rrho.coord --gfn2 --bhess vtight --chrg 0 --enso --norestart -I rrho-xcontrol-inp --parallel 1 --alpb water
          hostname                   : k064
          coordinate file            : xtb_rrho.coord
          omp threads                :                     1


           -------------------------------------------------
          |                 G F N 2 - x T B                 |
           -------------------------------------------------

        Reference                      10.1021/acs.jctc.8b01176
      * Hamiltonian:
        H0-scaling (s, p, d)           1.850000    2.230000    2.230000
        zeta-weighting                 0.500000
      * Dispersion:
        s8                             2.700000
        a1                             0.520000
        a2                             5.000000
        s9                             5.000000
      * Repulsion:
        kExp                           1.500000    1.000000
        rExp                           1.000000
      * Coulomb:
        alpha                          2.000000
        third order                    shell-resolved
        anisotropic                    true
        a3                             3.000000
        a5                             4.000000
        cn-shift                       1.200000
        cn-exp                         4.000000
        max-rad                        5.000000

      * Solvation model:               ALPB
        Solvent                        water
        Parameter file                 internal GFN2-xTB/ALPB
        Dielectric constant                8.0200E+01
        Reference state                gsolv [1 M gas/solution]
        Free energy shift                  1.0808E-03 Eh       6.7819E-01 kcal/mol
        Temperature                        2.9815E+02 K
        Density                            1.0000E+00 kg/L
        Solvent mass                       1.8000E+01 g/mol
        Interaction kernel             P16
        Born radius scaling (c1)           1.4744E+00
        Born radii integrator          GBOBC
        Born offset                        0.0000E+00 a0       0.0000E+00 AA
        H-bond correction              true
        Ion screening                  false
        Surface tension                    1.0000E-05 Eh       1.5569E+01 dyn/cm
        Grid points                               974 per atom

          ...................................................
          :                      SETUP                      :
          :.................................................:
          :  # basis functions                  38          :
          :  # atomic orbitals                  38          :
          :  # shells                           24          :
          :  # electrons                        42          :
          :  max. iterations                   250          :
          :  Hamiltonian                  GFN2-xTB          :
          :  restarted?                      false          :
          :  GBSA solvation                   true          :
          :  PC potential                    false          :
          :  electronic temp.          300.0000000     K    :
          :  accuracy                    1.0000000          :
          :  -> integral cutoff          0.2500000E+02      :
          :  -> integral neglect         0.1000000E-07      :
          :  -> SCF convergence          0.1000000E-05 Eh   :
          :  -> wf. convergence          0.1000000E-03 e    :
          :  Broyden damping             0.4000000          :
          :  net charge                          0          :
          :  unpaired electrons                  0          :
          ...................................................

 iter      E             dE          RMSdq      gap      omega  full diag
   1    -24.1506478 -0.241506E+02  0.446E+00    5.72       0.0  T
   2    -24.2068653 -0.562175E-01  0.223E+00    4.77       1.0  T
   3    -24.2083485 -0.148319E-02  0.112E+00    5.12       1.0  T
   4    -24.2100982 -0.174973E-02  0.171E-01    4.86       1.0  T
   5    -24.2103009 -0.202701E-03  0.745E-02    4.92       1.0  T
   6    -24.2103027 -0.177865E-05  0.203E-02    4.92       1.2  T
   7    -24.2103034 -0.758374E-06  0.424E-03    4.92       5.7  T
   8    -24.2103035 -0.293847E-07  0.229E-03    4.92      10.6  T
   9    -24.2103035 -0.777068E-08  0.422E-04    4.92      57.5  T
  10    -24.2103035 -0.651340E-09  0.191E-04    4.92     127.1  T

   *** convergence criteria satisfied after 10 iterations ***

         #    Occupation            Energy/Eh            Energy/eV
      -------------------------------------------------------------
         1        2.0000           -0.7471235             -20.3303
       ...           ...                  ...                  ...
        15        2.0000           -0.4756668             -12.9436
        16        2.0000           -0.4675038             -12.7214
        17        2.0000           -0.4643916             -12.6367
        18        2.0000           -0.4526864             -12.3182
        19        2.0000           -0.4424155             -12.0387
        20        2.0000           -0.4295859             -11.6896
        21        2.0000           -0.4233616             -11.5203 (HOMO)
        22                         -0.2426244              -6.6021 (LUMO)
        23                         -0.0092448              -0.2516
        24                          0.0681420               1.8542
        25                          0.1143392               3.1113
        26                          0.1282220               3.4891
       ...                                ...                  ...
        38                          0.5677702              15.4498
      -------------------------------------------------------------
                  HL-Gap            0.1807372 Eh            4.9181 eV
             Fermi-level           -0.3329930 Eh           -9.0612 eV

 SCC (total)                   0 d,  0 h,  0 min,  0.026 sec
 SCC setup                      ...        0 min,  0.001 sec (  4.332%)
 Dispersion                     ...        0 min,  0.000 sec (  0.342%)
 classical contributions        ...        0 min,  0.000 sec (  0.082%)
 integral evaluation            ...        0 min,  0.001 sec (  5.485%)
 iterations                     ...        0 min,  0.019 sec ( 73.164%)
 molecular gradient             ...        0 min,  0.004 sec ( 15.835%)
 printout                       ...        0 min,  0.000 sec (  0.697%)

         :::::::::::::::::::::::::::::::::::::::::::::::::::::
         ::                     SUMMARY                     ::
         :::::::::::::::::::::::::::::::::::::::::::::::::::::
         :: total energy             -23.952803051782 Eh    ::
         :: total w/o Gsasa/hb       -23.952906057421 Eh    ::
         :: gradient norm              0.029942789255 Eh/a0 ::
         :: HOMO-LUMO gap              4.918108299270 eV    ::
         ::.................................................::
         :: SCC energy               -24.210303649275 Eh    ::
         :: -> isotropic ES            0.058552623634 Eh    ::
         :: -> anisotropic ES          0.001317458540 Eh    ::
         :: -> anisotropic XC          0.007009547637 Eh    ::
         :: -> dispersion             -0.008982724408 Eh    ::
         :: -> Gsolv                  -0.009176182164 Eh    ::
         ::    -> Gelec               -0.009279187803 Eh    ::
         ::    -> Gsasa                0.001532665166 Eh    ::
         ::    -> Ghb                 -0.002510419226 Eh    ::
         ::    -> Gshift               0.001080759698 Eh    ::
         :: repulsion energy           0.257500597493 Eh    ::
         :: add. restraining           0.000000000000 Eh    ::
         :: total charge              -0.000000000000 e     ::
         :::::::::::::::::::::::::::::::::::::::::::::::::::::

metadynamics with 1 initial structures loaded
           -------------------------------------------------
          |           Optimal kpush determination           |
           -------------------------------------------------
      ----------------------------------------------------------- 
     |                   =====================                   |
     |                        A N C O P T                        |
     |                   =====================                   |
     |               Approximate Normal Coordinate               |
     |                Rational Function Optimizer                |
      ----------------------------------------------------------- 
target rmsd / Å         0.100000
unbiased initial rmsd   0.128770
 
iter. min.        max.        rmsd       kpush
      ----------------------------------------------------------- 
     |                   =====================                   |
     |                        A N C O P T                        |
     |                   =====================                   |
     |               Approximate Normal Coordinate               |
     |                Rational Function Optimizer                |
      ----------------------------------------------------------- 
 1    0.000000    0.772727    0.008797   -0.386364
      ----------------------------------------------------------- 
     |                   =====================                   |
     |                        A N C O P T                        |
     |                   =====================                   |
     |               Approximate Normal Coordinate               |
     |                Rational Function Optimizer                |
      ----------------------------------------------------------- 
 2    0.000000    0.386364    0.012065   -0.193182
      ----------------------------------------------------------- 
     |                   =====================                   |
     |                        A N C O P T                        |
     |                   =====================                   |
     |               Approximate Normal Coordinate               |
     |                Rational Function Optimizer                |
      ----------------------------------------------------------- 
 3    0.000000    0.193182    0.018195   -0.096591
      ----------------------------------------------------------- 
     |                   =====================                   |
     |                        A N C O P T                        |
     |                   =====================                   |
     |               Approximate Normal Coordinate               |
     |                Rational Function Optimizer                |
      ----------------------------------------------------------- 
 4    0.000000    0.096591    0.028168   -0.048295
      ----------------------------------------------------------- 
     |                   =====================                   |
     |                        A N C O P T                        |
     |                   =====================                   |
     |               Approximate Normal Coordinate               |
     |                Rational Function Optimizer                |
      ----------------------------------------------------------- 
 5    0.000000    0.048295    0.041742   -0.024148
      ----------------------------------------------------------- 
     |                   =====================                   |
     |                        A N C O P T                        |
     |                   =====================                   |
     |               Approximate Normal Coordinate               |
     |                Rational Function Optimizer                |
      ----------------------------------------------------------- 
 6    0.000000    0.024148    0.056019   -0.012074
      ----------------------------------------------------------- 
     |                   =====================                   |
     |                        A N C O P T                        |
     |                   =====================                   |
     |               Approximate Normal Coordinate               |
     |                Rational Function Optimizer                |
      ----------------------------------------------------------- 
 7    0.000000    0.012074    0.068410   -0.006037
      ----------------------------------------------------------- 
     |                   =====================                   |
     |                        A N C O P T                        |
     |                   =====================                   |
     |               Approximate Normal Coordinate               |
     |                Rational Function Optimizer                |
      ----------------------------------------------------------- 
 8    0.000000    0.006037    0.077136   -0.003018
      ----------------------------------------------------------- 
     |                   =====================                   |
     |                        A N C O P T                        |
     |                   =====================                   |
     |               Approximate Normal Coordinate               |
     |                Rational Function Optimizer                |
      ----------------------------------------------------------- 
 9    0.000000    0.003018    0.085506   -0.001509
      ----------------------------------------------------------- 
     |                   =====================                   |
     |                        A N C O P T                        |
     |                   =====================                   |
     |               Approximate Normal Coordinate               |
     |                Rational Function Optimizer                |
      ----------------------------------------------------------- 
10    0.000000    0.001509    0.093191   -0.000755
final kpush: -0.000755
           -------------------------------------------------
          |            Biased Numerical Hessian             |
           -------------------------------------------------
kpush                :  -0.00075
alpha                :   1.00000
step length          :   0.00500
SCC accuracy         :   0.30000
Hessian scale factor :   1.00000
frozen atoms in %    :   0.00000    0
RMS gradient         :   0.00004
estimated CPU  time      0.01 min
estimated wall time      0.01 min

writing file <hessian>.

 projected vibrational frequencies (cm⁻¹)
eigval :       -0.00    -0.00    -0.00     0.00     0.00     0.00
eigval :       31.83    41.17    84.99   143.11   191.35   231.08
eigval :      276.02   336.17   458.72   570.78   650.47   774.22
eigval :      873.16   882.60   957.80  1033.76  1072.46  1086.97
eigval :     1112.87  1132.66  1142.70  1203.81  1208.95  1261.37
eigval :     1265.96  1348.48  1374.08  1412.11  1424.12  1429.23
eigval :     1449.25  1491.08  1497.16  1498.83  1683.11  2957.71
eigval :     2978.64  2987.43  2987.85  2997.27  3002.82  3033.56
eigval :     3038.23  3049.03  3056.33
           -------------------------------------------------
          |                Property Printout                |
           -------------------------------------------------

    * Orbital Energies and Occupations

         #    Occupation            Energy/Eh            Energy/eV
      -------------------------------------------------------------
         1        2.0000           -0.7513307             -20.4447
       ...           ...                  ...                  ...
         9        2.0000           -0.5609410             -15.2640
        10        2.0000           -0.5532257             -15.0540
        11        2.0000           -0.5246928             -14.2776
        12        2.0000           -0.5075065             -13.8100
        13        2.0000           -0.5060660             -13.7708
        14        2.0000           -0.4847684             -13.1912
        15        2.0000           -0.4755943             -12.9416
        16        2.0000           -0.4665728             -12.6961
        17        2.0000           -0.4656147             -12.6700
        18        2.0000           -0.4518579             -12.2957
        19        2.0000           -0.4412734             -12.0077
        20        2.0000           -0.4290467             -11.6750
        21        2.0000           -0.4215140             -11.4700 (HOMO)
        22                         -0.2367250              -6.4416 (LUMO)
        23                          0.0049367               0.1343
        24                          0.0782542               2.1294
        25                          0.1167980               3.1782
        26                          0.1365384               3.7154
        27                          0.1393574               3.7921
        28                          0.1514618               4.1215
        29                          0.1607780               4.3750
        30                          0.1838350               5.0024
        31                          0.2016808               5.4880
        32                          0.2204460               5.9986
       ...                                ...                  ...
        38                          0.6003583              16.3366
      -------------------------------------------------------------
                  HL-Gap            0.1847890 Eh            5.0284 eV
             Fermi-level           -0.3291195 Eh           -8.9558 eV

     #   Z          covCN         q      C6AA      α(0)
     1   6 C        3.753    -0.118    22.823     6.812
     2   6 C        3.801    -0.060    21.651     6.625
     3   6 C        3.805    -0.101    22.425     6.742
     4   6 C        2.717     0.362    20.859     7.476
     5   8 O        0.856    -0.498    23.738     6.532
     6   8 O        1.704    -0.259    18.294     5.775
     7   6 C        3.650     0.009    20.740     6.541
     8   1 H        0.925     0.044     2.393     2.419
     9   1 H        0.925     0.049     2.338     2.391
    10   1 H        0.925     0.045     2.388     2.417
    11   1 H        0.924     0.047     2.354     2.399
    12   1 H        0.924     0.050     2.318     2.381
    13   1 H        0.924     0.090     1.880     2.144
    14   1 H        0.924     0.086     1.915     2.164
    15   1 H        0.924     0.076     2.021     2.223
    16   1 H        0.925     0.103     1.755     2.072
    17   1 H        0.924     0.074     2.038     2.233

 Mol. C6AA /au·bohr⁶  :       2201.299303
 Mol. C8AA /au·bohr⁸  :      46915.102250
 Mol. α(0) /au        :         69.345736


Wiberg/Mayer (AO) data.
largest (>0.10) Wiberg bond orders for each atom

 ---------------------------------------------------------------------------
     #   Z sym  total        # sym  WBO       # sym  WBO       # sym  WBO
 ---------------------------------------------------------------------------
     1   6 C    3.994 --     2 C    1.019    10 H    0.987     8 H    0.987
                             9 H    0.986
     2   6 C    3.993 --     1 C    1.019     3 C    1.008    11 H    0.977
                            12 H    0.977
     3   6 C    3.989 --     2 C    1.008     4 C    0.985    14 H    0.948
                            13 H    0.942
     4   6 C    3.905 --     5 O    1.682     6 O    1.170     3 C    0.985
     5   8 O    1.960 --     4 C    1.682     6 O    0.169
     6   8 O    2.325 --     4 C    1.170     7 C    0.939     5 O    0.169
     7   6 C    3.904 --    17 H    0.977    16 H    0.976    15 H    0.976
                             6 O    0.939
     8   1 H    0.998 --     1 C    0.987
     9   1 H    0.997 --     1 C    0.986
    10   1 H    0.998 --     1 C    0.987
    11   1 H    0.998 --     2 C    0.977
    12   1 H    0.997 --     2 C    0.977
    13   1 H    0.992 --     3 C    0.942
    14   1 H    0.993 --     3 C    0.948
    15   1 H    0.994 --     7 C    0.976
    16   1 H    0.989 --     7 C    0.976
    17   1 H    0.994 --     7 C    0.977
 ---------------------------------------------------------------------------

Topologies differ in total number of bonds
Writing topology from bond orders to xtbtopo.mol

molecular dipole:
                 x           y           z       tot (Debye)
 q only:       -0.366       1.153      -0.086
   full:       -0.352       1.113      -0.085       2.974
molecular quadrupole (traceless):
                xx          xy          yy          xz          yz          zz
 q only:        7.395       6.762      -6.315      -0.263       0.460      -1.079
  q+dip:        5.013       7.274      -6.946      -0.301       0.568       1.933
   full:        5.698       7.258      -7.402      -0.307       0.628       1.705

           -------------------------------------------------
          |                Geometry Summary                 |
           -------------------------------------------------

      molecular mass/u    :      102.1318968
   center of mass at/Å    :        0.0014941       0.0070556       0.0366422
  moments of inertia/u·Å² :        0.8886127E+02   0.3592334E+03   0.4353808E+03
rotational constants/cm⁻¹ :        0.1897073E+00   0.4692669E-01   0.3871928E-01

 * 15 selected distances

     #   Z          #   Z                                           value/Å
     1   6 C        2   6 C                                       1.5243036
     2   6 C        3   6 C                                       1.5260852 (max)
     4   6 C        5   8 O                                       1.2159442
     4   6 C        6   8 O                                       1.3258908
     6   8 O        7   6 C                                       1.4295331
     1   6 C        8   1 H                                       1.0872528
     1   6 C        9   1 H                                       1.0864111
     1   6 C       10   1 H                                       1.0872039
     2   6 C       11   1 H                                       1.0908716
     2   6 C       12   1 H                                       1.0905887
     3   6 C       13   1 H                                       1.0931856
     3   6 C       14   1 H                                       1.0925266
     7   6 C       15   1 H                                       1.0905259
     7   6 C       16   1 H                                       1.0853786 (min)
     7   6 C       17   1 H                                       1.0906778

 * 3 distinct bonds (by element types)

   Z      Z             #   av. dist./Å        max./Å        min./Å
   1 H    6 C          10     1.0894623     1.0931856     1.0853786
   6 C    6 C           2     1.5251944     1.5260852     1.5243036
   6 C    8 O           3     1.3237894     1.4295331     1.2159442

           -------------------------------------------------
          |               Frequency Printout                |
           -------------------------------------------------
 projected vibrational frequencies (cm⁻¹)
eigval :       -0.00    -0.00    -0.00     0.00     0.00     0.00
eigval :       31.83    41.17    84.99   143.11   191.35   231.08
eigval :      276.02   336.17   458.72   570.78   650.47   774.22
eigval :      873.16   882.60   957.80  1033.76  1072.46  1086.97
eigval :     1112.87  1132.66  1142.70  1203.81  1208.95  1261.37
eigval :     1265.96  1348.48  1374.08  1412.11  1424.12  1429.23
eigval :     1449.25  1491.08  1497.16  1498.83  1683.11  2957.71
eigval :     2978.64  2987.43  2987.85  2997.27  3002.82  3033.56
eigval :     3038.23  3049.03  3056.33
 reduced masses (amu)
   1: 11.98   2: 12.69   3: 10.88   4: 11.94   5: 11.24   6: 10.39   7:  8.74   8:  1.50
   9:  8.04  10: 10.02  11: 10.62  12:  1.80  13: 11.13  14:  9.76  15: 12.80  16:  9.17
  17: 11.10  18:  3.33  19: 10.87  20:  3.85  21:  5.74  22: 12.90  23:  4.40  24:  9.09
  25:  3.84  26:  7.02  27:  6.77  28: 12.19  29:  4.60  30:  2.24  31:  4.06  32:  5.24
  33:  2.60  34:  3.17  35:  1.52  36:  1.99  37:  1.60  38:  1.84  39:  1.52  40:  1.65
  41: 13.34  42:  1.92  43:  1.53  44:  1.98  45:  1.96  46:  1.38  47:  1.50  48:  1.96
  49:  1.76  50:  1.44  51:  1.80
 IR intensities (km·mol⁻¹)
   1:  0.60   2:  0.27   3:  1.31   4:  0.82   5:  0.11   6:  1.30   7:  6.35   8:  0.24
   9:  0.10  10:  1.09  11:  9.68  12:  0.18  13: 18.85  14:  5.10  15: 15.54  16: 13.73
  17: 10.37  18: 37.29  19: 33.22  20:  3.67  21:  2.16  22: 19.22  23: 13.38  24: 14.51
  25:  2.82  26:  0.39  27: 24.21  28:576.12  29:  9.96  30:  0.14  31:  0.12  32:  4.00
  33: 17.94  34:  1.76  35: 12.64  36:  8.69  37:  2.45  38:  0.32  39:  2.59  40:  1.16
  41:660.79  42:  4.26  43: 10.33  44: 44.62  45: 25.29  46: 19.85  47: 41.25  48: 78.59
  49: 67.11  50: 41.50  51:  2.65
 Raman intensities (Ä⁴*amu⁻¹)
   1:  0.00   2:  0.00   3:  0.00   4:  0.00   5:  0.00   6:  0.00   7:  0.00   8:  0.00
   9:  0.00  10:  0.00  11:  0.00  12:  0.00  13:  0.00  14:  0.00  15:  0.00  16:  0.00
  17:  0.00  18:  0.00  19:  0.00  20:  0.00  21:  0.00  22:  0.00  23:  0.00  24:  0.00
  25:  0.00  26:  0.00  27:  0.00  28:  0.00  29:  0.00  30:  0.00  31:  0.00  32:  0.00
  33:  0.00  34:  0.00  35:  0.00  36:  0.00  37:  0.00  38:  0.00  39:  0.00  40:  0.00
  41:  0.00  42:  0.00  43:  0.00  44:  0.00  45:  0.00  46:  0.00  47:  0.00  48:  0.00
  49:  0.00  50:  0.00  51:  0.00
 output can be read by thermo (or use thermo option).
 writing <g98.out> molden fake output.
 recommended (thermochemical) frequency scaling factor: 1.0
           -------------------------------------------------
          |             Thermodynamic Functions             |
           -------------------------------------------------

Molecule has no symmetry elements
It seems to be the C1 point group
c1  symmetry found (for desy threshold:  0.10E+00) used in thermo

          ...................................................
          :                      SETUP                      :
          :.................................................:
          :  # frequencies                          45      :
          :  # imaginary freq.                       0      :
          :  linear?                             false      :
          :  only rotor calc.                    false      :
          :  symmetry                               c1      :
          :  rotational number                       1      :
          :  scaling factor                  1.0000000      :
          :  rotor cutoff                    0.0000000 cm⁻¹ :
          :  imag. cutoff                 -100.0000000 cm⁻¹ :
          :.................................................:

    mode    ω/cm⁻¹     T·S(HO)/kcal·mol⁻¹    T·S(FR)/kcal·mol⁻¹   T·S(vib)
   ------------------------------------------------------------------------
       1     31.83    -1.70310 (100.00%)    -1.18984 (  0.00%)    -1.70310
       2     41.17    -1.55100 (100.00%)    -1.11372 (  0.00%)    -1.55100
       3     84.99    -1.12469 (100.00%)    -0.89919 (  0.00%)    -1.12469
       4    143.11    -0.82344 (100.00%)    -0.74490 (  0.00%)    -0.82344
       5    191.35    -0.66032 (100.00%)    -0.65888 (  0.00%)    -0.66032
       6    231.08    -0.55770 (100.00%)    -0.60300 (  0.00%)    -0.55770
       7    276.02    -0.46458 (100.00%)    -0.55037 (  0.00%)    -0.46458
   ------------------------------------------------------------------------

   temp. (K)  partition function   enthalpy   heat capacity  entropy
                                   cal/mol     cal/K/mol   cal/K/mol   J/K/mol
 298.15  VIB  0.136E+04             3858.886     23.680     27.286
         ROT  0.285E+06              888.752      2.981     27.940
         INT  0.388E+09             4747.639     26.661     55.226
         TR   0.999E+27             1481.254      4.968     39.763
         TOT                        6228.8928    31.6295    94.9886   397.4325

       T/K    H(0)-H(T)+PV         H(T)/Eh          T*S/Eh         G(T)/Eh
   ------------------------------------------------------------------------
    298.15    0.992637E-02    0.152816E+00    0.451322E-01    0.107684E+00
   ------------------------------------------------------------------------

         :::::::::::::::::::::::::::::::::::::::::::::::::::::
         ::                  THERMODYNAMIC                  ::
         :::::::::::::::::::::::::::::::::::::::::::::::::::::
         :: total free energy         -23.847278473824 Eh   ::
         ::.................................................::
         :: total energy              -23.954962311159 Eh   ::
         :: zero point energy           0.142889635906 Eh   ::
         :: G(RRHO) w/o ZPVE           -0.035205798572 Eh   ::
         :: G(RRHO) contrib.            0.107683837334 Eh   ::
         :::::::::::::::::::::::::::::::::::::::::::::::::::::

optimized geometry written to: xtbopt.coord


           -------------------------------------------------
          | TOTAL ENERGY              -23.954962311159 Eh   |
          | TOTAL ENTHALPY            -23.802146302790 Eh   |
          | TOTAL FREE ENERGY         -23.847278473824 Eh   |
          | GRADIENT NORM               0.000040923568 Eh/α |
          | HOMO-LUMO GAP               5.028364000105 eV   |
           -------------------------------------------------

------------------------------------------------------------------------
 * finished run on 2025/04/11 at 12:02:17.535     
------------------------------------------------------------------------
 total:
 * wall-time:     0 d,  0 h,  0 min,  2.585 sec
 *  cpu-time:     0 d,  0 h,  0 min,  2.408 sec
 * ratio c/w:     0.932 speedup
 SCF:
 * wall-time:     0 d,  0 h,  0 min,  0.026 sec
 *  cpu-time:     0 d,  0 h,  0 min,  0.013 sec
 * ratio c/w:     0.511 speedup
 analytical hessian:
 * wall-time:     0 d,  0 h,  0 min,  0.800 sec
 *  cpu-time:     0 d,  0 h,  0 min,  0.790 sec
 * ratio c/w:     0.987 speedup

