17
 energy: -23.953557668330 gnorm: 0.029942355443 xtb: 6.7.1 (edcfbbe)
C           -3.11210522144430        0.75419213713146        0.02858494392879
C           -1.59120983983837        0.88831309480655        0.06137596786714
C           -0.94674320416068       -0.49196192698879       -0.01228013564267
C            0.55167331740156       -0.57177766712503        0.06159779976424
O            1.16463320382124       -1.62410341129386        0.18784630505565
O            1.16447658872839        0.62183102370606       -0.03893669276415
C            2.61053341319612        0.58133839933026        0.00917061553407
H           -3.45907057627408        0.14093552656111        0.86425028942397
H           -3.60167370901681        1.72659287497037        0.09383498670633
H           -3.43293507155327        0.27104194697189       -0.89795262882354
H           -1.28204807725011        1.39080422685210        0.98233085604891
H           -1.25470203738347        1.50582612085952       -0.77577079706726
H           -1.22722053434326       -0.99010265153850       -0.94914875821814
H           -1.32507568918093       -1.12945951058867        0.79418153744604
H            2.93921948434516        0.31380151314876        1.01845185564239
H            2.94069924260818        1.59102818235309       -0.24575601594771
H            2.99704712112368       -0.14225741541743       -0.71741595857501
17
 energy: -23.954509917483 gnorm: 0.010239095688 xtb: 6.7.1 (edcfbbe)
C           -3.09971960142124        0.75825009184007        0.02772127254704
C           -1.57964632815234        0.87901335989444        0.06213536453276
C           -0.95016859221355       -0.50779049565915       -0.01119600347175
C            0.54883796637628       -0.57407112998178        0.06269722832636
O            1.16343532320419       -1.61558487603178        0.18675844052408
O            1.15702348509821        0.61021532048751       -0.03783887018200
C            2.59438706348706        0.59393618217242        0.00816315608850
H           -3.45367808304990        0.15510789371124        0.86259131379826
H           -3.56791188974568        1.73745885549177        0.09139642542480
H           -3.42484745191201        0.28244116148086       -0.89619074677606
H           -1.26884166655855        1.37710259905694        0.98256058378784
H           -1.23643082772744        1.48947244861907       -0.77490539319227
H           -1.23205004728406       -0.99858896788911       -0.94877347711605
H           -1.33118261229371       -1.14260055651430        0.79407903651506
H            2.92546308598266        0.31992666840206        1.01026706580729
H            2.91139097407063        1.60284536857750       -0.24498706899899
H            2.97943761291849       -0.13109145991885       -0.71011415723585
17
 energy: -23.954783421895 gnorm: 0.004575128168 xtb: 6.7.1 (edcfbbe)
C           -3.09069879668772        0.77013719566333        0.02682525952692
C           -1.56908798135341        0.86615722472492        0.06309022996302
C           -0.95186692571227       -0.52690963182939       -0.01059025009599
C            0.54856738997048       -0.58448232446683        0.06186165740495
O            1.17055339560093       -1.61964887153892        0.18785130185205
O            1.14418173589510        0.59743276227801       -0.03724351174208
C            2.57511852022851        0.60622409772857        0.00738329199372
H           -3.45315893526651        0.17580435461800        0.86171478841250
H           -3.53834137196345        1.75805727659286        0.08845238072496
H           -3.42040869825602        0.29973450333734       -0.89568641464469
H           -1.25268640384326        1.35892407849326        0.98317827165704
H           -1.21553423343365        1.46949140420983       -0.77345478095209
H           -1.23549438551263       -1.01239025032762       -0.94844773204842
H           -1.33322585575604       -1.15875764358215        0.79501072438796
H            2.91354059578991        0.33244851869917        1.00600481939820
H            2.87375132498769        1.61815565928635       -0.24359463253268
H            2.97028903609138       -0.11433589014780       -0.70799123292632
17
 energy: -23.954873575925 gnorm: 0.002507016589 xtb: 6.7.1 (edcfbbe)
C           -3.08507221655534        0.77776912217699        0.02612149769640
C           -1.56242097957346        0.85887573126962        0.06365602398455
C           -0.95374226222294       -0.53875028016186       -0.01032830460153
C            0.54774335798202       -0.59360316866069        0.06334518979554
O            1.17452976397299       -1.62751163244572        0.18862108782748
O            1.13499871639209        0.58970108141861       -0.03641604130128
C            2.56392968035403        0.61356039589041        0.00672332564043
H           -3.45457022989719        0.18912476535524        0.86187812274716
H           -3.52048145592185        1.77123833845951        0.08609362090304
H           -3.41903774278384        0.31019909989703       -0.89619555274666
H           -1.24223503420678        1.34814190611515        0.98427700799371
H           -1.20231433596739        1.45892427498245       -0.77244200705449
H           -1.23815491333762       -1.02202711773261       -0.94864824656046
H           -1.33586654196089       -1.16927697217019        0.79537989379396
H            2.90837237950275        0.34219389210005        1.00473264732231
H            2.85088690581805        1.62914183859372       -0.24271509817197
H            2.96893331918440       -0.10165881134880       -0.70971899688916
17
 energy: -23.954916233949 gnorm: 0.001746965738 xtb: 6.7.1 (edcfbbe)
C           -3.08139749192462        0.78334531046288        0.02571903766572
C           -1.55838269552793        0.85383817339053        0.06403203629708
C           -0.95507160300193       -0.54643185090042       -0.00991995111585
C            0.54718280905299       -0.60145810456961        0.06247844322631
O            1.17624142213646       -1.63493437704078        0.18916659756749
O            1.12932375865709        0.58433396753670       -0.03658871393778
C            2.55781168286128        0.61840175556145        0.00661810602915
H           -3.45619338014079        0.19887330110078        0.86245880226079
H           -3.50934146453888        1.78023679265992        0.08376438339946
H           -3.41853239799337        0.31678801279938       -0.89639747352491
H           -1.23546464605569        1.34105034985032        0.98501404706913
H           -1.19431274079132        1.45206343748790       -0.77181662061010
H           -1.24088794752908       -1.02950404132114       -0.94796671969712
H           -1.33794140164912       -1.17574781892032        0.79639874500752
H            2.90560197753149        0.34915792717574        1.00475660775518
H            2.83667536742435        1.63730309064197       -0.24112762276410
H            2.97018716226811       -0.09127346217639       -0.71222553424895
17
 energy: -23.954941525656 gnorm: 0.001455067468 xtb: 6.7.1 (edcfbbe)
C           -3.07712547974572        0.78896862604115        0.02499341710303
C           -1.55414504860493        0.84840783655127        0.06467678435770
C           -0.95663262842508       -0.55427606620729       -0.00911583167442
C            0.54609887337587       -0.60962893604398        0.06399917360188
O            1.17707499613612       -1.64239035269718        0.18781994361200
O            1.12372338151214        0.57913694716794       -0.03642229695483
C            2.55212218015751        0.62347152057141        0.00622819804911
H           -3.45807667572202        0.20930892720083        0.86267142616644
H           -3.49718417639150        1.78942039506191        0.08039637668550
H           -3.41744249239713        0.32320960320882       -0.89678707761798
H           -1.22870317415938        1.33318939350031        0.98628757485519
H           -1.18555230619815        1.44511581765153       -0.77045873402809
H           -1.24372264747322       -1.03761550379008       -0.94692478259014
H           -1.34068934357406       -1.18264397370028        0.79756998627282
H            2.90246064585527        0.35616583584959        1.00420926351190
H            2.82238492648934        1.64588503622924       -0.23924833165349
H            2.97090737994399       -0.07968264285629       -0.71553091931758
17
 energy: -23.954949575713 gnorm: 0.000818118970 xtb: 6.7.1 (edcfbbe)
C           -3.07469864679105        0.79182555480859        0.02450759825495
C           -1.55179929087129        0.84531384299506        0.06522890553424
C           -0.95742605961727       -0.55856105518079       -0.00809034015073
C            0.54554161305796       -0.61355686329733        0.06070739364038
O            1.17807446774450       -1.64450800945547        0.18650817236611
O            1.12075167534310        0.57695010233751       -0.03741172814225
C            2.54889475843914        0.62625449214125        0.00644015126401
H           -3.45894938217701        0.21516266998006        0.86256752186352
H           -3.49013969247704        1.79429161757622        0.07804738286278
H           -3.41622731967811        0.32648305259405       -0.89692566223182
H           -1.22500942641196        1.32918467298115        0.98682428807593
H           -1.18070065163274        1.44066169221351       -0.76973324915739
H           -1.24640311635841       -1.04300583324690       -0.94471401817777
H           -1.34073093515323       -1.18564343286189        0.80005861659946
H            2.89939854515214        0.35834619488600        1.00384273688021
H            2.81482557858984        1.65022954673803       -0.23676818259246
H            2.97009629362045       -0.07338578147013       -0.71672541651013
17
 energy: -23.954953396396 gnorm: 0.000441724023 xtb: 6.7.1 (edcfbbe)
C           -3.07332122539775        0.79358138531342        0.02363925766412
C           -1.55043994725889        0.84321411667865        0.06586226170949
C           -0.95780124964094       -0.56131465085030       -0.00703726549951
C            0.54506770069371       -0.61518041459788        0.06192185067214
O            1.17953868108759       -1.64504212893522        0.18367610037718
O            1.11873119747952        0.57618546249559       -0.03675320205632
C            2.54675487310089        0.62789548172147        0.00608768903934
H           -3.45987131786365        0.21865743436404        0.86159005030364
H           -3.48567410058971        1.79732453953372        0.07622417661423
H           -3.41508800882944        0.32892120133729       -0.89786324002050
H           -1.22351629313303        1.32622297388380        0.98778635193176
H           -1.17714845733345        1.43789825210636       -0.76854707177048
H           -1.24762922791189       -1.04614098174628       -0.94318416824019
H           -1.34055596764516       -1.18784690267809        0.80173731505867
H            2.89780815993110        0.35875382285506        1.00275075631502
H            2.81014522691473        1.65271836262595       -0.23534799105611
H            2.96849836717539       -0.06980549036866       -0.71817870066346
17
 energy: -23.954954668035 gnorm: 0.000207863890 xtb: 6.7.1 (edcfbbe)
C           -3.07260334478328        0.79456723139266        0.02281922379336
C           -1.54968032732762        0.84213172421579        0.06638713222997
C           -0.95804784301456       -0.56294381475374       -0.00592852780271
C            0.54484384329860       -0.61621378285603        0.06140256539184
O            1.18067832137823       -1.64557561011163        0.18129023148053
O            1.11747421612304        0.57585326185114       -0.03604717989044
C            2.54550522732635        0.62883168752081        0.00601084222595
H           -3.46094688797707        0.22050079114130        0.86054250453556
H           -3.48313439677660        1.79906738985801        0.07489874820837
H           -3.41432963556811        0.33048900399251       -0.89900812884947
H           -1.22296479538148        1.32483762915738        0.98855893466205
H           -1.17496227802975        1.43627363240470       -0.76777758861970
H           -1.24909432339910       -1.04855569726023       -0.94127466028432
H           -1.33990287626178       -1.18863193915412        0.80392659944284
H            2.89742495295344        0.35809180693947        1.00204466397362
H            2.80759512898622        1.65443850708485       -0.23358302900290
H            2.96764342923248       -0.06711935768398       -0.71989816111555
17
 energy: -23.954955721000 gnorm: 0.000216572093 xtb: 6.7.1 (edcfbbe)
C           -3.07175555644225        0.79600121488486        0.02128712950329
C           -1.54882830052525        0.84070314837552        0.06726018394188
C           -0.95826978665646       -0.56496240084950       -0.00385161269700
C            0.54471052312095       -0.61762945915777        0.06054639061920
O            1.18189605947602       -1.64668353018055        0.17682937469396
O            1.11605078725115        0.57531255373775       -0.03429775321521
C            2.54398503353845        0.63007916614078        0.00595764439383
H           -3.46259980832361        0.22256409921121        0.85826329856928
H           -3.48022892215344        1.80136711042093        0.07289450916170
H           -3.41289805881448        0.33283406655515       -0.90123303375858
H           -1.22273070299107        1.32310580844137        0.98981246001395
H           -1.17194419388277        1.43405473166992       -0.76648100659990
H           -1.25143119883661       -1.05220650154459       -0.93766291632210
H           -1.33861865432025       -1.18905346025285        0.80795319804603
H            2.89775557836743        0.35631381000129        1.00058932089231
H            2.80429979757186        1.65694920829497       -0.23040410356056
H            2.96610581439935       -0.06270710200957       -0.72309891330305
17
 energy: -23.954956369393 gnorm: 0.000229808355 xtb: 6.7.1 (edcfbbe)
C           -3.07132179760527        0.79637563754603        0.02010319730488
C           -1.54846488277461        0.84038374641990        0.06781512257200
C           -0.95845519672721       -0.56559673897592       -0.00219878657027
C            0.54463882610811       -0.61814484100634        0.06002971884094
O            1.18212834107006       -1.64740073326846        0.17312769307580
O            1.11550203178312        0.57515813994615       -0.03249193858916
C            2.54340744283333        0.63052595747978        0.00597085552027
H           -3.46361586727535        0.22283625400420        0.85636104558954
H           -3.47912733856901        1.80200577561187        0.07170524336792
H           -3.41173813256040        0.33394370513357       -0.90308242587701
H           -1.22312652573827        1.32290196611951        0.99058464623642
H           -1.17034849576526        1.43326968410014       -0.76571084186841
H           -1.25303731907555       -1.05430515247528       -0.93479436255110
H           -1.33762461965799       -1.18845250054883        0.81113163199282
H            2.89881001092528        0.35427370021100        0.99934534184950
H            2.80286488106735        1.65820814132212       -0.22790135343381
H            2.96500705274071       -0.05994027788054       -0.72563061708132
17
 energy: -23.954957615243 gnorm: 0.000304648266 xtb: 6.7.1 (edcfbbe)
C           -3.07112244781847        0.79679986310868        0.01757625968157
C           -1.54837574364443        0.84022102487417        0.06876591961702
C           -0.95853393979213       -0.56590529944024        0.00145306244702
C            0.54484769483632       -0.61862768775405        0.05900442583645
O            1.18243060763916       -1.64872014459589        0.16446219040377
O            1.11522166117323        0.57518393347503       -0.02802457132579
C            2.54314817542382        0.63089751589283        0.00616399976660
H           -3.46548079361134        0.22223949694830        0.85215310032630
H           -3.47889268448739        1.80243975561666        0.06952243835141
H           -3.40948558162430        0.33559872875352       -0.90699697521711
H           -1.22487532020446        1.32356799989572        0.99174322726358
H           -1.16825237373961        1.43216445432509       -0.76450954175933
H           -1.25617437627418       -1.05801095551787       -0.92837704711198
H           -1.33515136224299       -1.18590957241173        0.81818358190950
H            2.90207210149219        0.34885090026224        0.99665644229517
H            2.80144339308859        1.66012487821367       -0.22234674337496
H            2.96267940056499       -0.05487242790722       -0.73106559873022
17
 energy: -23.954958461243 gnorm: 0.000270205389 xtb: 6.7.1 (edcfbbe)
C           -3.07132657541413        0.79623313806569        0.01601498130211
C           -1.54866952987847        0.84097550858395        0.06903800802394
C           -0.95856575153434       -0.56508483085346        0.00388742125197
C            0.54497866050074       -0.61814078546741        0.05835278442333
O            1.18216310987284       -1.64904427037049        0.15794267996287
O            1.11564112174006        0.57574109470169       -0.02446496585414
C            2.54372073565647        0.63054084077620        0.00650545983400
H           -3.46626878550255        0.22057549052817        0.84959781264753
H           -3.48009961012154        1.80146658079071        0.06832797514867
H           -3.40818324057769        0.33553500564497       -0.90937866315600
H           -1.22655412401919        1.32548875615675        0.99189652410984
H           -1.16793602020947        1.43228842913958       -0.76442646018738
H           -1.25814572968650       -1.05983165242936       -0.92391524667660
H           -1.33334545475925       -1.18301019698962        0.82306567362283
H            2.90497952022078        0.34410248257846        0.99485105141571
H            2.80211159560940        1.66052621074304       -0.21828189591099
H            2.96099848888185       -0.05231933785997       -0.73464896957869
17
 energy: -23.954958934687 gnorm: 0.000141007877 xtb: 6.7.1 (edcfbbe)
C           -3.07168277555175        0.79592238595710        0.01521448773924
C           -1.54902888623387        0.84141844360974        0.06880489737333
C           -0.95843341588012       -0.56443066666205        0.00539911716814
C            0.54516379081130       -0.61771575934374        0.05777778278925
O            1.18228302421055       -1.64901405808073        0.15302764428373
O            1.11606481102760        0.57627360703713       -0.02192625556042
C            2.54428127724962        0.63019920718639        0.00696469260451
H           -3.46643227828168        0.21993806035423        0.84862460652560
H           -3.48132996908142        1.80081353854001        0.06735320729311
H           -3.40778288146966        0.33489846350104       -0.91025590544069
H           -1.22747816793313        1.32710808499069        0.99121355044184
H           -1.16827963125642        1.43201247159177       -0.76515373049335
H           -1.25942558346077       -1.06110871068454       -0.92089368482057
H           -1.33196040624547       -1.18074266539320        0.82636531576929
H            2.90681833054759        0.34044815157475        0.99381792616311
H            2.80287770303034        1.66070796096678       -0.21506563164072
H            2.95984346929633       -0.05068605140646       -0.73690384981642
17
 energy: -23.954959311637 gnorm: 0.000093539329 xtb: 6.7.1 (edcfbbe)
C           -3.07193082678042        0.79549011201462        0.01517312987083
C           -1.54926007357170        0.84190676525486        0.06801758843378
C           -0.95837669408215       -0.56385552242970        0.00602120921084
C            0.54519930108446       -0.61725178624004        0.05715290169217
O            1.18234411661308       -1.64873203140518        0.14947812341666
O            1.11639025179762        0.57681489000970       -0.02027416845674
C            2.54472070359554        0.62987208213743        0.00761616782480
H           -3.46592059902760        0.22003296422548        0.84929921632485
H           -3.48218519916633        1.80017460604929        0.06655964189086
H           -3.40816640004892        0.33337978313682       -0.90969130208633
H           -1.22752426951809        1.32887953225876        0.98967185565607
H           -1.16917729609411        1.43166112743694       -0.76684413814995
H           -1.26024505155421       -1.06200175552689       -0.91918283857849
H           -1.33109424013881       -1.17895458847737        0.82827195842997
H            2.90779271721998        0.33776571785721        0.99353350116637
H            2.80378424852664        1.66062813398888       -0.21248445510857
H            2.95914772192405       -0.04976756655191       -0.73795422115811
17
 energy: -23.954959727539 gnorm: 0.000138854309 xtb: 6.7.1 (edcfbbe)
C           -3.07220542394696        0.79512297031269        0.01549852386744
C           -1.54947779288924        0.84234734877407        0.06672508513042
C           -0.95828770767645       -0.56333859964698        0.00639644602814
C            0.54525147156459       -0.61684196462503        0.05626455628931
O            1.18248947558521       -1.64851494896579        0.14552810074510
O            1.11669568170857        0.57735579287356       -0.01853149825433
C            2.54510578441423        0.62956792702760        0.00854633867673
H           -3.46503014137616        0.22100307933455        0.85108928465293
H           -3.48297014290648        1.79965495356421        0.06540025253307
H           -3.40912838352090        0.33109444226893       -0.90815115046108
H           -1.22699050008550        1.33095078597559        0.98724136934592
H           -1.17049334768702        1.43089651559536       -0.76949352637823
H           -1.26108584871529       -1.06314727074023       -0.91759396580523
H           -1.33020164150717       -1.17703191807276        0.83008079899239
H            2.90859391568699        0.33488670697326        0.99353968830511
H            2.80462818264031        1.66067249761809       -0.20932592055848
H            2.95860482949029       -0.04863585452821       -0.73885021273020
17
 energy: -23.954960133032 gnorm: 0.000142992215 xtb: 6.7.1 (edcfbbe)
C           -3.07229728847137        0.79499174875761        0.01594736989525
C           -1.54951250912767        0.84254477169537        0.06544277801160
C           -0.95827040725732       -0.56318445560669        0.00655369235505
C            0.54525892807816       -0.61672886511458        0.05538336006547
O            1.18260635441145       -1.64856915693792        0.14213218850813
O            1.11676528894363        0.57762386205937       -0.01712123203361
C            2.54519384743515        0.62950122008996        0.00945044203105
H           -3.46413384037300        0.22258854505362        0.85318338615732
H           -3.48315699269076        1.79956565196911        0.06412324099339
H           -3.41014033328885        0.32892454908021       -0.90635417376803
H           -1.22609033579895        1.33257980230095        0.98486597462514
H           -1.17153978697434        1.42990344712891       -0.77208005133783
H           -1.26186329906783       -1.06444811887553       -0.91638146057085
H           -1.32952355883901       -1.17563026666123        0.83148608589793
H            2.90907897960997        0.33267054805207        0.99367519004641
H            2.80489839936978        1.66098122846744       -0.20641883418819
H            2.95822496481999       -0.04727204771978       -0.73952378630922
17
 energy: -23.954960632599 gnorm: 0.000119631564 xtb: 6.7.1 (edcfbbe)
C           -3.07222836615683        0.79507824010674        0.01645688714931
C           -1.54937454290160        0.84253165228493        0.06401035036125
C           -0.95830574067537       -0.56333683220869        0.00671770825084
C            0.54525373104627       -0.61689959157303        0.05435483282503
O            1.18272965416475       -1.64892321534495        0.13835601846109
O            1.11662805677898        0.57766687691840       -0.01558561345520
C            2.54503069797327        0.62963692412274        0.01045390513627
H           -3.46318690788970        0.22493908123099        0.85565120305701
H           -3.48284840196942        1.79984118586734        0.06247922540886
H           -3.41127044090821        0.32666684973389       -0.90423306440931
H           -1.22475418266713        1.33404397224851        0.98222029855560
H           -1.17235668478843        1.42846958546166       -0.77495097665037
H           -1.26283131424833       -1.06619534189508       -0.91503282679025
H           -1.32882237517341       -1.17436780775001        0.83305402351656
H            2.90943531081540        0.33049911427231        0.99381303351852
H            2.80454315670866        1.66167747885987       -0.20305721219122
H            2.95785676067012       -0.04528570859671       -0.74034362236498
17
 energy: -23.954961306014 gnorm: 0.000101512515 xtb: 6.7.1 (edcfbbe)
C           -3.07198322324416        0.79537515629533        0.01714348434135
C           -1.54904313885952        0.84235386799190        0.06185746464277
C           -0.95842066351480       -0.56380324063006        0.00709029992215
C            0.54523194075914       -0.61737886041616        0.05273372143664
O            1.18289807652971       -1.64967659231736        0.13233999083242
O            1.11625267489292        0.57754597692732       -0.01318186782169
C            2.54461923952970        0.63000654501838        0.01199345715398
H           -3.46174587949295        0.22870480753157        0.85924194316544
H           -3.48202634641160        1.80052671327634        0.05995220758693
H           -3.41284842843650        0.32353174703877       -0.90114037015034
H           -1.22262230615033        1.33614845032782        0.97820270546427
H           -1.17333281121265        1.42602058532961       -0.77928737380974
H           -1.26450458399908       -1.06920507162148       -0.91274075582116
H           -1.32769720487046       -1.17254934212432        0.83570327380489
H            2.90995806739210        0.32726207153896        0.99392650086837
H            2.80354630861876        1.66298610602682       -0.19773552293059
H            2.95721668924875       -0.04180645645454       -0.74173498830668
17
 energy: -23.954961927203 gnorm: 0.000123528417 xtb: 6.7.1 (edcfbbe)
C           -3.07166548977272        0.79575193993555        0.01798010872963
C           -1.54859923502225        0.84212596512141        0.05896182278472
C           -0.95856377636344       -0.56438378244883        0.00771278584102
C            0.54521874265600       -0.61800485809662        0.05060064697934
O            1.18310479482545       -1.65063899764094        0.12425540588376
O            1.11577378494603        0.57736751534162       -0.00992674266321
C            2.54411346558507        0.63047016005909        0.01401438655448
H           -3.45986252658191        0.23339444449205        0.86369503369032
H           -3.48101188229903        1.80133965701371        0.05688918467031
H           -3.41496525603790        0.31971926592061       -0.89724905708458
H           -1.21976435942301        1.33897020927719        0.97279508688006
H           -1.17454667298537        1.42268440840075       -0.78510420486910
H           -1.26681273518286       -1.07325191201586       -0.90945796874318
H           -1.32611817187560       -1.16996884227778        0.83945095436150
H            2.91066284421594        0.32283582982316        0.99398813111858
H            2.80217952159454        1.66473135993399       -0.19054294502023
H            2.95635536250011       -0.03709989910020       -0.74369845873441
17
 energy: -23.954962262968 gnorm: 0.000130697018 xtb: 6.7.1 (edcfbbe)
C           -3.07142977597274        0.79601824016583        0.01869147392809
C           -1.54829193325902        0.84199203172382        0.05638477320844
C           -0.95868067904886       -0.56480055009172        0.00829361322207
C            0.54520112043441       -0.61844640034258        0.04875691380718
O            1.18327635054726       -1.65133460122029        0.11719602382328
O            1.11541868662567        0.57727316476728       -0.00710268281096
C            2.54376107525856        0.63079972856484        0.01579277788254
H           -3.45805735084362        0.23703013778634        0.86734054376394
H           -3.48030109408216        1.80191970677798        0.05461682716797
H           -3.41676665998539        0.31663508662724       -0.89401841189350
H           -1.21745460561578        1.34167078071123        0.96793639366937
H           -1.17585630391282        1.41980374103224       -0.79028200184337
H           -1.26881866038525       -1.07681140243107       -0.90646289476732
H           -1.32466355487068       -1.16752735927505        0.84283084172671
H            2.91135681547433        0.31881904935292        0.99400153872825
H            2.80123338809407        1.66608351625955       -0.18424433936340
H            2.95557159232106       -0.03308240666965       -0.74536721987027
17
 energy: -23.954962311030 gnorm: 0.000040858821 xtb: 6.7.1 (edcfbbe)
C           -3.07148250471651        0.79595630233900        0.01880793967692
C           -1.54833253449260        0.84202918785509        0.05612299256666
C           -0.95865144019338       -0.56471166321527        0.00824741224300
C            0.54521421524189       -0.61836738422621        0.04871361799762
O            1.18327851018565       -1.65118316933197        0.11716484475103
O            1.11549780962970        0.57730635852504       -0.00720674905291
C            2.54384535020767        0.63073881792224        0.01587502535560