24
 energy: -314.376313274016 gnorm: 0.001231580679 xtb: 6.7.1 (edcfbbe)
C           -2.74623115093086       -0.68098963957916       -0.86023189024106
C           -2.06317147120043        0.47696806590377       -0.13049351175665
C           -1.23147761255570        0.02374688895607        1.08333776582155
C            0.27143021779170       -0.14925262030085        0.82707412134312
C            0.67727405751431       -1.02876016779428       -0.36510754752851
C            2.14891204540673       -0.66257808976166       -0.56880714746152
C            2.13477627443431        0.87095386472051       -0.45462917818620
C            1.02510852873266        1.18467368245821        0.58078976461398
H           -3.47064340139551       -1.17502313174797       -0.20307268729408
H           -3.28393109940051       -0.33200473333792       -1.74854574781674
H           -2.02386721660516       -1.43819277703367       -1.18107132502446
H           -1.42727203845136        1.03063487236494       -0.83300426800679
H           -2.83504525930739        1.18342673313051        0.19596331772662
H           -1.34201800773133        0.74714420645155        1.90124336680556
H           -1.64401586779316       -0.92197503783256        1.46041176048897
H            0.70077880456384       -0.61472481857947        1.72525958692549
H            0.50725515820550       -2.09555000399296       -0.18350266443814
H            0.11178612388152       -0.74176478900068       -1.26048266059835
H            2.75066768736393       -1.09743569760913        0.23925357732724
H            2.56029479378922       -1.01527442640935       -1.51987791559389
H            3.10856495579679        1.28223508051149       -0.17176520565557
H            1.87159913008091        1.30151862393408       -1.42750491268838
H            1.43901039831462        1.56941706821867        1.51849275971813
H            0.34125526075952        1.95060355173032        0.19920607698183
24
 energy: -314.376317613110 gnorm: 0.000417935378 xtb: 6.7.1 (edcfbbe)
C           -2.74711480806567       -0.68175127881343       -0.85965855797370
C           -2.06354719348035        0.47543032177357       -0.13053722137341
C           -1.23194217397473        0.02381132862139        1.08418144541156
C            0.27064468932481       -0.14888516772132        0.82712300361199
C            0.67749866251451       -1.02783896549320       -0.36540068427295
C            2.14929189417473       -0.66259914785905       -0.56941172353097
C            2.13660161579068        0.87108420274924       -0.45348873829936
C            1.02538729132393        1.18530499728091        0.58063841645851
H           -3.47199572786898       -1.17583374403400       -0.20303249169497
H           -3.28515097857839       -0.33201299371901       -1.74753420046542
H           -2.02592598999295       -1.43959509842313       -1.18187579450742
H           -1.42698814755933        1.02821760106789       -0.83352777391507
H           -2.83469280320577        1.18312305337938        0.19549129740556
H           -1.34309001631834        0.74835397222834        1.90115425009737
H           -1.64441992175460       -0.92136854469483        1.46279578371005
H            0.70119831465607       -0.61418393495828        1.72475740669059
H            0.50664235850500       -2.09467547677118       -0.18439184689127
H            0.11197705391621       -0.74041548473096       -1.26074708352161
H            2.75154107880262       -1.09928559346635        0.23755730866475
H            2.56011366496814       -1.01404743321518       -1.52144287344185
H            3.11046370020954        1.28098540713924       -0.16922001321456
H            1.87479143515134        1.30274228873040       -1.42619871070286
H            1.43770390630401        1.57069398448646        1.51868422156835
H            0.34205235676642        1.95054276716792        0.19702005077710
24
 energy: -314.376317613110 gnorm: 0.000417935378 xtb: 6.7.1 (edcfbbe)
C           -2.74711480806567       -0.68175127881343       -0.85965855797370
C           -2.06354719348035        0.47543032177357       -0.13053722137341
C           -1.23194217397473        0.02381132862139        1.08418144541156
C            0.27064468932481       -0.14888516772132        0.82712300361199
C            0.67749866251451       -1.02783896549320       -0.36540068427295
C            2.14929189417473       -0.66259914785905       -0.56941172353097
C            2.13660161579068        0.87108420274924       -0.45348873829936
C            1.02538729132393        1.18530499728091        0.58063841645851
H           -3.47199572786898       -1.17583374403400       -0.20303249169497
H           -3.28515097857839       -0.33201299371901       -1.74753420046542
H           -2.02592598999295       -1.43959509842313       -1.18187579450742
H           -1.42698814755933        1.02821760106789       -0.83352777391507
H           -2.83469280320577        1.18312305337938        0.19549129740556
H           -1.34309001631834        0.74835397222834        1.90115425009737
H           -1.64441992175460       -0.92136854469483        1.46279578371005
H            0.70119831465607       -0.61418393495828        1.72475740669059
H            0.50664235850500       -2.09467547677118       -0.18439184689127
H            0.11197705391621       -0.74041548473096       -1.26074708352161
H            2.75154107880262       -1.09928559346635        0.23755730866475
H            2.56011366496814       -1.01404743321518       -1.52144287344185
H            3.11046370020954        1.28098540713924       -0.16922001321456
H            1.87479143515134        1.30274228873040       -1.42619871070286
H            1.43770390630401        1.57069398448646        1.51868422156835
H            0.34205235676642        1.95054276716792        0.19702005077710
