
                                 *****************
                                 * O   R   C   A *
                                 *****************

                                            #,                                       
                                            ###                                      
                                            ####                                     
                                            #####                                    
                                            ######                                   
                                           ########,                                 
                                     ,,################,,,,,                         
                               ,,#################################,,                 
                          ,,##########################################,,             
                       ,#########################################, ''#####,          
                    ,#############################################,,   '####,        
                  ,##################################################,,,,####,       
                ,###########''''           ''''###############################       
              ,#####''   ,,,,##########,,,,          '''####'''          '####       
            ,##' ,,,,###########################,,,                        '##       
           ' ,,###''''                  '''############,,,                           
         ,,##''                                '''############,,,,        ,,,,,,###''
      ,#''                                            '''#######################'''  
     '                                                          ''''####''''         
             ,#######,   #######,   ,#######,      ##                                
            ,#'     '#,  ##    ##  ,#'     '#,    #''#        ,####,   ,####,        
            ##       ##  ##   ,#'  ##            #'  '#       #'       #'  '#        
            ##       ##  #######   ##           ,######,      #####,   #    #        
            '#,     ,#'  ##    ##  '#,     ,#' ,#      #,     #,   #   #,  ,#        
             '#######'   ##     ##  '#######'  #'      '#     '####' # '####'        



                #########################################################
                #                        -***-                          #
                #          Department of theory and spectroscopy        #
                #                                                       #
                #                      Frank Neese                      #
                #                                                       #
                #     Directorship, Architecture, Infrastructure        #
                #                    SHARK, DRIVERS                     #
                #        Core code/Algorithms in most modules           #
                #                                                       #
                #        Max Planck Institute fuer Kohlenforschung      #
                #                Kaiser Wilhelm Platz 1                 #
                #                 D-45470 Muelheim/Ruhr                 #
                #                      Germany                          #
                #                                                       #
                #                  All rights reserved                  #
                #                        -***-                          #
                #########################################################


                         Program Version 6.0.0  -   RELEASE  -


 With contributions from (in alphabetic order):
   Daniel Aravena         : Magnetic Suceptibility
   Michael Atanasov       : Ab Initio Ligand Field Theory (pilot matlab implementation)
   Alexander A. Auer      : GIAO ZORA, VPT2 properties, NMR spectrum
   Ute Becker             : All parallelization in ORCA, NUMFREQ, NUMCALC
   Giovanni Bistoni       : ED, misc. LED, open-shell LED, HFLD
   Martin Brehm           : Molecular dynamics
   Dmytro Bykov           : pre 5.0 version of the SCF Hessian
   Marcos Casanova-Páez   : Triplet and SCS-CIS(D). UHF-(DLPNO)-IP/EA/STEOM-CCSD. UHF-CVS-IP/STEOM-CCSD
   Vijay G. Chilkuri      : MRCI spin determinant printing, contributions to CSF-ICE
   Pauline Colinet        : FMM embedding
   Dipayan Datta          : RHF DLPNO-CCSD density
   Achintya Kumar Dutta   : EOM-CC, STEOM-CC
   Nicolas Foglia         : Exact transition moments, OPA infrastructure, MCD improvements
   Dmitry Ganyushin       : Spin-Orbit,Spin-Spin,Magnetic field MRCI
   Miquel Garcia          : C-PCM and meta-GGA Hessian, CCSD/C-PCM, Gaussian charge scheme
   Tiago L. C. Gouveia    : GS-ROHF, GS-ROCIS
   Yang Guo               : DLPNO-NEVPT2, F12-NEVPT2, CIM, IAO-localization
   Andreas Hansen         : Spin unrestricted coupled pair/coupled cluster methods
   Ingolf Harden          : AUTO-CI MPn and infrastructure 
   Benjamin Helmich-Paris : MC-RPA, TRAH-(SCF,CASSCF), AVAS, COSX integrals, SCF dyn. polar.
   Lee Huntington         : MR-EOM, pCC
   Robert Izsak           : Overlap fitted RIJCOSX, COSX-SCS-MP3, EOM
   Riya Kayal             : Wick's Theorem for AUTO-CI, AUTO-CI UHF-CCSDT
   Emily Kempfer          : AUTO-CI, RHF CISDT and CCSDT
   Christian Kollmar      : KDIIS, OOCD, Brueckner-CCSD(T), CCSD density, CASPT2, CASPT2-K, improved NEVPT2
   Axel Koslowski         : Symmetry handling
   Simone Kossmann        : Meta GGA functionals, TD-DFT gradient, OOMP2, (MP2 Hessian; deprecated post 5.0)
   Lucas Lang             : DCDCAS
   Marvin Lechner         : AUTO-CI (C++ implementation), FIC-MRCC
   Spencer Leger          : CASSCF response
   Dagmar Lenk            : GEPOL surface, SMD, ORCA-2-JSON
   Dimitrios Liakos       : Extrapolation schemes; Compound Job, initial MDCI parallelization
   Dimitrios Manganas     : Further ROCIS development; embedding schemes. LFT, Crystal Embedding
   Dimitrios Pantazis     : SARC Basis sets
   Anastasios Papadopoulos: AUTO-CI, single reference methods and gradients
   Taras Petrenko         : pre 6.0 DFT Hessian and TD-DFT gradient, (ASA, deprecated), ECA, 1-Electron XAS/XES, NRVS
   Peter Pinski           : DLPNO-MP2, DLPNO-MP2 Gradient
   Christoph Reimann      : Effective Core Potentials
   Marius Retegan         : Local ZFS, SOC
   Christoph Riplinger    : Optimizer, TS searches, QM/MM, DLPNO-CCSD(T), (RO)-DLPNO pert. Triples
   Michael Roemelt        : Original ROCIS implementation
   Masaaki Saitow         : Open-shell DLPNO-CCSD energy and density
   Barbara Sandhoefer     : DKH picture change effects
   Kantharuban Sivalingam : CASSCF convergence/infrastructure, NEVPT2 and variants, FIC-MRCI
   Bernardo de Souza      : ESD, SOC TD-DFT
   Georgi Stoychev        : AutoAux, RI-MP2 NMR, DLPNO-MP2 response, X2C
   Van Anh Tran           : RI-MP2 g-tensors
   Willem Van den Heuvel  : Paramagnetic NMR
   Zikuan Wang            : NOTCH, Electric field optimization 
   Frank Wennmohs         : Technical directorship and infrastructure
   Hang Xu                : AUTO-CI-Response properties 


 We gratefully acknowledge several colleagues who have allowed us to
 interface, adapt or use parts of their codes:
   Stefan Grimme, W. Hujo, H. Kruse, P. Pracht,  : VdW corrections, initial TS optimization,
                  C. Bannwarth, S. Ehlert,         DFT functionals, gCP, sTDA/sTD-DF
                  L. Wittmann, M. Mueller
   Ed Valeev, F. Pavosevic, A. Kumar             : LibInt (2-el integral package), F12 methods
   Garnet Chan, S. Sharma, J. Yang, R. Olivares  : DMRG
   Ulf Ekstrom                                   : XCFun DFT Library
   Mihaly Kallay                                 : mrcc  (arbitrary order and MRCC methods)
   Frank Weinhold                                : gennbo (NPA and NBO analysis)
   Simon Mueller                                 : openCOSMO-RS
   Christopher J. Cramer and Donald G. Truhlar   : smd solvation model
   Lars Goerigk                                  : TD-DFT with DH, B97 family of functionals
   V. Asgeirsson, H. Jonsson                     : NEB implementation
   FAccTs GmbH                                   : IRC, NEB, NEB-TS, DLPNO-Multilevel, CI-OPT
                                                   MM, QMMM, 2- and 3-layer-ONIOM, Crystal-QMMM,
                                                   LR-CPCM, SF, NACMEs, symmetry and pop. for TD-DFT,
                                                   nearIR, NL-DFT gradient (VV10), updates on ESD,
                                                   ML-optimized integration grids, MBIS, APM,
                                                   GOAT, DOCKER, SOLVATOR, interface openCOSMO-RS
   S Lehtola, MJT Oliveira, MAL Marques          : LibXC Library
   Liviu Ungur et al                             : ANISO software


 Your calculation uses the libint2 library for the computation of 2-el integrals
 For citations please refer to: http://libint.valeyev.net

 Your ORCA version has been built with support for libXC version: 6.2.2
 For citations please refer to: https://libxc.gitlab.io

 This ORCA versions uses:
   CBLAS   interface :  Fast vector & matrix operations
   LAPACKE interface :  Fast linear algebra routines
   SCALAPACK package :  Parallel linear algebra routines
   Shared memory     :  Shared parallel matrices
   BLAS/LAPACK       :  OpenBLAS 0.3.27  USE64BITINT DYNAMIC_ARCH NO_AFFINITY SkylakeX SINGLE_THREADED
        Core in use  :  SkylakeX
   Copyright (c) 2011-2014, The OpenBLAS Project


Your calculation utilizes the geometrical counterpoise correction gCP
Please cite in your paper:
H.Kruse, S. Grimme J.Chem.Phys., 136, (2012), 154101 
   

Your calculation utilizes the atom-pairwise dispersion correction
based on EEQ partial charges (D4)


================================================================================

----- Orbital basis set information -----
Your calculation utilizes the basis: def2-mTZVPP
   Stefan Grimme, Andreas Hansen, Sebastian Ehlert, and Jan-Michael Mewes 
   J. Chem. Phys. 154, 064103 (2021). DOI: 10.1063/5.0040021

----- AuxJ basis set information -----
Your calculation utilizes the auxiliary basis: def2/J
   F. Weigend, Phys. Chem. Chem. Phys. 8, 1057 (2006).

================================================================================
                                        WARNINGS
                       Please study these warnings very carefully!
================================================================================

Using LibXC functional ID 497 : Re-regularized SCAN exchange by Furness et al
[ 1]  J. W. Furness, A. D. Kaplan, J. Ning, J. P. Perdew, and J. Sun.,  J. Phys. Chem. Lett. 11, 8208-8215 (2020)
[ 2]  J. W. Furness, A. D. Kaplan, J. Ning, J. P. Perdew, and J. Sun.,  J. Phys. Chem. Lett. 11, 9248-9248 (2020)
Using LibXC functional ID 498 : Re-regularized SCAN correlation by Furness et al
[ 1]  J. W. Furness, A. D. Kaplan, J. Ning, J. P. Perdew, and J. Sun.,  J. Phys. Chem. Lett. 11, 8208-8215 (2020)
[ 2]  J. W. Furness, A. D. Kaplan, J. Ning, J. P. Perdew, and J. Sun.,  J. Phys. Chem. Lett. 11, 9248-9248 (2020)
Using LibXC functional ID 497 : Re-regularized SCAN exchange by Furness et al
[ 1]  J. W. Furness, A. D. Kaplan, J. Ning, J. P. Perdew, and J. Sun.,  J. Phys. Chem. Lett. 11, 8208-8215 (2020)
[ 2]  J. W. Furness, A. D. Kaplan, J. Ning, J. P. Perdew, and J. Sun.,  J. Phys. Chem. Lett. 11, 9248-9248 (2020)
Using LibXC functional ID 498 : Re-regularized SCAN correlation by Furness et al
[ 1]  J. W. Furness, A. D. Kaplan, J. Ning, J. P. Perdew, and J. Sun.,  J. Phys. Chem. Lett. 11, 8208-8215 (2020)
[ 2]  J. W. Furness, A. D. Kaplan, J. Ning, J. P. Perdew, and J. Sun.,  J. Phys. Chem. Lett. 11, 9248-9248 (2020)

================================================================================
                                       INPUT FILE
================================================================================
NAME = sp_gas.inp
|  1> ! r2scan-3c def2/J RI DEFGRID2 scfconv6 printgap
|  2> %output
|  3>     printlevel normal
|  4> end
|  5> * xyz 0 1
|  6> C -1.6020636199 0.4533819478 1.2432158506
|  7> C -1.6537940068 -0.5769797618 0.1179501061
|  8> C -2.9786325153 -0.4924119679 -0.6350103101
|  9> C -0.497023879 -0.3672070101 -0.8641392037
| 10> O 0.7588536685 -0.6697420061 -0.2443036972
| 11> C 1.6224754165 0.310560471 -0.004578934
| 12> O 1.4334294736 1.470121953 -0.3091801869
| 13> C 2.8503003707 -0.2054390401 0.6857563397
| 14> H -0.6618273043 0.385428709 1.7868367905
| 15> H -2.4152946675 0.2884533777 1.944514132
| 16> H -1.6880072412 1.4602346086 0.8394324554
| 17> H -1.5445372333 -1.5775404062 0.5486440707
| 18> H -3.0293901651 -1.2495813273 -1.4127338648
| 19> H -3.0873498626 0.4863247935 -1.0960636513
| 20> H -3.8069178998 -0.6446338416 0.0509541431
| 21> H -0.5846576155 -1.0518226063 -1.7110415073
| 22> H -0.4739673425 0.6665644267 -1.2231071607
| 23> H 3.62999953 0.5482578185 0.6548423413
| 24> H 3.1771624064 -1.1246327341 0.2097972066
| 25> H 2.6015549534 -0.4281437404 1.7207623693
| 26> *
| 27> 
| 28>                          ****END OF INPUT****
================================================================================

                       ****************************
                       * Single Point Calculation *
                       ****************************

---------------------------------
CARTESIAN COORDINATES (ANGSTROEM)
---------------------------------
  C     -1.602064    0.453382    1.243216
  C     -1.653794   -0.576980    0.117950
  C     -2.978633   -0.492412   -0.635010
  C     -0.497024   -0.367207   -0.864139
  O      0.758854   -0.669742   -0.244304
  C      1.622475    0.310560   -0.004579
  O      1.433429    1.470122   -0.309180
  C      2.850300   -0.205439    0.685756
  H     -0.661827    0.385429    1.786837
  H     -2.415295    0.288453    1.944514
  H     -1.688007    1.460235    0.839432
  H     -1.544537   -1.577540    0.548644
  H     -3.029390   -1.249581   -1.412734
  H     -3.087350    0.486325   -1.096064
  H     -3.806918   -0.644634    0.050954
  H     -0.584658   -1.051823   -1.711042
  H     -0.473967    0.666564   -1.223107
  H      3.630000    0.548258    0.654842
  H      3.177162   -1.124633    0.209797
  H      2.601555   -0.428144    1.720762

----------------------------
CARTESIAN COORDINATES (A.U.)
----------------------------
  NO LB      ZA    FRAG     MASS         X           Y           Z
   0 C     6.0000    0    12.011   -3.027461    0.856768    2.349337
   1 C     6.0000    0    12.011   -3.125218   -1.090334    0.222893
   2 C     6.0000    0    12.011   -5.628800   -0.930524   -1.199996
   3 C     6.0000    0    12.011   -0.939239   -0.693921   -1.632986
   4 O     8.0000    0    15.999    1.434026   -1.265629   -0.461667
   5 C     6.0000    0    12.011    3.066034    0.586874   -0.008653
   6 O     8.0000    0    15.999    2.708789    2.778128   -0.584266
   7 C     6.0000    0    12.011    5.386287   -0.388224    1.295892
   8 H     1.0000    0     1.008   -1.250672    0.728355    3.376632
   9 H     1.0000    0     1.008   -4.564245    0.545098    3.674599
  10 H     1.0000    0     1.008   -3.189871    2.759444    1.586297
  11 H     1.0000    0     1.008   -2.918752   -2.981119    1.036787
  12 H     1.0000    0     1.008   -5.724718   -2.361366   -2.669680
  13 H     1.0000    0     1.008   -5.834246    0.919021   -2.071260
  14 H     1.0000    0     1.008   -7.194032   -1.218181    0.096289
  15 H     1.0000    0     1.008   -1.104843   -1.987657   -3.233400
  16 H     1.0000    0     1.008   -0.895668    1.259624   -2.311338
  17 H     1.0000    0     1.008    6.859705    1.036057    1.237473
  18 H     1.0000    0     1.008    6.003967   -2.125248    0.396459
  19 H     1.0000    0     1.008    4.916226   -0.809074    3.251770

--------------------------------
INTERNAL COORDINATES (ANGSTROEM)
--------------------------------
 C      0   0   0     0.000000000000     0.00000000     0.00000000
 C      1   0   0     1.526612027099     0.00000000     0.00000000
 C      2   1   0     1.526203844096   110.83442067     0.00000000
 C      2   1   3     1.531868515359   110.76560222   121.58573194
 O      4   2   1     1.432812581337   110.83202877    67.66201695
 C      5   4   2     1.328270842983   119.48114645   248.26287663
 O      6   5   4     1.213714596737   123.95449104   358.13101878
 C      6   5   4     1.500124129439   111.18360877   178.16282162
 H      1   2   3     1.088202967343   110.81527758   179.37444032
 H      1   2   3     1.086446247870   110.36339839    59.35189372
 H      1   2   3     1.088200173149   110.38323220   299.15189093
 H      2   1   3     1.094785794948   108.87372667   239.68288497
 H      3   2   1     1.086616632195   110.79629509   182.03262288
 H      3   2   1     1.087343226930   110.23431025    61.78490411
 H      3   2   1     1.086174667382   110.03649995   302.12678321
 H      4   2   1     1.092529952988   110.52326743   184.70863124
 H      4   2   1     1.094565202065   110.82369942   306.71331492
 H      8   6   5     1.084871148558   109.64328504   166.36245270
 H      8   6   5     1.085492023855   109.63067772    44.19057125
 H      8   6   5     1.087524320405   108.73507665   286.05114652

---------------------------
INTERNAL COORDINATES (A.U.)
---------------------------
 C      0   0   0     0.000000000000     0.00000000     0.00000000
 C      1   0   0     2.884878643968     0.00000000     0.00000000
 C      2   1   0     2.884107289879   110.83442067     0.00000000
 C      2   1   3     2.894811967206   110.76560222   121.58573194
 O      4   2   1     2.707623379964   110.83202877    67.66201695
 C      5   4   2     2.510068124910   119.48114645   248.26287663
 O      6   5   4     2.293588192576   123.95449104   358.13101878
 C      6   5   4     2.834823771527   111.18360877   178.16282162
 H      1   2   3     2.056405586399   110.81527758   179.37444032
 H      1   2   3     2.053085867700   110.36339839    59.35189372
 H      1   2   3     2.056400306137   110.38323220   299.15189093
 H      2   1   3     2.068845327760   108.87372667   239.68288497
 H      3   2   1     2.053407847412   110.79629509   182.03262288
 H      3   2   1     2.054780912473   110.23431025    61.78490411
 H      3   2   1     2.052572654956   110.03649995   302.12678321
 H      4   2   1     2.064582404253   110.52326743   184.70863124
 H      4   2   1     2.068428467623   110.82369942   306.71331492
 H      8   6   5     2.050109361367   109.64328504   166.36245270
 H      8   6   5     2.051282645642   109.63067772    44.19057125
 H      8   6   5     2.055123129544   108.73507665   286.05114652

---------------------
BASIS SET INFORMATION
---------------------
There are 3 groups of distinct atoms

 Group   1 Type C   : 11s6p1d contracted to 5s3p1d pattern {62111/411/1}
 Group   2 Type O   : 11s6p2d contracted to 5s3p2d pattern {62111/411/11}
 Group   3 Type H   : 4s1p contracted to 2s1p pattern {31/1}

Atom   0C    basis set group =>   1
Atom   1C    basis set group =>   1
Atom   2C    basis set group =>   1
Atom   3C    basis set group =>   1
Atom   4O    basis set group =>   2
Atom   5C    basis set group =>   1
Atom   6O    basis set group =>   2
Atom   7C    basis set group =>   1
Atom   8H    basis set group =>   3
Atom   9H    basis set group =>   3
Atom  10H    basis set group =>   3
Atom  11H    basis set group =>   3
Atom  12H    basis set group =>   3
Atom  13H    basis set group =>   3
Atom  14H    basis set group =>   3
Atom  15H    basis set group =>   3
Atom  16H    basis set group =>   3
Atom  17H    basis set group =>   3
Atom  18H    basis set group =>   3
Atom  19H    basis set group =>   3
---------------------------------
AUXILIARY/J BASIS SET INFORMATION
---------------------------------
There are 3 groups of distinct atoms

 Group   1 Type C   : 12s5p4d2f1g contracted to 6s4p3d1f1g pattern {711111/2111/211/2/1}
 Group   2 Type O   : 12s5p4d2f1g contracted to 6s4p3d1f1g pattern {711111/2111/211/2/1}
 Group   3 Type H   : 5s2p1d contracted to 3s1p1d pattern {311/2/1}

Atom   0C    basis set group =>   1
Atom   1C    basis set group =>   1
Atom   2C    basis set group =>   1
Atom   3C    basis set group =>   1
Atom   4O    basis set group =>   2
Atom   5C    basis set group =>   1
Atom   6O    basis set group =>   2
Atom   7C    basis set group =>   1
Atom   8H    basis set group =>   3
Atom   9H    basis set group =>   3
Atom  10H    basis set group =>   3
Atom  11H    basis set group =>   3
Atom  12H    basis set group =>   3
Atom  13H    basis set group =>   3
Atom  14H    basis set group =>   3
Atom  15H    basis set group =>   3
Atom  16H    basis set group =>   3
Atom  17H    basis set group =>   3
Atom  18H    basis set group =>   3
Atom  19H    basis set group =>   3

Checking for AutoStart:
The File: sp_gas.gbw exists
Trying to determine its content:
     ... Fine, the file contains calculation information
     ... Fine, the calculation information was read
     ... Fine, the file contains a basis set
     ... Fine, the basis set was read
     ... Fine, the file contains a geometry
     ... Fine, the geometry was read
     ... Fine, the file contains a set of orbitals
     ... Fine, the orbitals can be read
     => possible old guess file was deleted
     => GBW file was renamed to GES file
     => GES file is set as startup file
     => Guess is set to MORead
     ... now leaving AutoStart

------------------------------------------------------------------------------
                             ORCA STARTUP CALCULATIONS
                           -- RI-GTO INTEGRALS CHOSEN --
------------------------------------------------------------------------------
------------------------------------------------------------------------------
                   ___                                                        
                  /   \      - P O W E R E D   B Y -                         
                 /     \                                                     
                 |  |  |   _    _      __       _____    __    __             
                 |  |  |  | |  | |    /  \     |  _  \  |  |  /  |          
                  \  \/   | |  | |   /    \    | | | |  |  | /  /          
                 / \  \   | |__| |  /  /\  \   | |_| |  |  |/  /          
                |  |  |   |  __  | /  /__\  \  |    /   |      \           
                |  |  |   | |  | | |   __   |  |    \   |  |\   \          
                \     /   | |  | | |  |  |  |  | |\  \  |  | \   \       
                 \___/    |_|  |_| |__|  |__|  |_| \__\ |__|  \__/        
                                                                              
                      - O R C A' S   B I G   F R I E N D -                    
                                      &                                       
                       - I N T E G R A L  F E E D E R -                       
                                                                              
 v1 FN, 2020, v2 2021, v3 2022-2024                                           
------------------------------------------------------------------------------


----------------------
SHARK INTEGRAL PACKAGE
----------------------

Number of atoms                             ...     20
Number of basis functions                   ...    222
Number of shells                            ...    110
Maximum angular momentum                    ...      2
Integral batch strategy                     ... SHARK/LIBINT Hybrid
RI-J (if used) integral strategy            ... SPLIT-RIJ (Revised 2003 algorithm where possible)
Printlevel                                  ...      1
Contraction scheme used                     ... SEGMENTED contraction
Prescreening option                         ... SCHWARTZ
   Thresh                                   ... 1.000e-10
   Tcut                                     ... 1.000e-11
   Tpresel                                  ... 1.000e-11 
Coulomb Range Separation                    ... NOT USED
Exchange Range Separation                   ... NOT USED
Multipole approximations                    ... NOT USED
Finite Nucleus Model                        ... NOT USED
CABS basis                                  ... NOT available
Auxiliary Coulomb fitting basis             ... AVAILABLE
   # of basis functions in Aux-J            ...    524
   # of shells in Aux-J                     ...    180
   Maximum angular momentum in Aux-J        ...      4
Auxiliary J/K fitting basis                 ... NOT available
Auxiliary Correlation fitting basis         ... NOT available
Auxiliary 'external' fitting basis          ... NOT available

Checking pre-screening integrals            ... done (  0.0 sec) Dimension = 110
Check shell pair data                       ... done (  0.0 sec)
Shell pair information
Shell pair cut-off parameter TPreSel        ...   1.0e-11
Total number of shell pairs                 ...      6105
Shell pairs after pre-screening             ...      5389
Total number of primitive shell pairs       ...     21533
Primitive shell pairs kept                  ...     13453
          la=0 lb=0:   1809 shell pairs
          la=1 lb=0:   2033 shell pairs
          la=1 lb=1:    595 shell pairs
          la=2 lb=0:    573 shell pairs
          la=2 lb=1:    326 shell pairs
          la=2 lb=2:     53 shell pairs

Calculating one electron integrals          ... done (  0.0 sec)
Calculating RI/J V-Matrix + Cholesky decomp.... done (  0.1 sec)
Calculating Nuclear repulsion               ... done (  0.0 sec) ENN=    397.649578143837 Eh

Diagonalization of the overlap matrix:
Smallest eigenvalue                        ... 1.800e-04
Time for diagonalization                   ...    0.005 sec
Threshold for overlap eigenvalues          ... 1.000e-07
Number of eigenvalues below threshold      ... 0
Time for construction of square roots      ...    0.017 sec
Total time needed                          ...    0.031 sec

-------------------
DFT GRID GENERATION
-------------------

General Integration Accuracy     IntAcc      ... 4.388
Radial Grid Type                 RadialGrid  ... OptM3 with GC (2021)
Angular Grid (max. ang.)         AngularGrid ... 4 (Lebedev-302)
Angular grid pruning method      GridPruning ... 4 (adaptive)
Weight generation scheme         WeightScheme... mBecke (2022)
Basis function cutoff            BFCut       ... 1.0000e-10
Integration weight cutoff        WCut        ... 1.0000e-14
Partially contracted basis set               ... off
Rotationally invariant grid construction     ... off
Angular grids for H and He will be reduced by one unit
Diffuse basis detected: some atoms will have their outermost
                        angular grid increased by 1.

Total number of grid points                  ...    87297
Total number of batches                      ...     1375
Average number of points per batch           ...       63
Average number of grid points per atom       ...     4365
Initializing property integral containers    ... done (  0.0 sec)

SHARK setup successfully completed in   1.3 seconds

Maximum memory used throughout the entire STARTUP-calculation: 39.5 MB
-------------------------------------------------------------------------------
                                 ORCA GUESS
                   Start orbitals & Density for SCF / CASSCF
-------------------------------------------------------------------------------

------------
SCF SETTINGS
------------
Hamiltonian:
 Density Functional     Method          .... DFT(GTOs)
  Functional kind                       .... Exchange
  Functional name                       .... Re-regularized SCAN exchange by Furness et al
  Functional family                     .... MGGA
  Functional refs                              
    [ 0] J. W. Furness, A. D. Kaplan, J. Ning, J. P. Perdew, and J. Sun.,  J. Phys. Chem. Lett. 11, 8208-8215 (2020), doi: 10.1021/acs.jpclett.0c02405
    [ 1] J. W. Furness, A. D. Kaplan, J. Ning, J. P. Perdew, and J. Sun.,  J. Phys. Chem. Lett. 11, 9248-9248 (2020), doi: 10.1021/acs.jpclett.0c03077
  Functional external parameters        .... 6
    Parameter  0 _c1        =  6.670000e-01 : c1 parameter        
    Parameter  1 _c2        =  8.000000e-01 : c2 parameter        
    Parameter  2 _d         =  1.240000e+00 : d parameter         
    Parameter  3 _k1        =  6.500000e-02 : k1 parameter        
    Parameter  4 _eta       =  1.000000e-03 : eta parameter       
    Parameter  5 _dp2       =  3.610000e-01 : dp2 parameter       
  Functional kind                       .... Correlation
  Functional name                       .... Re-regularized SCAN correlation by Furness et al
  Functional family                     .... MGGA
  Functional refs                              
    [ 0] J. W. Furness, A. D. Kaplan, J. Ning, J. P. Perdew, and J. Sun.,  J. Phys. Chem. Lett. 11, 8208-8215 (2020), doi: 10.1021/acs.jpclett.0c02405
    [ 1] J. W. Furness, A. D. Kaplan, J. Ning, J. P. Perdew, and J. Sun.,  J. Phys. Chem. Lett. 11, 9248-9248 (2020), doi: 10.1021/acs.jpclett.0c03077
  Functional external parameters        .... 1
    Parameter  0 _eta       =  1.000000e-03 : Regularization parameter
 Gradients option       PostSCFGGA      .... off
 RI-approximation to the Coulomb term is turned on
   Number of AuxJ basis functions       .... 524


General Settings:
 Integral files         IntName         .... sp_gas
 Hartree-Fock type      HFTyp           .... RHF
 Total Charge           Charge          ....    0
 Multiplicity           Mult            ....    1
 Number of Electrons    NEL             ....   64
 Basis Dimension        Dim             ....  222
 Nuclear Repulsion      ENuc            ....    397.6495781438 Eh

Convergence Acceleration:
 AO-DIIS                CNVDIIS         .... on
   Start iteration      DIISMaxIt       ....    12
   Startup error        DIISStart       ....  0.200000
   # of expansion vecs  DIISMaxEq       ....     5
   Bias factor          DIISBfac        ....   1.050
   Max. coefficient     DIISMaxC        ....  10.000
 MO-DIIS                CNVKDIIS        .... off
 Trust-Rad. Augm. Hess. CNVTRAH         .... auto
   Auto Start mean grad. ratio tolernc. ....  1.125000
   Auto Start start iteration           ....     1
   Auto Start num. interpolation iter.  ....    10
   Max. Number of Micro iterations      ....    24
   Max. Number of Macro iterations      .... Maxiter - #DIIS iter
   Number of Davidson start vectors     ....     2
   Converg. threshold    (grad. norm)   ....   3.330e-04
   Grad. Scal. Fac. for Micro threshold ....   0.100
   Minimum threshold for Micro iter.    ....   1.000e-02
   NR start threshold (gradient norm)   ....   1.000e-04
   Initial trust radius                 ....   0.400
   Minimum AH scaling param. (alpha)    ....   1.000
   Maximum AH scaling param. (alpha)    .... 1000.000
   Quad. conv. algorithm                .... NR
   White noise on init. David. guess    .... on
   Maximum white noise                  ....   0.010
   Pseudo random numbers                .... off
   Inactive MOs                         .... canonical
   Orbital update algorithm             .... Taylor
   Preconditioner                       .... Diag
   Full preconditioner red. dimension   ....   250
   COSX micro iterations for RIJONX calc.... off
 SOSCF                  CNVSOSCF        .... on
   Start iteration      SOSCFMaxIt      ....   150
   Startup grad/error   SOSCFStart      ....  0.003300
   Hessian update       SOSCFHessUp     .... L-BFGS
 Level Shifting         CNVShift        .... on
   Level shift para.    LevelShift      ....    0.2500
   Turn off err/grad.   ShiftErr        ....    0.0010
 Zerner damping         CNVZerner       .... off
 Static damping         CNVDamp         .... on
   Fraction old density DampFac         ....    0.7000
   Max. Damping (<1)    DampMax         ....    0.9800
   Min. Damping (>=0)   DampMin         ....    0.0000
   Turn off err/grad.   DampErr         ....    0.1000

SCF Procedure:
 Maximum # iterations   MaxIter         ....   125
 SCF integral mode      SCFMode         .... Direct
   Integral package                     .... SHARK and LIBINT hybrid scheme
 Reset frequency        DirectResetFreq ....    20
 Integral Threshold     Thresh          ....  1.000e-10 Eh
 Primitive CutOff       TCut            ....  1.000e-11 Eh

Convergence Tolerance:
 Convergence Check Mode ConvCheckMode   .... Total+1el-Energy
 Convergence forced     ConvForced      .... 0
 Energy Change          TolE            ....  1.000e-06 Eh
 1-El. energy change                    ....  1.000e-03 Eh
 Orbital Gradient       TolG            ....  3.330e-04
 Orbital Rotation angle TolX            ....  3.330e-04
 DIIS Error             TolErr          ....  1.000e-06

---------------------
INITIAL GUESS: MOREAD
---------------------
Guess MOs are being read from file: sp_gas.ges
Input Geometry matches current geometry (good)
Atom 0: N(Shells)= 9 and 6 - projection required
Input basis set needs projection
NBasis(read)= 136
NBasis(calc)= 222
Basis set overlap was calculated
Using GuessMode=FMatrix for the initial guess
C*T matrix was formed
Effective Fockian was calculated
Effective Fockian was diagonalized
Initial density was built
                      ------------------
                      INITIAL GUESS DONE (   0.0 sec)
                      ------------------
             **** ENERGY FILE WAS UPDATED (sp_gas.en.tmp) ****
Finished Guess after   1.1 sec
Maximum memory used throughout the entire GUESS-calculation: 15.2 MB

-------------------------------------------------------------------------------------------
                                      ORCA LEAN-SCF
                              memory conserving SCF solver
-------------------------------------------------------------------------------------------

----------------------------------------D-I-I-S--------------------------------------------
Iteration    Energy (Eh)           Delta-E    RMSDP     MaxDP     DIISErr   Damp  Time(sec)
-------------------------------------------------------------------------------------------
               ***  Starting incremental Fock matrix formation  ***
    1    -386.0472774666476425     0.00e+00  3.99e-03  2.01e-01  6.26e-01  0.700   4.2
    2    -386.1059412365198114    -5.87e-02  3.23e-03  1.34e-01  4.40e-01  0.700   3.4
    3    -386.1474204182629819    -4.15e-02  2.36e-03  9.00e-02  3.08e-01  0.700   3.0
    4    -386.1765419270194570    -2.91e-02  1.68e-03  6.15e-02  2.16e-01  0.700   2.9
                               ***Turning on AO-DIIS***
    5    -386.1969681459602270    -2.04e-02  1.21e-03  4.14e-02  1.51e-01  0.700   2.8
    6    -386.2112861465899414    -1.43e-02  8.57e-04  2.84e-02  1.06e-01  0.700   3.1
    7    -386.2213227555507729    -1.00e-02  6.03e-04  1.96e-02  7.40e-02  0.700   2.7
    8    -386.2283545384334502    -7.03e-03  1.41e-03  4.53e-02  5.19e-02  0.000   2.6
                              *** Initializing SOSCF ***
---------------------------------------S-O-S-C-F--------------------------------------
Iteration    Energy (Eh)           Delta-E    RMSDP     MaxDP     MaxGrad    Time(sec)
--------------------------------------------------------------------------------------
    9    -386.2447831123298556    -1.64e-02  8.31e-06  2.68e-04  8.01e-05     2.7
                  *** Gradient check signals convergence ***

               *****************************************************
               *                     SUCCESS                       *
               *           SCF CONVERGED AFTER   9 CYCLES          *
               *****************************************************

             **** ENERGY FILE WAS UPDATED (sp_gas.en.tmp) ****

----------------
TOTAL SCF ENERGY
----------------

Total Energy       :       -386.24478311232986 Eh          -10510.25488 eV

Components:
Nuclear Repulsion  :        397.64957814383661 Eh           10820.59513 eV
Electronic Energy  :       -783.89436125616646 Eh          -21330.85001 eV
One Electron Energy:      -1312.39787081676673 Eh          -35712.16164 eV
Two Electron Energy:        528.50350956060026 Eh           14381.31163 eV

Virial components:
Potential Energy   :       -770.89036158138993 Eh          -20976.99319 eV
Kinetic Energy     :        384.64557846906013 Eh           10466.73831 eV
Virial Ratio       :          2.00415760568374

DFT components:
N(Alpha)           :       32.000035715861 electrons
N(Beta)            :       32.000035715861 electrons
N(Total)           :       64.000071431721 electrons
E(X)               :      -52.079562107017 Eh       
E(C)               :       -2.039060183607 Eh       
E(XC)              :      -54.118622290624 Eh       

---------------
SCF CONVERGENCE
---------------

  Last Energy change         ...    1.6429e-02  Tolerance :   1.0000e-06
  Last MAX-Density change    ...    2.6807e-04  Tolerance :   1.0000e-05
  Last RMS-Density change    ...    8.3140e-06  Tolerance :   1.0000e-06
  Last DIIS Error            ...    8.0123e-05  Tolerance :   1.0000e-06
  Last Orbital Gradient      ...    8.0123e-05  Tolerance :   3.3300e-04
  Last Orbital Rotation      ...    8.0123e-05  Tolerance :   3.3300e-04


----------------
ORBITAL ENERGIES
----------------

  NO   OCC          E(Eh)            E(eV) 
   0   2.0000     -18.996481      -516.9205 
   1   2.0000     -18.927979      -515.0565 
   2   2.0000     -10.156056      -276.3603 
   3   2.0000     -10.084876      -274.4234 
   4   2.0000     -10.044026      -273.3118 
   5   2.0000     -10.038949      -273.1737 
   6   2.0000     -10.025505      -272.8079 
   7   2.0000     -10.018734      -272.6236 
   8   2.0000      -1.071349       -29.1529 
   9   2.0000      -0.975998       -26.5583 
  10   2.0000      -0.783677       -21.3249 
  11   2.0000      -0.728258       -19.8169 
  12   2.0000      -0.662863       -18.0374 
  13   2.0000      -0.657178       -17.8827 
  14   2.0000      -0.554513       -15.0891 
  15   2.0000      -0.528567       -14.3830 
  16   2.0000      -0.467188       -12.7128 
  17   2.0000      -0.453422       -12.3382 
  18   2.0000      -0.441482       -12.0133 
  19   2.0000      -0.426701       -11.6111 
  20   2.0000      -0.408374       -11.1124 
  21   2.0000      -0.390870       -10.6361 
  22   2.0000      -0.379287       -10.3209 
  23   2.0000      -0.362747        -9.8709 
  24   2.0000      -0.355853        -9.6833 
  25   2.0000      -0.350931        -9.5493 
  26   2.0000      -0.323400        -8.8001 
  27   2.0000      -0.320442        -8.7197 
  28   2.0000      -0.310611        -8.4522 
  29   2.0000      -0.298633        -8.1262 
  30   2.0000      -0.265274        -7.2185 
  31   2.0000      -0.236839        -6.4447 
  32   0.0000      -0.013559        -0.3690 
  33   0.0000       0.074496         2.0271 
  34   0.0000       0.080383         2.1873 
  35   0.0000       0.115141         3.1332 
  36   0.0000       0.125581         3.4172 
  37   0.0000       0.129075         3.5123 
  38   0.0000       0.134009         3.6466 
  39   0.0000       0.136817         3.7230 
  40   0.0000       0.149718         4.0740 
  41   0.0000       0.153732         4.1833 
  42   0.0000       0.159138         4.3304 
*Only the first 10 virtual orbitals were printed.

                    ********************************
                    * MULLIKEN POPULATION ANALYSIS *
                    ********************************

-----------------------
MULLIKEN ATOMIC CHARGES
-----------------------
   0 C :   -0.491255
   1 C :   -0.007950
   2 C :   -0.482489
   3 C :   -0.238131
   4 O :   -0.160879
   5 C :    0.433916
   6 O :   -0.436403
   7 C :   -0.520842
   8 H :    0.148072
   9 H :    0.147498
  10 H :    0.160258
  11 H :    0.148093
  12 H :    0.145525
  13 H :    0.151888
  14 H :    0.151135
  15 H :    0.146101
  16 H :    0.192413
  17 H :    0.177086
  18 H :    0.166723
  19 H :    0.169239
Sum of atomic charges:    0.0000000

--------------------------------
MULLIKEN REDUCED ORBITAL CHARGES
--------------------------------
  0 C s       :     3.328074  s :     3.328074
      pz      :     1.023092  p :     3.136375
      px      :     1.100636
      py      :     1.012647
      dz2     :     0.003198  d :     0.026807
      dxz     :     0.008283
      dyz     :     0.006265
      dx2y2   :     0.007817
      dxy     :     0.001243

  1 C s       :     3.060571  s :     3.060571
      pz      :     0.926934  p :     2.901673
      px      :     0.924990
      py      :     1.049749
      dz2     :     0.006308  d :     0.045705
      dxz     :     0.012864
      dyz     :     0.010179
      dx2y2   :     0.011269
      dxy     :     0.005085

  2 C s       :     3.325622  s :     3.325622
      pz      :     1.060312  p :     3.130014
      px      :     0.985596
      py      :     1.084106
      dz2     :     0.002135  d :     0.026853
      dxz     :     0.007554
      dyz     :     0.007102
      dx2y2   :     0.007749
      dxy     :     0.002312

  3 C s       :     3.341559  s :     3.341559
      pz      :     0.976078  p :     2.843383
      px      :     0.746241
      py      :     1.121063
      dz2     :     0.007691  d :     0.053190
      dxz     :     0.014641
      dyz     :     0.009157
      dx2y2   :     0.014730
      dxy     :     0.006971

  4 O s       :     3.694447  s :     3.694447
      pz      :     1.647806  p :     4.443275
      px      :     1.213178
      py      :     1.582291
      dz2     :     0.006264  d :     0.023156
      dxz     :     0.004016
      dyz     :     0.005238
      dx2y2   :     0.007495
      dxy     :     0.000143

  5 C s       :     3.119526  s :     3.119526
      pz      :     0.783523  p :     2.321176
      px      :     0.775391
      py      :     0.762262
      dz2     :     0.010829  d :     0.125382
      dxz     :     0.010121
      dyz     :     0.028610
      dx2y2   :     0.029665
      dxy     :     0.046156

  6 O s       :     3.842231  s :     3.842231
      pz      :     1.490667  p :     4.573030
      px      :     1.742525
      py      :     1.339838
      dz2     :     0.004242  d :     0.021142
      dxz     :     0.000093
      dyz     :     0.006207
      dx2y2   :     0.007645
      dxy     :     0.002956

  7 C s       :     3.338652  s :     3.338652
      pz      :     1.071701  p :     3.157568
      px      :     0.985598
      py      :     1.100269
      dz2     :     0.005213  d :     0.024623
      dxz     :     0.004936
      dyz     :     0.003340
      dx2y2   :     0.004347
      dxy     :     0.006787

  8 H s       :     0.833583  s :     0.833583
      pz      :     0.005508  p :     0.018345
      px      :     0.009159
      py      :     0.003679

  9 H s       :     0.834194  s :     0.834194
      pz      :     0.006823  p :     0.018307
      px      :     0.007716
      py      :     0.003769

 10 H s       :     0.821614  s :     0.821614
      pz      :     0.004403  p :     0.018128
      px      :     0.003677
      py      :     0.010048

 11 H s       :     0.834418  s :     0.834418
      pz      :     0.004486  p :     0.017490
      px      :     0.003282
      py      :     0.009721

 12 H s       :     0.836170  s :     0.836170
      pz      :     0.007526  p :     0.018305
      px      :     0.003631
      py      :     0.007148

 13 H s       :     0.829866  s :     0.829866
      pz      :     0.005000  p :     0.018246
      px      :     0.003686
      py      :     0.009559

 14 H s       :     0.830503  s :     0.830503
      pz      :     0.006438  p :     0.018362
      px      :     0.008071
      py      :     0.003854

 15 H s       :     0.836394  s :     0.836394
      pz      :     0.008555  p :     0.017505
      px      :     0.002534
      py      :     0.006416

 16 H s       :     0.789248  s :     0.789248
      pz      :     0.003994  p :     0.018340
      px      :     0.002674
      py      :     0.011672

 17 H s       :     0.804897  s :     0.804897
      pz      :     0.003449  p :     0.018017
      px      :     0.007379
      py      :     0.007189

 18 H s       :     0.814827  s :     0.814827
      pz      :     0.005083  p :     0.018450
      px      :     0.004187
      py      :     0.009180

 19 H s       :     0.812119  s :     0.812119
      pz      :     0.010506  p :     0.018643
      px      :     0.003958
      py      :     0.004179


------------------------
MULLIKEN OVERLAP CHARGES
------------------------
B(  0-C ,  1-C ) :   0.4714 B(  0-C ,  2-C ) :  -0.2351 B(  0-C ,  3-C ) :  -0.1887 
B(  0-C ,  8-H ) :   0.7796 B(  0-C ,  9-H ) :   0.8099 B(  0-C , 10-H ) :   0.8425 
B(  0-C , 11-H ) :  -0.0704 B(  1-C ,  2-C ) :   0.5658 B(  1-C ,  3-C ) :   0.4307 
B(  1-C ,  8-H ) :  -0.0513 B(  1-C ,  9-H ) :  -0.0896 B(  1-C , 10-H ) :  -0.0851 
B(  1-C , 11-H ) :   0.8550 B(  1-C , 12-H ) :  -0.0800 B(  1-C , 13-H ) :  -0.0873 
B(  1-C , 14-H ) :  -0.0850 B(  1-C , 15-H ) :  -0.0620 B(  1-C , 16-H ) :  -0.0865 
B(  2-C ,  3-C ) :  -0.2002 B(  2-C , 12-H ) :   0.8040 B(  2-C , 13-H ) :   0.8607 
B(  2-C , 14-H ) :   0.8058 B(  3-C ,  4-O ) :   0.2674 B(  3-C ,  5-C ) :  -0.2521 
B(  3-C , 11-H ) :  -0.0668 B(  3-C , 15-H ) :   0.7665 B(  3-C , 16-H ) :   0.8824 
B(  4-O ,  5-C ) :   0.3031 B(  4-O ,  6-O ) :  -0.2205 B(  4-O ,  7-C ) :  -0.0837 
B(  4-O , 15-H ) :  -0.0806 B(  4-O , 16-H ) :  -0.0680 B(  5-C ,  6-O ) :   1.0014 
B(  5-C ,  7-C ) :   0.5608 B(  5-C , 16-H ) :  -0.0604 B(  5-C , 17-H ) :  -0.1191 
B(  5-C , 18-H ) :  -0.0665 B(  6-O ,  7-C ) :  -0.1313 B(  7-C , 17-H ) :   0.8796 
B(  7-C , 18-H ) :   0.8051 B(  7-C , 19-H ) :   0.7626 


                     *******************************
                     * LOEWDIN POPULATION ANALYSIS *
                     *******************************

----------------------
LOEWDIN ATOMIC CHARGES
----------------------
   0 C :   -0.406076
   1 C :   -0.219877
   2 C :   -0.410142
   3 C :    0.040248
   4 O :   -0.599192
   5 C :    0.352923
   6 O :   -0.439489
   7 C :   -0.335160
   8 H :    0.159630
   9 H :    0.153455
  10 H :    0.160217
  11 H :    0.162095
  12 H :    0.154177
  13 H :    0.156912
  14 H :    0.157446
  15 H :    0.181327
  16 H :    0.200599
  17 H :    0.174736
  18 H :    0.176692
  19 H :    0.179478

-------------------------------
LOEWDIN REDUCED ORBITAL CHARGES
-------------------------------
  0 C s       :     2.967556  s :     2.967556
      pz      :     1.108836  p :     3.375454
      px      :     1.148402
      py      :     1.118216
      dz2     :     0.006584  d :     0.063066
      dxz     :     0.020016
      dyz     :     0.015187
      dx2y2   :     0.018942
      dxy     :     0.002338

  1 C s       :     2.909259  s :     2.909259
      pz      :     1.070868  p :     3.216893
      px      :     1.033564
      py      :     1.112460
      dz2     :     0.011421  d :     0.093725
      dxz     :     0.026986
      dyz     :     0.022511
      dx2y2   :     0.024466
      dxy     :     0.008341

  2 C s       :     2.967553  s :     2.967553
      pz      :     1.136289  p :     3.379234
      px      :     1.087652
      py      :     1.155293
      dz2     :     0.004361  d :     0.063355
      dxz     :     0.018162
      dyz     :     0.017556
      dx2y2   :     0.018897
      dxy     :     0.004380

  3 C s       :     2.863789  s :     2.863789
      pz      :     1.018490  p :     2.975714
      px      :     0.855045
      py      :     1.102179
      dz2     :     0.015547  d :     0.120249
      dxz     :     0.033888
      dyz     :     0.021360
      dx2y2   :     0.035158
      dxy     :     0.014295

  4 O s       :     3.458607  s :     3.458607
      pz      :     1.656051  p :     4.662495
      px      :     1.390564
      py      :     1.615880
      dz2     :     0.067910  d :     0.478090
      dxz     :     0.107478
      dyz     :     0.059724
      dx2y2   :     0.129541
      dxy     :     0.113438

  5 C s       :     2.738255  s :     2.738255
      pz      :     0.770394  p :     2.636095
      px      :     0.901737
      py      :     0.963964
      dz2     :     0.023847  d :     0.272727
      dxz     :     0.019886
      dyz     :     0.057477
      dx2y2   :     0.069097
      dxy     :     0.102420

  6 O s       :     3.551979  s :     3.551979
      pz      :     1.485347  p :     4.670419
      px      :     1.698398
      py      :     1.486673
      dz2     :     0.024802  d :     0.217091
      dxz     :     0.016653
      dyz     :     0.050790
      dx2y2   :     0.061116
      dxy     :     0.063729

  7 C s       :     2.957454  s :     2.957454
      pz      :     1.121596  p :     3.320765
      px      :     1.064223
      py      :     1.134946
      dz2     :     0.013199  d :     0.056941
      dxz     :     0.009760
      dyz     :     0.007731
      dx2y2   :     0.009063
      dxy     :     0.017188

  8 H s       :     0.796557  s :     0.796557
      pz      :     0.012896  p :     0.043813
      px      :     0.022834
      py      :     0.008083

  9 H s       :     0.802812  s :     0.802812
      pz      :     0.016332  p :     0.043732
      px      :     0.018872
      py      :     0.008528

 10 H s       :     0.796104  s :     0.796104
      pz      :     0.010401  p :     0.043679
      px      :     0.008101
      py      :     0.025177

 11 H s       :     0.795008  s :     0.795008
      pz      :     0.011161  p :     0.042897
      px      :     0.007755
      py      :     0.023981

 12 H s       :     0.802139  s :     0.802139
      pz      :     0.018116  p :     0.043684
      px      :     0.008172
      py      :     0.017397

 13 H s       :     0.799348  s :     0.799348
      pz      :     0.011555  p :     0.043740
      px      :     0.008284
      py      :     0.023901

 14 H s       :     0.798828  s :     0.798828
      pz      :     0.015715  p :     0.043725
      px      :     0.019527
      py      :     0.008483

 15 H s       :     0.778280  s :     0.778280
      pz      :     0.019181  p :     0.040392
      px      :     0.005401
      py      :     0.015811

 16 H s       :     0.754068  s :     0.754068
      pz      :     0.009307  p :     0.045333
      px      :     0.006785
      py      :     0.029241

 17 H s       :     0.781689  s :     0.781689
      pz      :     0.007768  p :     0.043575
      px      :     0.017762
      py      :     0.018046

 18 H s       :     0.778872  s :     0.778872
      pz      :     0.012229  p :     0.044435
      px      :     0.009207
      py      :     0.023000

 19 H s       :     0.775905  s :     0.775905
      pz      :     0.026043  p :     0.044617
      px      :     0.009232
      py      :     0.009341


---------------------------------
LOEWDIN BOND ORDERS (THRESH 0.050000)
---------------------------------
B(  0-C ,  1-C ) :   1.1097 B(  0-C ,  2-C ) :   0.0708 B(  0-C ,  3-C ) :   0.0645 
B(  0-C ,  8-H ) :   0.9142 B(  0-C ,  9-H ) :   0.9227 B(  0-C , 10-H ) :   0.9201 
B(  1-C ,  2-C ) :   1.1068 B(  1-C ,  3-C ) :   1.0034 B(  1-C ,  4-O ) :   0.1583 
B(  1-C , 11-H ) :   0.8568 B(  2-C ,  3-C ) :   0.0820 B(  2-C , 12-H ) :   0.9238 
B(  2-C , 13-H ) :   0.9207 B(  2-C , 14-H ) :   0.9209 B(  3-C ,  4-O ) :   1.3033 
B(  3-C ,  5-C ) :   0.0829 B(  3-C ,  6-O ) :   0.0709 B(  3-C , 15-H ) :   0.8226 
B(  3-C , 16-H ) :   0.8005 B(  4-O ,  5-C ) :   1.4470 B(  4-O ,  6-O ) :   0.4581 
B(  4-O ,  7-C ) :   0.1871 B(  4-O , 15-H ) :   0.0959 B(  4-O , 16-H ) :   0.0882 
B(  5-C ,  6-O ) :   2.1785 B(  5-C ,  7-C ) :   0.9732 B(  6-O ,  7-C ) :   0.1834 
B(  7-C , 17-H ) :   0.9088 B(  7-C , 18-H ) :   0.9003 B(  7-C , 19-H ) :   0.8975 


------------------------------------------
LOEWDIN REDUCED ORBITAL POPULATIONS PER MO
-------------------------------------------
THRESHOLD FOR PRINTING IS 0.1%%
                      0         1         2         3         4         5   
                 -18.99648 -18.92798 -10.15606 -10.08488 -10.04403 -10.03895
                   2.00000   2.00000   2.00000   2.00000   2.00000   2.00000
                  --------  --------  --------  --------  --------  --------
 1 C  s               0.0       0.0       0.0       0.0      99.6       0.0
 3 C  s               0.0       0.0       0.0      99.4       0.0       0.0
 4 O  s              99.9       0.0       0.0       0.0       0.0       0.0
 4 O  dxz             0.0       0.0       0.0       0.1       0.0       0.0
 4 O  dx2y2           0.0       0.0       0.0       0.1       0.0       0.0
 4 O  dxy             0.0       0.0       0.2       0.0       0.0       0.0
 5 C  s               0.0       0.0      98.9       0.0       0.0       0.0
 6 O  s               0.0      99.9       0.0       0.0       0.0       0.0
 6 O  py              0.0       0.0       0.2       0.0       0.0       0.0
 6 O  dx2y2           0.0       0.0       0.2       0.0       0.0       0.0
 7 C  s               0.0       0.0       0.0       0.0       0.0      99.7

                      6         7         8         9        10        11   
                 -10.02551 -10.01873  -1.07135  -0.97600  -0.78368  -0.72826
                   2.00000   2.00000   2.00000   2.00000   2.00000   2.00000
                  --------  --------  --------  --------  --------  --------
 0 C  s               0.0      99.7       0.0       0.0       9.9       2.9
 0 C  pz              0.0       0.0       0.1       0.0       2.0       0.1
 0 C  py              0.0       0.0       0.0       0.0       1.2       0.1
 1 C  s               0.0       0.0       0.3       0.2      25.8       2.8
 1 C  pz              0.0       0.0       0.1       0.0       0.3       0.3
 1 C  px              0.1       0.0       0.6       0.2       0.0       1.6
 1 C  py              0.0       0.0       0.0       0.0       0.5       0.1
 2 C  s              99.7       0.0       0.0       0.0      11.3       3.9
 2 C  pz              0.0       0.0       0.0       0.0       0.7       0.2
 2 C  px              0.0       0.0       0.0       0.0       2.6       0.1
 3 C  s               0.0       0.0       4.4       1.8      10.9       2.0
 3 C  pz              0.0       0.0       1.1       0.4       1.0       0.2
 3 C  px              0.0       0.0       4.5       1.1       3.4       1.7
 3 C  py              0.0       0.0       0.1       0.4       0.1       0.1
 3 C  dxz             0.0       0.0       0.2       0.1       0.1       0.1
 3 C  dx2y2           0.0       0.0       0.2       0.1       0.0       0.0
 4 O  s               0.0       0.0      42.3      15.6       0.6       0.6
 4 O  pz              0.0       0.0       0.0       0.1       0.6       1.8
 4 O  px              0.0       0.0       0.1       0.6       5.3       7.1
 4 O  py              0.0       0.0       2.7       0.5       0.2       0.2
 4 O  dz2             0.0       0.0       0.3       0.2       0.1       0.1
 4 O  dxz             0.0       0.0       0.1       0.0       0.0       0.0
 4 O  dyz             0.0       0.0       0.0       0.0       0.0       0.1
 4 O  dx2y2           0.0       0.0       0.0       0.7       0.4       0.4
 4 O  dxy             0.0       0.0       0.3       0.5       0.3       0.4
 5 C  s               0.0       0.0      16.3       4.3       1.1       5.4
 5 C  pz              0.0       0.0       0.7       0.3       0.2       2.9
 5 C  px              0.0       0.0       3.9       0.7       0.5       6.6
 5 C  py              0.0       0.0       0.3      22.2       2.0       4.5
 5 C  dz2             0.0       0.0       0.4       0.1       0.0       0.0
 5 C  dyz             0.0       0.0       0.0       0.4       0.0       0.0
 5 C  dx2y2           0.0       0.0       0.2       0.8       0.0       0.1
 5 C  dxy             0.0       0.0       0.3       0.6       0.0       0.0
 6 O  s               0.0       0.0      11.6      42.8       0.5       1.9
 6 O  pz              0.0       0.0       0.1       0.3       0.0       0.2
 6 O  px              0.0       0.0       0.0       0.2       0.0       0.3
 6 O  py              0.0       0.0       2.9       3.3       0.1       0.5
 6 O  dz2             0.0       0.0       0.4       0.0       0.0       0.0
 6 O  dyz             0.0       0.0       0.1       0.0       0.0       0.3
 6 O  dx2y2           0.0       0.0       0.9       0.1       0.1       0.1
 6 O  dxy             0.0       0.0       0.1       0.2       0.0       0.5
 7 C  s               0.0       0.0       1.1       0.2       1.4      27.4
 7 C  pz              0.0       0.0       0.4       0.1       0.0       0.1
 7 C  px              0.0       0.0       1.5       0.1       0.2       0.6
 7 C  py              0.0       0.0       0.1       0.4       0.0       0.0
 8 H  s               0.0       0.0       0.0       0.0       1.2       0.4
 9 H  s               0.0       0.0       0.0       0.0       1.2       0.5
10 H  s               0.0       0.0       0.0       0.0       1.2       0.4
11 H  s               0.0       0.0       0.0       0.0       3.3       0.4
11 H  py              0.0       0.0       0.0       0.0       0.3       0.0
12 H  s               0.0       0.0       0.0       0.0       1.4       0.6
13 H  s               0.0       0.0       0.0       0.0       1.5       0.6
13 H  py              0.0       0.0       0.0       0.0       0.1       0.0
14 H  s               0.0       0.0       0.0       0.0       1.4       0.7
15 H  s               0.0       0.0       0.3       0.2       1.6       0.4
16 H  s               0.0       0.0       0.4       0.1       1.4       0.3
16 H  py              0.0       0.0       0.0       0.0       0.1       0.0
17 H  s               0.0       0.0       0.1       0.0       0.2       4.6
17 H  px              0.0       0.0       0.0       0.0       0.0       0.2
17 H  py              0.0       0.0       0.0       0.0       0.0       0.2
18 H  s               0.0       0.0       0.1       0.0       0.3       5.2
18 H  py              0.0       0.0       0.0       0.0       0.0       0.3
19 H  s               0.0       0.0       0.1       0.0       0.2       5.2
19 H  pz              0.0       0.0       0.0       0.0       0.0       0.4

                     12        13        14        15        16        17   
                  -0.66286  -0.65718  -0.55451  -0.52857  -0.46719  -0.45342
                   2.00000   2.00000   2.00000   2.00000   2.00000   2.00000
                  --------  --------  --------  --------  --------  --------
 0 C  s               7.4      21.0       4.2       1.0       0.6       0.0
 0 C  pz              0.1       0.4       2.4       0.2       2.9       0.0
 0 C  px              0.2       0.3       0.2       0.0       0.6       2.6
 0 C  py              0.0       0.1       2.7       3.6       0.1       0.5
 0 C  dyz             0.0       0.0       0.1       0.1       0.0       0.0
 1 C  s               0.0       0.0       9.9       3.9       0.2       0.5
 1 C  pz              3.7       8.2       0.4       3.4       0.0       0.5
 1 C  px              4.7       5.7       1.8       0.0       0.1       3.1
 1 C  py              0.6       2.0       1.9       6.6       2.4       0.7
 1 C  dxz             0.2       0.1       0.0       0.0       0.0       0.0
 1 C  dyz             0.1       0.1       0.1       0.0       0.0       0.0
 1 C  dx2y2           0.0       0.2       0.0       0.0       0.0       0.0
 2 C  s               2.9      23.7       5.0       0.2       0.0       0.2
 2 C  pz              0.3       0.6       0.6       1.6       0.0       2.0
 2 C  px              0.3       0.4       6.2       0.2       0.0       0.9
 2 C  py              0.0       0.1       0.3       1.1       0.9       0.3
 3 C  s              15.1       0.1       0.2       5.6       0.3       0.1
 3 C  pz              0.7       0.6       0.3      10.1       6.1       5.8
 3 C  px              0.0       0.2      10.2       1.2       0.0       0.1
 3 C  py              0.2       0.1       0.3       8.6      11.2       0.0
 3 C  dxz             0.0       0.0       0.4       0.0       0.0       0.0
 3 C  dx2y2           0.0       0.0       0.0       0.2       0.0       0.0
 3 C  dxy             0.0       0.0       0.2       0.1       0.0       0.0
 4 O  s               0.9       0.1       1.5       3.7       0.3       0.0
 4 O  pz              2.1       0.0       3.4       0.6       3.0       9.0
 4 O  px              9.7       0.4       8.9       4.9       1.7       8.0
 4 O  py              1.1       0.0       2.8       8.5       9.2       0.1
 4 O  dz2             0.0       0.0       0.2       0.0       0.0       0.0
 4 O  dxz             1.4       0.0       0.0       0.8       0.3       0.0
 4 O  dyz             0.0       0.0       0.0       0.1       0.1       0.6
 4 O  dx2y2           1.1       0.0       0.3       0.0       0.5       0.0
 4 O  dxy             0.1       0.0       0.2       0.2       1.4       0.1
 5 C  s               0.5       0.0       2.4       1.7       1.9       1.7
 5 C  pz              0.7       0.1       0.0       0.3       0.4      13.3
 5 C  px              4.6       0.1       0.5       0.4      10.7       0.7
 5 C  py              1.0       0.0       1.7       1.1       0.2       1.8
 5 C  dx2y2           0.1       0.0       0.0       0.0       0.0       0.1
 5 C  dxy             0.2       0.0       0.0       0.0       0.0       0.0
 6 O  s               0.0       0.0       0.7       1.5       0.6       3.3
 6 O  pz              0.0       0.0       0.0       0.1       0.1       9.6
 6 O  px              0.2       0.0       0.0       0.4       7.1       0.9
 6 O  py              0.0       0.0       0.9       1.7       1.0       3.7
 6 O  dz2             0.0       0.0       0.0       0.1       0.0       0.0
 6 O  dxz             0.1       0.0       0.0       0.0       0.0       0.0
 6 O  dyz             0.0       0.0       0.0       0.0       0.0       1.1
 6 O  dx2y2           0.2       0.0       0.2       0.1       0.1       0.0
 6 O  dxy             0.1       0.0       0.0       0.1       1.1       0.1
 7 C  s              12.3       0.4       1.9       0.3       1.4       0.5
 7 C  pz              0.1       0.0       0.5       0.4       7.4       1.0
 7 C  px              0.6       0.0       2.4       0.7       5.0       6.9
 7 C  py              0.0       0.0       0.0       0.0       2.5       7.6
 7 C  dxz             0.0       0.0       0.0       0.0       0.2       0.0
 8 H  s               1.5       5.4       1.6       0.4       0.2       0.7
 8 H  pz              0.0       0.1       0.0       0.0       0.0       0.0
 8 H  px              0.1       0.4       0.1       0.0       0.0       0.0
 9 H  s               2.0       4.7       2.5       0.3       1.6       0.6
 9 H  pz              0.1       0.1       0.0       0.0       0.0       0.0
 9 H  px              0.1       0.2       0.1       0.0       0.0       0.0
10 H  s               1.6       4.6       2.3       1.6       0.1       0.1
10 H  py              0.1       0.3       0.1       0.1       0.0       0.0
11 H  s               0.0       0.0       4.4       5.9       0.2       0.8
11 H  py              0.0       0.0       0.3       0.3       0.0       0.0
12 H  s               0.5       6.2       1.9       0.1       0.2       0.4
12 H  pz              0.0       0.3       0.0       0.0       0.0       0.0
12 H  py              0.0       0.3       0.1       0.0       0.0       0.0
13 H  s               0.6       5.4       2.7       0.8       0.2       0.9
13 H  py              0.0       0.4       0.2       0.0       0.0       0.0
14 H  s               0.9       5.4       3.2       0.0       0.0       0.0
14 H  pz              0.0       0.2       0.1       0.0       0.0       0.0
14 H  px              0.0       0.3       0.1       0.0       0.0       0.0
15 H  s               4.5       0.0       0.0       3.2       6.8       1.0
15 H  pz              0.2       0.0       0.0       0.0       0.2       0.0
15 H  py              0.2       0.0       0.0       0.2       0.1       0.0
16 H  s               3.0       0.0       0.1       9.9       1.2       0.3
16 H  py              0.3       0.0       0.0       0.5       0.0       0.0
17 H  s               3.4       0.1       1.5       0.4       0.8       0.2
17 H  px              0.1       0.0       0.0       0.0       0.0       0.0
17 H  py              0.1       0.0       0.1       0.0       0.1       0.1
18 H  s               2.7       0.1       0.7       0.1       1.3       6.5
18 H  pz              0.1       0.0       0.0       0.0       0.1       0.1
18 H  py              0.2       0.0       0.0       0.0       0.0       0.1
19 H  s               3.1       0.1       0.9       0.2       4.3       0.0
19 H  pz              0.2       0.0       0.0       0.0       0.1       0.0

                     18        19        20        21        22        23   
                  -0.44148  -0.42670  -0.40837  -0.39087  -0.37929  -0.36275
                   2.00000   2.00000   2.00000   2.00000   2.00000   2.00000
                  --------  --------  --------  --------  --------  --------
 0 C  s               0.1       0.3       0.1       0.1       0.0       0.0
 0 C  pz              0.0      12.5       0.5       0.1       0.2       2.0
 0 C  px              1.0       1.0      13.0       2.2       0.0       3.0
 0 C  py              2.4       0.7       0.4       6.3       0.0      15.8
 0 C  dyz             0.0       0.0       0.0       0.1       0.0       0.1
 1 C  s               0.2       0.5       0.0       0.1       0.0       0.0
 1 C  pz              3.9       0.5       0.7       6.6       0.0       2.8
 1 C  px              1.4       0.2       7.1       1.4       0.2       1.5
 1 C  py              0.4      14.1       0.5       0.0       0.2       0.2
 1 C  dz2             0.0       0.0       0.0       0.0       0.0       0.1
 2 C  s               0.0       0.1       0.1       0.1       0.0       0.0
 2 C  pz              3.8       0.7      12.9       2.9       0.1       3.7
 2 C  px              0.6       1.3       0.1      13.7       0.3       0.2
 2 C  py              0.2      13.3       1.7       0.1       2.3      22.9
 2 C  dxz             0.0       0.0       0.0       0.2       0.0       0.0
 2 C  dyz             0.0       0.0       0.0       0.0       0.0       0.2
 2 C  dx2y2           0.0       0.0       0.1       0.0       0.0       0.1
 3 C  s               0.1       0.2       0.1       0.6       0.0       0.0
 3 C  pz              0.1       2.9       4.4       0.1       0.2       1.1
 3 C  px              5.3       0.0       0.7       1.2       0.1       0.1
 3 C  py              1.6       1.0       0.0       6.9       1.8       0.9
 3 C  dx2y2           0.0       0.1       0.0       0.2       0.0       0.0
 3 C  dxy             0.0       0.1       0.0       0.0       0.0       0.0
 4 O  s               1.4       1.0       0.1       0.4       0.4       0.0
 4 O  pz              7.9       0.5       0.0       0.3       0.1       1.0
 4 O  px              2.7       0.2       0.0       0.4       1.3       2.1
 4 O  py             10.1       3.9       0.3       0.1       0.4       0.2
 4 O  dz2             0.0       0.2       0.4       0.0       0.1       0.1
 4 O  dxz             0.2       0.3       1.2       0.1       0.1       0.1
 4 O  dyz             0.1       0.1       0.0       0.1       0.0       0.0
 4 O  dx2y2           0.2       0.1       0.2       0.6       0.1       0.0
 4 O  dxy             0.1       0.0       0.0       0.3       0.1       0.1
 5 C  s               1.5       0.0       0.0       0.3       0.3       0.0
 5 C  pz              2.7       1.2       4.9       1.1       0.1       0.9
 5 C  px              0.3       5.3       0.2       4.2       0.2       0.1
 5 C  py              2.2       0.0       0.1       2.0       3.4       0.0
 5 C  dyz             0.0       0.0       0.0       0.0       0.1       0.0
 5 C  dx2y2           0.3       0.0       0.0       0.0       0.1       0.0
 5 C  dxy             0.0       0.0       0.0       0.0       0.4       0.0
 6 O  s               9.8       0.0       0.2       1.7       1.7       0.0
 6 O  pz              0.0       0.5       2.0       0.4       0.4       0.7
 6 O  px              0.5       3.4       0.2       0.1       0.1       0.1
 6 O  py             22.5       0.2       1.2       8.7      12.0       0.2
 6 O  dz2             0.2       0.0       0.1       0.0       0.1       0.0
 6 O  dxz             0.0       0.0       0.1       0.0       0.2       0.0
 6 O  dyz             0.1       0.0       0.2       0.0       0.0       0.0
 6 O  dx2y2           0.2       0.0       0.0       0.1       0.2       0.0
 6 O  dxy             0.0       0.3       0.0       0.0       0.0       0.0
 7 C  pz              0.8       7.3      11.6       6.3       0.0       3.6
 7 C  px              2.2       0.1       5.9       5.3       4.5       0.2
 7 C  py              3.7       0.8       0.7       0.6      35.7       0.9
 7 C  dxy             0.0       0.0       0.0       0.1       0.4       0.0
 8 H  s               0.5       3.7       5.0       0.7       0.1       2.9
 8 H  px              0.0       0.1       0.1       0.0       0.0       0.1
 8 H  py              0.0       0.0       0.0       0.0       0.0       0.1
 9 H  s               0.1       1.7       1.8       0.2       0.0       0.0
 9 H  pz              0.0       0.0       0.1       0.0       0.0       0.0
 9 H  px              0.0       0.1       0.0       0.0       0.0       0.0
 9 H  py              0.0       0.0       0.0       0.1       0.0       0.1
10 H  s               0.9       0.9       0.0       3.3       0.0       8.9
10 H  py              0.0       0.1       0.0       0.1       0.0       0.1
11 H  s               0.9       3.2       0.1       0.4       0.0       0.2
12 H  s               0.4       4.4       5.8       0.2       0.7       1.9
12 H  pz              0.0       0.1       0.0       0.0       0.0       0.2
12 H  px              0.0       0.0       0.0       0.1       0.0       0.0
12 H  py              0.0       0.0       0.1       0.0       0.0       0.0
13 H  s               0.5       2.4       0.2       0.1       0.7      13.8
13 H  px              0.0       0.0       0.0       0.1       0.0       0.0
13 H  py              0.0       0.0       0.0       0.0       0.0       0.2
14 H  s               1.1       0.5       1.0       7.9       0.1       1.1
14 H  pz              0.0       0.0       0.0       0.1       0.0       0.0
14 H  py              0.0       0.1       0.0       0.0       0.0       0.1
15 H  s               0.9       2.6       1.3       0.7       0.1       0.9
16 H  s               0.2       0.0       0.5       4.6       1.0       0.2
16 H  py              0.0       0.0       0.0       0.1       0.0       0.0
17 H  s               2.0       0.2       0.8       2.4      16.9       0.4
17 H  px              0.1       0.0       0.0       0.0       0.3       0.0
18 H  s               0.2       0.0       4.1       0.4       9.8       1.4
18 H  pz              0.0       0.0       0.0       0.0       0.1       0.0
18 H  px              0.0       0.0       0.0       0.1       0.2       0.0
18 H  py              0.0       0.0       0.2       0.0       0.0       0.0
19 H  s               0.7       3.8       5.3       1.6       1.2       1.3
19 H  pz              0.0       0.1       0.1       0.0       0.1       0.0
19 H  py              0.0       0.0       0.0       0.0       0.2       0.0

                     24        25        26        27        28        29   
                  -0.35585  -0.35093  -0.32340  -0.32044  -0.31061  -0.29863
                   2.00000   2.00000   2.00000   2.00000   2.00000   2.00000
                  --------  --------  --------  --------  --------  --------
 0 C  s               0.1       0.0       0.1       0.0       0.3       0.5
 0 C  pz              7.5       3.3       0.2       1.3      16.8       1.0
 0 C  px             10.1       7.3       7.2       2.3       5.6       0.0
 0 C  py              1.5       2.7       6.0       2.1       1.4       8.2
 0 C  dz2             0.0       0.0       0.0       0.0       0.0       0.1
 0 C  dxz             0.2       0.1       0.3       0.1       0.2       0.0
 0 C  dyz             0.0       0.0       0.1       0.0       0.0       0.1
 0 C  dx2y2           0.1       0.0       0.0       0.1       0.4       0.1
 1 C  s               0.3       0.0       0.1       0.1       0.0       0.4
 1 C  pz              0.6       0.0       0.4       1.0      16.1       0.4
 1 C  px              0.0       0.9       8.8       2.5       4.2       0.1
 1 C  py              0.2       0.0       4.3       2.9       0.9      16.7
 1 C  dz2             0.0       0.0       0.0       0.0       0.0       0.1
 1 C  dxz             0.1       0.0       0.4       0.2       0.1       0.0
 1 C  dyz             0.0       0.0       0.1       0.0       0.1       0.6
 1 C  dx2y2           0.1       0.0       0.0       0.1       0.5       0.3
 2 C  s               0.0       0.0       0.2       0.0       0.6       0.1
 2 C  pz              0.1      12.8       0.3       0.4      13.0       0.2
 2 C  px              0.0       9.2       7.2       2.6       6.3       0.1
 2 C  py              3.2       0.5       2.9       3.5       1.1       3.2
 2 C  dxz             0.0       0.2       0.1       0.1       0.0       0.0
 2 C  dyz             0.0       0.1       0.1       0.1       0.1       0.2
 2 C  dx2y2           0.0       0.1       0.0       0.1       0.2       0.1
 3 C  s               0.3       0.1       0.4       0.4       0.1       0.4
 3 C  pz              0.0       1.7       4.7       1.1       1.6       0.8
 3 C  px              1.1       1.9       0.6       6.7       0.1       0.1
 3 C  py              0.3       5.6       3.0       2.1       0.1      10.1
 3 C  dz2             0.0       0.1       0.0       0.0       0.1       0.1
 3 C  dyz             0.0       0.1       0.0       0.1       0.0       0.5
 3 C  dx2y2           0.0       0.1       0.0       0.1       0.2       0.3
 3 C  dxy             0.0       0.0       0.1       0.0       0.0       0.0
 4 O  s               0.0       0.0       1.4       1.6       0.0       0.9
 4 O  pz             14.1       1.7       0.0       5.6       0.1       0.6
 4 O  px              1.4       2.3       0.5       1.7       1.1       0.9
 4 O  py              0.4       0.5       8.2      12.6       0.8      10.6
 4 O  dz2             0.0       0.0       0.4       0.1       0.0       0.0
 4 O  dxz             0.1       0.0       0.0       0.3       0.0       0.1
 4 O  dyz             0.1       0.3       0.1       0.5       0.0       0.5
 4 O  dx2y2           0.0       0.0       0.9       0.0       0.0       0.5
 4 O  dxy             0.0       0.1       0.7       0.1       0.0       0.2
 5 C  s               0.0       0.0       0.1       0.2       0.0       0.1
 5 C  pz              2.6       0.1       2.0       3.4       0.4       0.0
 5 C  px              1.8       2.5       0.3       0.1       0.5       0.1
 5 C  py              0.1       0.1       2.0       1.6       0.1       1.1
 5 C  dz2             0.2       0.0       0.1       0.0       0.0       0.0
 5 C  dxz             0.2       0.0       0.0       0.1       0.0       0.0
 5 C  dyz             0.0       0.0       0.1       0.3       0.0       0.0
 5 C  dx2y2           0.0       0.1       0.2       0.4       0.1       0.2
 5 C  dxy             0.0       0.0       0.0       0.1       0.0       0.0
 6 O  s               0.0       0.1       0.3       0.5       0.0       0.3
 6 O  pz              5.0       0.9      12.3       5.8       2.7       0.4
 6 O  px              1.4       0.8       0.3       3.9       0.9       0.1
 6 O  py              0.0       0.8       0.8       7.1       0.1       1.9
 6 O  dyz             0.2       0.0       0.1       0.1       0.0       0.0
 6 O  dx2y2           0.0       0.0       0.1       0.1       0.0       0.3
 7 C  s               0.0       0.1       0.0       0.2       0.0       0.0
 7 C  pz             10.6       0.0       0.6       3.7       0.0       0.0
 7 C  px              6.0       5.8       1.0       0.8       0.5       0.1
 7 C  py              0.2       0.4       0.4       0.0       0.0       0.0
 7 C  dz2             0.3       0.0       0.1       0.0       0.0       0.0
 8 H  s               0.8       1.1       3.7       0.3       9.6       0.0
 8 H  pz              0.1       0.1       0.0       0.0       0.0       0.0
 8 H  px              0.0       0.0       0.0       0.0       0.1       0.0
 9 H  s               9.7       6.3       2.1       3.2       0.1       0.1
 9 H  pz              0.1       0.1       0.0       0.0       0.1       0.0
10 H  s               2.1       1.9       3.1       1.9       0.9       3.9
11 H  s               0.1       0.0       2.1       2.7       0.8      13.9
11 H  pz              0.0       0.0       0.1       0.0       0.1       0.0
12 H  s               1.1       4.7       0.7       0.4       7.1       1.1
12 H  py              0.0       0.1       0.0       0.0       0.1       0.0
13 H  s               1.0       0.2       2.0       2.7       0.1       3.4
13 H  pz              0.0       0.1       0.0       0.0       0.1       0.0
14 H  s               0.0      11.0       1.2       2.6       0.4       0.3
14 H  px              0.0       0.1       0.0       0.0       0.1       0.0
15 H  s               0.5       5.2       0.0       0.8       1.4       2.6
16 H  s               0.0       1.1       1.8       1.5       0.1       9.8
16 H  px              0.0       0.0       0.0       0.1       0.0       0.0
17 H  s               1.5       2.8       0.0       0.2       0.2       0.0
18 H  s               3.7       0.0       1.0       0.4       0.0       0.0
18 H  py              0.1       0.0       0.0       0.0       0.0       0.0
19 H  s               7.7       0.5       0.7       1.5       0.1       0.0

                     30        31        32        33        34        35   
                  -0.26527  -0.23684  -0.01356   0.07450   0.08038   0.11514
                   2.00000   2.00000   0.00000   0.00000   0.00000   0.00000
                  --------  --------  --------  --------  --------  --------
 0 C  s               0.0       0.0       0.0       2.0       8.2       0.6
 0 C  pz              1.9       0.0       0.1       0.4       1.5       2.1
 0 C  px              0.4       0.0       0.0       1.7       0.4       3.7
 0 C  py              0.0       0.1       0.0       0.7       0.8       0.5
 0 C  dxz             0.1       0.0       0.0       0.0       0.0       0.2
 0 C  dyz             0.0       0.0       0.0       0.0       0.3       0.2
 0 C  dx2y2           0.0       0.0       0.0       0.1       0.2       0.3
 1 C  s               0.3       0.0       0.3       0.1       5.7       7.2
 1 C  pz              3.5       0.1       0.2       0.0       0.4       0.1
 1 C  px              5.4       0.0       0.3       2.0       0.4       0.4
 1 C  py              0.0       0.2       0.0       0.1       1.6       2.5
 1 C  dz2             0.0       0.0       0.0       0.5       0.0       0.4
 1 C  dxz             0.2       0.0       0.0       0.1       0.0       0.1
 1 C  dx2y2           0.0       0.0       0.0       0.3       0.2       0.0
 2 C  s               0.0       0.0       0.0       3.0      14.7       0.4
 2 C  pz              0.1       0.0       0.1       1.6       0.2       5.0
 2 C  px              1.7       0.1       0.2       0.2       1.3       3.5
 2 C  py              0.0       0.0       0.0       0.1       0.0       0.9
[...]
 1 C  s               0.2       0.1       0.0       0.0       0.0       1.0
 1 C  pz              0.5       0.0       0.0       0.0       0.0       0.0
 1 C  py              0.2       0.0       0.0       0.0       0.0       0.0
 1 C  dz2             0.2       0.1       0.0       0.0       0.0       0.0
 1 C  dxz             0.1       0.2       0.1       0.0       0.0       0.0
 1 C  dyz             0.5       0.0       0.0       0.0       0.0       0.0
 1 C  dx2y2           1.3       0.0       0.0       0.0       0.0       0.0
 2 C  s               0.0       0.1       0.0       0.0       1.4      61.7
 2 C  px              0.0       0.2       0.1       0.0       0.0       0.0
 2 C  dx2y2           0.3       0.0       0.0       0.0       0.0       0.0
 3 C  s               0.1       1.7       0.5       0.2       5.0       1.9
 3 C  pz              0.0       2.3       0.5       0.1       0.0       0.0
 3 C  px              0.2       5.5       1.8       0.4       0.0       0.0
 3 C  py              1.9       0.1       0.3       0.0       0.0       0.0
 3 C  dz2             0.8       0.8       0.0       0.0       0.0       0.0
 3 C  dxz             0.2       4.0       1.1       0.2       0.0       0.0
 3 C  dyz             4.0       0.7       0.0       0.0       0.0       0.0
 3 C  dx2y2           1.2       5.0       2.1       0.4       0.0       0.0
 3 C  dxy             1.1       1.1       0.2       0.1       0.0       0.0
 4 O  s               3.8      26.8       4.7       1.2       0.0       0.0
 4 O  pz              0.2       2.1       2.9       0.2       0.0       0.0
 4 O  px              0.0       7.7      21.1       0.6       0.0       0.0
 4 O  py              5.3       4.3       7.0       0.2       0.0       0.0
 4 O  dz2             0.6       4.8       3.3       0.2       0.0       0.0
 4 O  dxz             0.2      11.7       0.0       1.3       0.0       0.0
 4 O  dyz             0.5       0.0       2.2       0.0       0.0       0.0
 4 O  dx2y2           7.4       7.4       2.1       0.8       0.0       0.0
 4 O  dxy             0.1       0.3      22.8       0.1       0.0       0.0
 5 C  s               0.6       0.5       2.8       5.4       0.0       0.1
 5 C  pz              0.1       0.0       0.3       0.5       0.0       0.0
 5 C  px              0.3       0.5       3.1       0.2       0.0       0.0
 5 C  py              0.6       1.4       3.3       7.0       0.0       0.0
 5 C  dz2             0.1       0.2       1.8       1.2       0.0       0.0
 5 C  dxz             2.8       0.0       0.1       0.0       0.0       0.0
 5 C  dyz             0.1       0.3       0.9       1.2       0.0       0.0
 5 C  dx2y2           7.0       0.0       0.3       3.8       0.0       0.0
 5 C  dxy             2.3       1.8       9.3       0.5       0.0       0.0
 6 O  s               4.5       0.9       0.4      18.8       0.0       0.0
 6 O  pz              1.0       0.0       0.1       1.3       0.0       0.0
 6 O  px              7.6       0.0       0.3       0.4       0.0       0.0
 6 O  py              1.4       1.0       0.2      19.7       0.0       0.0
 6 O  dz2             1.1       0.3       0.0       5.3       0.0       0.0
 6 O  dxz             0.2       0.0       0.7       0.1       0.0       0.0
 6 O  dyz             2.0       0.2       0.3       5.7       0.0       0.0
 6 O  dx2y2           0.3       2.1       0.2      20.0       0.0       0.0
 6 O  dxy            16.2       0.0       1.1       2.1       0.0       0.0
 7 C  s               0.0       0.0       0.0       0.0      92.5       3.1
 7 C  px              1.3       0.0       0.2       0.0       0.0       0.0
 7 C  dz2             0.2       0.0       0.1       0.1       0.0       0.0
 7 C  dxz             0.6       0.0       0.0       0.0       0.0       0.0
 7 C  dyz             0.1       0.0       0.0       0.0       0.0       0.0
 7 C  dx2y2           0.7       0.0       0.1       0.0       0.0       0.0
 7 C  dxy             1.9       0.1       0.2       0.1       0.0       0.0
 8 H  px              0.2       0.0       0.0       0.0       0.0       0.0
10 H  py              0.1       0.0       0.0       0.0       0.0       0.0
11 H  s               0.6       0.0       0.0       0.0       0.0       0.0
11 H  py              1.6       0.0       0.0       0.0       0.0       0.0
13 H  py              0.1       0.0       0.0       0.0       0.0       0.0
15 H  s               1.1       0.5       0.0       0.0       0.0       0.0
15 H  pz              1.9       0.2       0.0       0.0       0.0       0.0
15 H  px              0.0       0.3       0.0       0.0       0.0       0.0
15 H  py              0.6       0.8       0.1       0.0       0.0       0.0
16 H  s               1.3       0.2       0.2       0.0       0.0       0.0
16 H  pz              0.2       0.0       0.0       0.0       0.0       0.0
16 H  px              1.1       0.2       0.1       0.0       0.0       0.0
16 H  py              3.6       0.4       0.3       0.0       0.0       0.0
17 H  s               0.8       0.0       0.1       0.1       0.0       0.0
17 H  px              0.6       0.0       0.0       0.0       0.0       0.0
17 H  py              0.7       0.0       0.0       0.0       0.0       0.0

                    216       217       218       219       220       221   
                  22.01343  22.07935  22.12185  22.24703  43.68895  43.77345
                   0.00000   0.00000   0.00000   0.00000   0.00000   0.00000
                  --------  --------  --------  --------  --------  --------
 0 C  s              61.7       4.5       0.7       0.0       0.0       0.0
 1 C  s               5.5      68.7      19.9       4.7       0.0       0.0
 2 C  s              31.4       2.0       2.9       0.2       0.0       0.0
 3 C  s               0.8      19.9      72.1       0.0       0.0       0.0
 4 O  s               0.0       0.0       0.0       0.1       1.0      98.9
 5 C  s               0.2       3.3       1.5      94.0       0.0       0.0
 6 O  s               0.0       0.0       0.0       0.2      99.0       1.0
 6 O  py              0.0       0.0       0.0       0.1       0.0       0.0
 7 C  s               0.1       1.3       2.6       0.1       0.0       0.0



                      *****************************
                      * MAYER POPULATION ANALYSIS *
                      *****************************

  NA   - Mulliken gross atomic population
  ZA   - Total nuclear charge
  QA   - Mulliken gross atomic charge
  VA   - Mayer's total valence
  BVA  - Mayer's bonded valence
  FA   - Mayer's free valence

  ATOM       NA         ZA         QA         VA         BVA        FA
  0 C      6.4913     6.0000    -0.4913     3.7581     3.7581     0.0000
  1 C      6.0079     6.0000    -0.0079     3.5954     3.5954     0.0000
  2 C      6.4825     6.0000    -0.4825     3.7919     3.7919     0.0000
  3 C      6.2381     6.0000    -0.2381     3.6173     3.6173     0.0000
  4 O      8.1609     8.0000    -0.1609     1.8962     1.8962    -0.0000
  5 C      5.5661     6.0000     0.4339     3.7592     3.7592     0.0000
  6 O      8.4364     8.0000    -0.4364     1.9470     1.9470     0.0000
  7 C      6.5208     6.0000    -0.5208     3.8729     3.8729    -0.0000
  8 H      0.8519     1.0000     0.1481     0.9651     0.9651     0.0000
  9 H      0.8525     1.0000     0.1475     0.9629     0.9629     0.0000
 10 H      0.8397     1.0000     0.1603     0.9638     0.9638    -0.0000
 11 H      0.8519     1.0000     0.1481     0.9594     0.9594     0.0000
 12 H      0.8545     1.0000     0.1455     0.9648     0.9648     0.0000
 13 H      0.8481     1.0000     0.1519     0.9651     0.9651    -0.0000
 14 H      0.8489     1.0000     0.1511     0.9639     0.9639     0.0000
 15 H      0.8539     1.0000     0.1461     0.9550     0.9550     0.0000
 16 H      0.8076     1.0000     0.1924     0.9556     0.9556     0.0000
 17 H      0.8229     1.0000     0.1771     0.9586     0.9586    -0.0000
 18 H      0.8333     1.0000     0.1667     0.9596     0.9596    -0.0000
 19 H      0.8308     1.0000     0.1692     0.9578     0.9578    -0.0000

  Mayer bond orders larger than 0.100000
B(  0-C ,  1-C ) :   0.9044 B(  0-C ,  8-H ) :   0.9666 B(  0-C ,  9-H ) :   0.9737 
B(  0-C , 10-H ) :   0.9779 B(  1-C ,  2-C ) :   0.9155 B(  1-C ,  3-C ) :   0.9363 
B(  1-C , 11-H ) :   0.9515 B(  2-C , 12-H ) :   0.9724 B(  2-C , 13-H ) :   0.9815 
B(  2-C , 14-H ) :   0.9704 B(  3-C ,  4-O ) :   0.7998 B(  3-C , 15-H ) :   0.9590 
B(  3-C , 16-H ) :   0.9767 B(  4-O ,  5-C ) :   1.0414 B(  5-C ,  6-O ) :   1.8351 
B(  5-C ,  7-C ) :   0.9609 B(  7-C , 17-H ) :   0.9894 B(  7-C , 18-H ) :   0.9635 
B(  7-C , 19-H ) :   0.9390 

-------
TIMINGS
-------

Total SCF time: 0 days 0 hours 0 min 27 sec 

Total time                  ....      27.819 sec
Sum of individual times     ....      27.141 sec  ( 97.6%)

SCF preparation             ....       0.207 sec  (  0.7%)
Fock matrix formation       ....      25.288 sec  ( 90.9%)
  Startup                   ....       0.066 sec  (  0.3% of F)
  Split-RI-J                ....       4.742 sec  ( 18.8% of F)
  XC integration            ....      19.869 sec  ( 78.6% of F)
    Basis function eval.    ....       3.401 sec  ( 17.1% of XC)
    Density eval.           ....       5.518 sec  ( 27.8% of XC)
    XC-Functional eval.     ....       2.294 sec  ( 11.5% of XC)
    XC-Potential eval.      ....       5.946 sec  ( 29.9% of XC)
Diagonalization             ....       0.000 sec  (  0.0%)
Density matrix formation    ....       0.290 sec  (  1.0%)
Total Energy calculation    ....       0.032 sec  (  0.1%)
Population analysis         ....       0.140 sec  (  0.5%)
Orbital Transformation      ....       0.076 sec  (  0.3%)
Orbital Orthonormalization  ....       0.000 sec  (  0.0%)
DIIS solution               ....       1.070 sec  (  3.8%)
  MO trafo                  ....       0.000 sec  (  0.0 % of DIIS)
  Orb grad                  ....       0.000 sec  (  0.0 % of DIIS)
  Energy W gradient         ....       0.000 sec  (  0.0 % of DIIS)
  DIIS error                ....       0.014 sec  (  1.3 % of DIIS)
  DIIS work                 ....       0.981 sec  ( 91.6 % of DIIS)
  Form Q                    ....       0.000 sec  (  0.0 % of DIIS)
  Form QpQm                 ....       0.000 sec  (  0.0 % of DIIS)
  Exp/Cayley                ....       0.000 sec  (  0.0 % of DIIS)
  Orb update                ....       0.000 sec  (  0.0 % of DIIS)
  Wake-sleep                ....       0.028 sec  (  2.6 % of DIIS)
SOSCF solution              ....       0.039 sec  (  0.1%)
  MO trafo                  ....       0.039 sec  ( 99.8 % of SOSCF)
  Orb grad                  ....       0.000 sec  (  0.0 % of SOSCF)
  Rot update                ....       0.000 sec  (  0.0 % of SOSCF)
  Step                      ....       0.000 sec  (  0.0 % of SOSCF)
Finished LeanSCF after  27.9 sec

Maximum memory used throughout the entire LEANSCF-calculation: 23.9 MB


-------------------------------------------------------------------------------
                          DFT DISPERSION CORRECTION                            
                                                                               
                                DFTD4 V3.4.0                                   
-------------------------------------------------------------------------------
The R2SCAN3C composite method is recognized
Using three-body term ABC
Active option DFTDOPT                   ...         5   

-------------------------   ----------------
Dispersion correction           -0.005298936
-------------------------   ----------------

------------------   -----------------
gCP correction             0.011992565
------------------   -----------------

-------------------------   --------------------
FINAL SINGLE POINT ENERGY      -386.238089483509
-------------------------   --------------------


------------------------------------------------------------------------------
                              ORCA PROPERTY CALCULATIONS
------------------------------------------------------------------------------

GBWName                                 ... sp_gas.gbw
Number of atoms                         ...     20
Number of basis functions               ...    222
Max core memory                         ...   1024 MB

Electric properties:
Dipole moment                           ... YES
Quadrupole moment                       ...  NO
Static polarizability (Dipole/Dipole)   ...  NO
Static polarizability (Dipole/Quad.)    ...  NO
Static polarizability (Quad./Quad.)     ...  NO
Static polarizability (Velocity)        ...  NO

Atomic electric properties:
Dipole moment                           ...  NO
Quadrupole moment                       ...  NO
Static polarizability                   ...  NO

Choice of electric origin               ... Center of mass
Position of electric origin             ...    -0.000027    -0.000009     0.000007

General magnetic properties:
Magnetizability                         ...  NO

EPR properties:
g-Tensor (aka g-matrix)                 ...  NO
Zero-Field splitting spin-orbit         ...  NO
Zero-field splitting spin-spin          ...  NO
Hyperfine couplings                     ...  NO (   0 nuclei)
Quadrupole couplings                    ...  NO (   0 nuclei)
Contact density                         ...  NO (   0 nuclei)

NMR properties:
Chemical shifts                         ...  NO (   0 nuclei)
Spin-rotation constants                 ...  NO (   0 nuclei)
Spin-spin couplings                     ...  NO (   0 nuclei,    0 pairs)

Choice of magnetic origin               ... GIAO
Position of magnetic origin             ...     0.000000     0.000000     0.000000

Properties with geometric perturbations:
SCF Hessian                             ...  NO
IR spectrum                             ...  NO
VCD spectrum                            ...  NO
X-ray spectroscopy properties:
SCF XES/XAS/RIXS spectra                ...  NO


-------------
DIPOLE MOMENT
-------------

Method             : SCF
Type of density    : Electron Density
Multiplicity       :   1
Irrep              :   0
Energy             :  -386.2447831123298556 Eh
Relativity type    : 
Basis              : AO
                                X                 Y                 Z
Electronic contribution:      7.111070103       1.287627540      -1.988979904
Nuclear contribution   :     -7.363278616      -2.090648705       2.161619807
                        -----------------------------------------
Total Dipole Moment    :     -0.252208513      -0.803021165       0.172639902
                        -----------------------------------------
Magnitude (a.u.)       :      0.859218634
Magnitude (Debye)      :      2.183960205



--------------------
Rotational spectrum 
--------------------
 
Rotational constants in cm-1:             0.144592             0.035141             0.034125 
Rotational constants in MHz :          4334.745652          1053.513421          1023.053783 

Dipole components along the rotational axes: 
x,y,z [a.u.] :     0.345326    -0.403531    -0.675403 
x,y,z [Debye]:     0.877748    -1.025694    -1.716739 

 

Dipole moment calculation done in   0.0 sec 

Maximum memory used throughout the entire PROP-calculation: 13.9 MB

--------------------------------
SUGGESTED CITATIONS FOR THIS RUN
--------------------------------

Below you find a list of papers that are relevant to this ORCA run
We neither can nor want to force you to cite these papers, but we appreciate if you do
You receive ORCA, which is the product of decades of hard work by many enthusiastic individuals, for free
The only thing we kindly ask in return is that you cite our papers,
We deeply appreciate it, if you show your appreciation for ORCA by not just citing the generic ORCA reference.

Please note that relegating all ORCA citations to the supporting information does *not* help us.
SI sections are not indexed - citations you put there will not count into any citation statistics
But we need these citations in order to attract the funding resources that allow us to do what we are doing

Therefore, if you are a happy ORCA user, please consider citing a few of the papers listed below in the main body of your paper

In addition to the list printed below, the program has created the file sp_gas.bibtex that contains the list in bibtex format
You can import this file easily into all common literature databanks and citation aid programs


List of essential papers. We consider these as the minimum necessary citations

  1. Neese,F.
     Software update: the ORCA program system, version 5.0
     WIRES Comput. Molec. Sci., 2022 12(1)e1606
     doi.org/10.1002/wcms.1606
  2. Grimme,S.; Hansen,A.; Ehlert,S.; Mewes,J.
     r2SCAN-3c: A 'Swiss army knife' composite electronic-structure method
     J. Chem. Phys., 2021 154 064103
     doi.org/10.1063/5.0040021

List of papers to cite with high priority. The work reported in these papers was absolutely
necessary for this run to complete.
Our perspective: the developers of density functionals and basis sets usually get cited in chemistry papers
Good! But without the algorithms to do something with them, the functionals or basis sets would not do anything.
Hence, in our opinion, the algorithm design and method developments papers are equally worthy of getting cited

  1. Neese,F.
     An improvement of the resolution of the identity approximation for the formation of the Coulomb matrix
     J. Comp. Chem., 2003 24(14)1740-1747
     doi.org/10.1002/jcc.10318
  2. Neese,F.
     The SHARK Integral Generation and Digestion System
     J. Comp. Chem., 2022  1-16
     doi.org/10.1002/jcc.26942
  3. Lehtola,S.; Steigemann,C.; Oliveira,M.; Marques,M.
     Recent developments in Libxc - A comprehensive library of functionals for density functional theory
     Software X, 2018 7 
     doi.org/10.1016/j.softx.2017.11.002
  4. Caldeweyher,E.; Bannwarth,C.; Grimme,S.
     Extension of the D3 dispersion coefficient model
     J. Chem. Phys., 2017 147 034112-XXXX
     doi.org/10.1063/1.4993215
  5. Caldeweyher,E.; Ehlert,S.; Hansen,A.; Neugebauer,H.; Spicher,S.; Bannwarth,C.; Grimme,S.
     A generally applicable atomic-charge dependent London dispersion correction
     J. Chem. Phys., 2019 150 154122-XXXX
     doi.org/10.1063/1.5090222
  6. Caldeweyher,E.; Mewes,J.; Ehlert,S.; Grimme,S.
     Extension and evaluation of the D4 London-dispersion model for periodic systems
     Phys. Chem. Chem. Phys., 2020 22(16)8499-8512
     doi.org/10.1039/D0CP00502A

List of suggested additional citations. These are papers that are important in the 'surrounding' of 
of this run, or papers that preceded the highly important papers. If you like your results we are grateful for a citation.

  1. Neese,F.
     The ORCA program system
     WIRES Comput. Molec. Sci., 2012 2(1)73-78
     doi.org/10.1002/wcms.81
  2. Neese,F.
     Software update: the ORCA program system, version 4.0
     WIRES Comput. Molec. Sci., 2018 8(1)1-6
     doi.org/10.1002/wcms.1327
  3. Neese,F.; Wennmohs,F.; Becker,U.; Riplinger,C.
     The ORCA quantum chemistry program package
     J. Chem. Phys., 2020 152 Art. No. L224108
     doi.org/10.1063/5.0004608

List of optional additional citations

  1. Neese,F.
     Approximate second-order SCF convergence for spin unrestricted wavefunctions
     Chem. Phys. Lett., 2000 325(1-3)93-98
     doi.org/10.1016/s0009-2614(00)00662-x

Timings for individual modules:

Sum of individual times          ...       30.448 sec (=   0.507 min)
Startup calculation              ...        1.297 sec (=   0.022 min)   4.3 %
SCF iterations                   ...       29.027 sec (=   0.484 min)  95.3 %
Property calculations            ...        0.125 sec (=   0.002 min)   0.4 %
                             ****ORCA TERMINATED NORMALLY****
TOTAL RUN TIME: 0 days 0 hours 0 minutes 31 seconds 324 msec
