      -----------------------------------------------------------      
     |                   =====================                   |     
     |                           x T B                           |     
     |                   =====================                   |     
     |                         S. Grimme                         |     
     |          Mulliken Center for Theoretical Chemistry        |     
     |                    University of Bonn                     |     
      -----------------------------------------------------------      

   * xtb version 6.7.1 (edcfbbe) compiled by 'albert@albert-system' on 2024-07-22

   xtb is free software: you can redistribute it and/or modify it under
   the terms of the GNU Lesser General Public License as published by
   the Free Software Foundation, either version 3 of the License, or
   (at your option) any later version.
   
   xtb is distributed in the hope that it will be useful,
   but WITHOUT ANY WARRANTY; without even the implied warranty of
   MERCHANTABILITY or FITNESS FOR A PARTICULAR PURPOSE.  See the
   GNU Lesser General Public License for more details.
   
   Cite this work as:
   * C. Bannwarth, E. Caldeweyher, S. Ehlert, A. Hansen, P. Pracht,
     J. Seibert, S. Spicher, S. Grimme, WIREs Comput. Mol. Sci., 2020, 11,
     e01493. DOI: 10.1002/wcms.1493
   
   for GFN2-xTB:
   * C. Bannwarth, S. Ehlert and S. Grimme., J. Chem. Theory Comput., 2019,
     15, 1652-1671. DOI: 10.1021/acs.jctc.8b01176
   for GFN1-xTB:
   * S. Grimme, C. Bannwarth, P. Shushkov, J. Chem. Theory Comput., 2017,
     13, 1989-2009. DOI: 10.1021/acs.jctc.7b00118
   for GFN0-xTB:
   * P. Pracht, E. Caldeweyher, S. Ehlert, S. Grimme, ChemRxiv, 2019, preprint.
     DOI: 10.26434/chemrxiv.8326202.v1
   for GFN-FF:
   * S. Spicher and S. Grimme, Angew. Chem. Int. Ed., 2020, 59, 15665-15673.
     DOI: 10.1002/anie.202004239
   
   for ALPB and GBSA implicit solvation:
   * S. Ehlert, M. Stahn, S. Spicher, S. Grimme, J. Chem. Theory Comput.,
     2021, 17, 4250-4261. DOI: 10.1021/acs.jctc.1c00471
   
   for ddCOSMO and CPCM-X implicit solvation:
   * M. Stahn, S. Ehlert, S. Grimme, J. Phys. Chem. A,
     2023, XX, XXXX-XXXX. DOI: 10.1021/acs.jpca.3c04382
   
   for DFT-D4:
   * E. Caldeweyher, C. Bannwarth and S. Grimme, J. Chem. Phys., 2017,
     147, 034112. DOI: 10.1063/1.4993215
   * E. Caldeweyher, S. Ehlert, A. Hansen, H. Neugebauer, S. Spicher,
     C. Bannwarth and S. Grimme, J. Chem. Phys., 2019, 150, 154122.
     DOI: 10.1063/1.5090222
   * E. Caldeweyher, J.-M. Mewes, S. Ehlert and S. Grimme, Phys. Chem. Chem. Phys.
     2020, 22, 8499-8512. DOI: 10.1039/D0CP00502A
   
   for sTDA-xTB:
   * S. Grimme and C. Bannwarth, J. Chem. Phys., 2016, 145, 054103.
     DOI: 10.1063/1.4959605
   
   in the mass-spec context:
   * V. Asgeirsson, C. Bauer and S. Grimme, Chem. Sci., 2017, 8, 4879.
     DOI: 10.1039/c7sc00601b
   * J. Koopman and S. Grimme, ACS Omega 2019, 4, 12, 15120-15133.
     DOI: 10.1021/acsomega.9b02011
   
   for metadynamics refer to:
   * S. Grimme, J. Chem. Theory Comput., 2019, 155, 2847-2862
     DOI: 10.1021/acs.jctc.9b00143
   
   for SPH calculations refer to:
   * S. Spicher and S. Grimme, J. Chem. Theory Comput., 2021, 17, 1701-1714
     DOI: 10.1021/acs.jctc.0c01306
   
   for ONIOM refer to:
   * C. Plett, A. Katbashev, S. Ehlert, S. Grimme, M. Bursch,
     Phys. Chem. Chem. Phys., 2023, 25, 17860-17868. DOI: 10.1039/D3CP02178E
   
   for DIPRO refer to:
   * J. Kohn, N. Gildemeister, S. Grimme, D. Fazzi, A. Hansen,
     J. Chem. Phys., 2023, just accepted.
   
   for PTB refer to:
   * S. Grimme, M. Mueller, A. Hansen, J. Chem. Phys., 2023, 158, 124111.
     DOI: 10.1063/5.0137838
   
   with help from (in alphabetical order)
   P. Atkinson, C. Bannwarth, F. Bohle, G. Brandenburg, E. Caldeweyher
   M. Checinski, S. Dohm, S. Ehlert, S. Ehrlich, I. Gerasimov, C. Hölzer
   A. Katbashev, J. Kohn, J. Koopman, C. Lavigne, S. Lehtola, F. März, M. Müller,
   F. Musil, H. Neugebauer, J. Pisarek, C. Plett, P. Pracht, F. Pultar,
   J. Seibert, P. Shushkov, S. Spicher, M. Stahn, M. Steiner, T. Strunk,
   J. Stückrath, T. Rose, and J. Unsleber
   
 * started run on 2025/04/11 at 11:19:24.161     
   ID    Z sym.   atoms
    1    6 C      1-3
    2    8 O      4-6
    3    1 H      7-14

           -------------------------------------------------
          |                Calculation Setup                |
           -------------------------------------------------

          program call               : /srv/scratch/z5358697/.xtb/bin/xtb gas.coord --gfn2 --sp --chrg 0 --norestart --parallel 1
          hostname                   : k022
          coordinate file            : gas.coord
          omp threads                :                     1


           -------------------------------------------------
          |                 G F N 2 - x T B                 |
           -------------------------------------------------

        Reference                      10.1021/acs.jctc.8b01176
      * Hamiltonian:
        H0-scaling (s, p, d)           1.850000    2.230000    2.230000
        zeta-weighting                 0.500000
      * Dispersion:
        s8                             2.700000
        a1                             0.520000
        a2                             5.000000
        s9                             5.000000
      * Repulsion:
        kExp                           1.500000    1.000000
        rExp                           1.000000
      * Coulomb:
        alpha                          2.000000
        third order                    shell-resolved
        anisotropic                    true
        a3                             3.000000
        a5                             4.000000
        cn-shift                       1.200000
        cn-exp                         4.000000
        max-rad                        5.000000


          ...................................................
          :                      SETUP                      :
          :.................................................:
          :  # basis functions                  32          :
          :  # atomic orbitals                  32          :
          :  # shells                           20          :
          :  # electrons                        38          :
          :  max. iterations                   250          :
          :  Hamiltonian                  GFN2-xTB          :
          :  restarted?                      false          :
          :  GBSA solvation                  false          :
          :  PC potential                    false          :
          :  electronic temp.          300.0000000     K    :
          :  accuracy                    1.0000000          :
          :  -> integral cutoff          0.2500000E+02      :
          :  -> integral neglect         0.1000000E-07      :
          :  -> SCF convergence          0.1000000E-05 Eh   :
          :  -> wf. convergence          0.1000000E-03 e    :
          :  Broyden damping             0.4000000          :
          :  net charge                          0          :
          :  unpaired electrons                  0          :
          ...................................................

 iter      E             dE          RMSdq      gap      omega  full diag
   1    -22.8240585 -0.228241E+02  0.433E+00   11.52       0.0  T
   2    -22.8431871 -0.191287E-01  0.237E+00   11.12       1.0  T
   3    -22.8440742 -0.887040E-03  0.643E-01   11.01       1.0  T
   4    -22.8442547 -0.180538E-03  0.136E-01   10.98       1.0  T
   5    -22.8442748 -0.200802E-04  0.437E-02   11.02       1.0  T
   6    -22.8442806 -0.578768E-05  0.196E-02   11.02       1.4  T
   7    -22.8442811 -0.490333E-06  0.486E-03   11.02       5.5  T
   8    -22.8442811 -0.717869E-07  0.194E-03   11.02      13.8  T
   9    -22.8442811 -0.234500E-08  0.391E-04   11.02      68.3  T
  10    -22.8442811 -0.690896E-09  0.175E-04   11.02     152.3  T

   *** convergence criteria satisfied after 10 iterations ***

         #    Occupation            Energy/Eh            Energy/eV
      -------------------------------------------------------------
         1        2.0000           -0.7073910             -19.2491
       ...           ...                  ...                  ...
        13        2.0000           -0.5056754             -13.7601
        14        2.0000           -0.4870032             -13.2520
        15        2.0000           -0.4787908             -13.0286
        16        2.0000           -0.4413214             -12.0090
        17        2.0000           -0.4317980             -11.7498
        18        2.0000           -0.4173208             -11.3559
        19        2.0000           -0.4047740             -11.0145 (HOMO)
        20                          0.0002382               0.0065 (LUMO)
        21                          0.0478648               1.3025
        22                          0.0565337               1.5384
        23                          0.0845101               2.2996
        24                          0.1141170               3.1053
       ...                                ...                  ...
        32                          0.2913146               7.9271
      -------------------------------------------------------------
                  HL-Gap            0.4050122 Eh           11.0209 eV
             Fermi-level           -0.2022679 Eh           -5.5040 eV

 SCC (total)                   0 d,  0 h,  0 min,  0.016 sec
 SCC setup                      ...        0 min,  0.000 sec (  1.090%)
 Dispersion                     ...        0 min,  0.000 sec (  0.416%)
 classical contributions        ...        0 min,  0.000 sec (  0.104%)
 integral evaluation            ...        0 min,  0.001 sec (  6.808%)
 iterations                     ...        0 min,  0.011 sec ( 71.340%)
 molecular gradient             ...        0 min,  0.003 sec ( 19.074%)
 printout                       ...        0 min,  0.000 sec (  1.070%)

         :::::::::::::::::::::::::::::::::::::::::::::::::::::
         ::                     SUMMARY                     ::
         :::::::::::::::::::::::::::::::::::::::::::::::::::::
         :: total energy             -22.670835482109 Eh    ::
         :: gradient norm              0.010199862994 Eh/a0 ::
         :: HOMO-LUMO gap             11.020943653155 eV    ::
         ::.................................................::
         :: SCC energy               -22.844268869331 Eh    ::
         :: -> isotropic ES            0.071251253948 Eh    ::
         :: -> anisotropic ES          0.002803431219 Eh    ::
         :: -> anisotropic XC         -0.002902814286 Eh    ::
         :: -> dispersion             -0.007247271741 Eh    ::
         :: repulsion energy           0.173433387222 Eh    ::
         :: add. restraining           0.000000000000 Eh    ::
         :: total charge              -0.000000000000 e     ::
         :::::::::::::::::::::::::::::::::::::::::::::::::::::

           -------------------------------------------------
          |                Property Printout                |
           -------------------------------------------------

    * Orbital Energies and Occupations

         #    Occupation            Energy/Eh            Energy/eV
      -------------------------------------------------------------
         1        2.0000           -0.7073910             -19.2491
       ...           ...                  ...                  ...
         7        2.0000           -0.5904912             -16.0681
         8        2.0000           -0.5754375             -15.6585
         9        2.0000           -0.5570676             -15.1586
        10        2.0000           -0.5528557             -15.0440
        11        2.0000           -0.5246738             -14.2771
        12        2.0000           -0.5167707             -14.0620
        13        2.0000           -0.5056754             -13.7601
        14        2.0000           -0.4870032             -13.2520
        15        2.0000           -0.4787908             -13.0286
        16        2.0000           -0.4413214             -12.0090
        17        2.0000           -0.4317980             -11.7498
        18        2.0000           -0.4173208             -11.3559
        19        2.0000           -0.4047740             -11.0145 (HOMO)
        20                          0.0002382               0.0065 (LUMO)
        21                          0.0478648               1.3025
        22                          0.0565337               1.5384
        23                          0.0845101               2.2996
        24                          0.1141170               3.1053
        25                          0.1266886               3.4474
        26                          0.1536794               4.1818
        27                          0.1692528               4.6056
        28                          0.1770774               4.8185
        29                          0.2106151               5.7311
        30                          0.2343776               6.3777
       ...                                ...                  ...
        32                          0.2913146               7.9271
      -------------------------------------------------------------
                  HL-Gap            0.4050122 Eh           11.0209 eV
             Fermi-level           -0.2022679 Eh           -5.5040 eV

     #   Z          covCN         q      C6AA      α(0)
     1   6 C        3.673     0.075    19.550     6.337
     2   6 C        3.721     0.103    18.986     6.223
     3   6 C        3.674     0.076    19.537     6.334
     4   8 O        1.655    -0.431    21.466     6.255
     5   8 O        1.655    -0.436    21.565     6.269
     6   8 O        1.655    -0.446    21.761     6.297
     7   1 H        0.923     0.043     2.404     2.425
     8   1 H        0.924     0.015     2.818     2.625
     9   1 H        0.923     0.022     2.710     2.574
    10   1 H        0.924     0.029     2.605     2.524
    11   1 H        0.924     0.071     2.079     2.255
    12   1 H        0.804     0.300     0.720     1.333
    13   1 H        0.805     0.287     0.762     1.371
    14   1 H        0.805     0.293     0.742     1.353

 Mol. C6AA /au·bohr⁶  :       1409.647468
 Mol. C8AA /au·bohr⁸  :      28812.912046
 Mol. α(0) /au        :         54.174447


Wiberg/Mayer (AO) data.
largest (>0.10) Wiberg bond orders for each atom

 ---------------------------------------------------------------------------
     #   Z sym  total        # sym  WBO       # sym  WBO       # sym  WBO
 ---------------------------------------------------------------------------
     1   6 C    3.954 --     6 O    0.995     2 C    0.980     8 H    0.973
                             7 H    0.968
     2   6 C    3.956 --     5 O    0.994     1 C    0.980     3 C    0.973
                             9 H    0.963
     3   6 C    3.962 --     4 O    1.016     2 C    0.973    10 H    0.972
                            11 H    0.968
     4   8 O    1.970 --     3 C    1.016    12 H    0.891
     5   8 O    1.964 --     2 C    0.994    13 H    0.901
     6   8 O    1.954 --     1 C    0.995    14 H    0.900
     7   1 H    0.998 --     1 C    0.968
     8   1 H    1.000 --     1 C    0.973
     9   1 H    1.000 --     2 C    0.963
    10   1 H    0.999 --     3 C    0.972
    11   1 H    0.995 --     3 C    0.968
    12   1 H    0.910 --     4 O    0.891
    13   1 H    0.918 --     5 O    0.901
    14   1 H    0.914 --     6 O    0.900
 ---------------------------------------------------------------------------

Topologies differ in total number of bonds
Writing topology from bond orders to xtbtopo.mol

molecular dipole:
                 x           y           z       tot (Debye)
 q only:       -1.089       0.166       0.046
   full:       -1.696       0.286       0.053       4.373
molecular quadrupole (traceless):
                xx          xy          yy          xz          yz          zz
 q only:       -0.733      -0.404       1.581       4.442       1.064      -0.849
  q+dip:       -0.238      -1.388       0.893       5.945       1.551      -0.655
   full:       -0.473      -0.962       1.601       6.058       1.533      -1.128


           -------------------------------------------------
          | TOTAL ENERGY              -22.670835482109 Eh   |
          | GRADIENT NORM               0.010199862994 Eh/α |
          | HOMO-LUMO GAP              11.020943653155 eV   |
           -------------------------------------------------

------------------------------------------------------------------------
 * finished run on 2025/04/11 at 11:19:24.205     
------------------------------------------------------------------------
 total:
 * wall-time:     0 d,  0 h,  0 min,  0.044 sec
 *  cpu-time:     0 d,  0 h,  0 min,  0.016 sec
 * ratio c/w:     0.378 speedup
 SCF:
 * wall-time:     0 d,  0 h,  0 min,  0.016 sec
 *  cpu-time:     0 d,  0 h,  0 min,  0.009 sec
 * ratio c/w:     0.584 speedup

