
                                 *****************
                                 * O   R   C   A *
                                 *****************

                                            #,                                       
                                            ###                                      
                                            ####                                     
                                            #####                                    
                                            ######                                   
                                           ########,                                 
                                     ,,################,,,,,                         
                               ,,#################################,,                 
                          ,,##########################################,,             
                       ,#########################################, ''#####,          
                    ,#############################################,,   '####,        
                  ,##################################################,,,,####,       
                ,###########''''           ''''###############################       
              ,#####''   ,,,,##########,,,,          '''####'''          '####       
            ,##' ,,,,###########################,,,                        '##       
           ' ,,###''''                  '''############,,,                           
         ,,##''                                '''############,,,,        ,,,,,,###''
      ,#''                                            '''#######################'''  
     '                                                          ''''####''''         
             ,#######,   #######,   ,#######,      ##                                
            ,#'     '#,  ##    ##  ,#'     '#,    #''#        ,####,   ,####,        
            ##       ##  ##   ,#'  ##            #'  '#       #'       #'  '#        
            ##       ##  #######   ##           ,######,      #####,   #    #        
            '#,     ,#'  ##    ##  '#,     ,#' ,#      #,     #,   #   #,  ,#        
             '#######'   ##     ##  '#######'  #'      '#     '####' # '####'        



                #########################################################
                #                        -***-                          #
                #          Department of theory and spectroscopy        #
                #                                                       #
                #                      Frank Neese                      #
                #                                                       #
                #     Directorship, Architecture, Infrastructure        #
                #                    SHARK, DRIVERS                     #
                #        Core code/Algorithms in most modules           #
                #                                                       #
                #        Max Planck Institute fuer Kohlenforschung      #
                #                Kaiser Wilhelm Platz 1                 #
                #                 D-45470 Muelheim/Ruhr                 #
                #                      Germany                          #
                #                                                       #
                #                  All rights reserved                  #
                #                        -***-                          #
                #########################################################


                         Program Version 6.0.0  -   RELEASE  -


 With contributions from (in alphabetic order):
   Daniel Aravena         : Magnetic Suceptibility
   Michael Atanasov       : Ab Initio Ligand Field Theory (pilot matlab implementation)
   Alexander A. Auer      : GIAO ZORA, VPT2 properties, NMR spectrum
   Ute Becker             : All parallelization in ORCA, NUMFREQ, NUMCALC
   Giovanni Bistoni       : ED, misc. LED, open-shell LED, HFLD
   Martin Brehm           : Molecular dynamics
   Dmytro Bykov           : pre 5.0 version of the SCF Hessian
   Marcos Casanova-Páez   : Triplet and SCS-CIS(D). UHF-(DLPNO)-IP/EA/STEOM-CCSD. UHF-CVS-IP/STEOM-CCSD
   Vijay G. Chilkuri      : MRCI spin determinant printing, contributions to CSF-ICE
   Pauline Colinet        : FMM embedding
   Dipayan Datta          : RHF DLPNO-CCSD density
   Achintya Kumar Dutta   : EOM-CC, STEOM-CC
   Nicolas Foglia         : Exact transition moments, OPA infrastructure, MCD improvements
   Dmitry Ganyushin       : Spin-Orbit,Spin-Spin,Magnetic field MRCI
   Miquel Garcia          : C-PCM and meta-GGA Hessian, CCSD/C-PCM, Gaussian charge scheme
   Tiago L. C. Gouveia    : GS-ROHF, GS-ROCIS
   Yang Guo               : DLPNO-NEVPT2, F12-NEVPT2, CIM, IAO-localization
   Andreas Hansen         : Spin unrestricted coupled pair/coupled cluster methods
   Ingolf Harden          : AUTO-CI MPn and infrastructure 
   Benjamin Helmich-Paris : MC-RPA, TRAH-(SCF,CASSCF), AVAS, COSX integrals, SCF dyn. polar.
   Lee Huntington         : MR-EOM, pCC
   Robert Izsak           : Overlap fitted RIJCOSX, COSX-SCS-MP3, EOM
   Riya Kayal             : Wick's Theorem for AUTO-CI, AUTO-CI UHF-CCSDT
   Emily Kempfer          : AUTO-CI, RHF CISDT and CCSDT
   Christian Kollmar      : KDIIS, OOCD, Brueckner-CCSD(T), CCSD density, CASPT2, CASPT2-K, improved NEVPT2
   Axel Koslowski         : Symmetry handling
   Simone Kossmann        : Meta GGA functionals, TD-DFT gradient, OOMP2, (MP2 Hessian; deprecated post 5.0)
   Lucas Lang             : DCDCAS
   Marvin Lechner         : AUTO-CI (C++ implementation), FIC-MRCC
   Spencer Leger          : CASSCF response
   Dagmar Lenk            : GEPOL surface, SMD, ORCA-2-JSON
   Dimitrios Liakos       : Extrapolation schemes; Compound Job, initial MDCI parallelization
   Dimitrios Manganas     : Further ROCIS development; embedding schemes. LFT, Crystal Embedding
   Dimitrios Pantazis     : SARC Basis sets
   Anastasios Papadopoulos: AUTO-CI, single reference methods and gradients
   Taras Petrenko         : pre 6.0 DFT Hessian and TD-DFT gradient, (ASA, deprecated), ECA, 1-Electron XAS/XES, NRVS
   Peter Pinski           : DLPNO-MP2, DLPNO-MP2 Gradient
   Christoph Reimann      : Effective Core Potentials
   Marius Retegan         : Local ZFS, SOC
   Christoph Riplinger    : Optimizer, TS searches, QM/MM, DLPNO-CCSD(T), (RO)-DLPNO pert. Triples
   Michael Roemelt        : Original ROCIS implementation
   Masaaki Saitow         : Open-shell DLPNO-CCSD energy and density
   Barbara Sandhoefer     : DKH picture change effects
   Kantharuban Sivalingam : CASSCF convergence/infrastructure, NEVPT2 and variants, FIC-MRCI
   Bernardo de Souza      : ESD, SOC TD-DFT
   Georgi Stoychev        : AutoAux, RI-MP2 NMR, DLPNO-MP2 response, X2C
   Van Anh Tran           : RI-MP2 g-tensors
   Willem Van den Heuvel  : Paramagnetic NMR
   Zikuan Wang            : NOTCH, Electric field optimization 
   Frank Wennmohs         : Technical directorship and infrastructure
   Hang Xu                : AUTO-CI-Response properties 


 We gratefully acknowledge several colleagues who have allowed us to
 interface, adapt or use parts of their codes:
   Stefan Grimme, W. Hujo, H. Kruse, P. Pracht,  : VdW corrections, initial TS optimization,
                  C. Bannwarth, S. Ehlert,         DFT functionals, gCP, sTDA/sTD-DF
                  L. Wittmann, M. Mueller
   Ed Valeev, F. Pavosevic, A. Kumar             : LibInt (2-el integral package), F12 methods
   Garnet Chan, S. Sharma, J. Yang, R. Olivares  : DMRG
   Ulf Ekstrom                                   : XCFun DFT Library
   Mihaly Kallay                                 : mrcc  (arbitrary order and MRCC methods)
   Frank Weinhold                                : gennbo (NPA and NBO analysis)
   Simon Mueller                                 : openCOSMO-RS
   Christopher J. Cramer and Donald G. Truhlar   : smd solvation model
   Lars Goerigk                                  : TD-DFT with DH, B97 family of functionals
   V. Asgeirsson, H. Jonsson                     : NEB implementation
   FAccTs GmbH                                   : IRC, NEB, NEB-TS, DLPNO-Multilevel, CI-OPT
                                                   MM, QMMM, 2- and 3-layer-ONIOM, Crystal-QMMM,
                                                   LR-CPCM, SF, NACMEs, symmetry and pop. for TD-DFT,
                                                   nearIR, NL-DFT gradient (VV10), updates on ESD,
                                                   ML-optimized integration grids, MBIS, APM,
                                                   GOAT, DOCKER, SOLVATOR, interface openCOSMO-RS
   S Lehtola, MJT Oliveira, MAL Marques          : LibXC Library
   Liviu Ungur et al                             : ANISO software


 Your calculation uses the libint2 library for the computation of 2-el integrals
 For citations please refer to: http://libint.valeyev.net

 Your ORCA version has been built with support for libXC version: 6.2.2
 For citations please refer to: https://libxc.gitlab.io

 This ORCA versions uses:
   CBLAS   interface :  Fast vector & matrix operations
   LAPACKE interface :  Fast linear algebra routines
   SCALAPACK package :  Parallel linear algebra routines
   Shared memory     :  Shared parallel matrices
   BLAS/LAPACK       :  OpenBLAS 0.3.27  USE64BITINT DYNAMIC_ARCH NO_AFFINITY SkylakeX SINGLE_THREADED
        Core in use  :  SkylakeX
   Copyright (c) 2011-2014, The OpenBLAS Project


Your calculation utilizes the geometrical counterpoise correction gCP
Please cite in your paper:
H.Kruse, S. Grimme J.Chem.Phys., 136, (2012), 154101 
   

Your calculation utilizes the atom-pairwise dispersion correction
based on EEQ partial charges (D4)


================================================================================

----- Orbital basis set information -----
Your calculation utilizes the basis: def2-mTZVPP
   Stefan Grimme, Andreas Hansen, Sebastian Ehlert, and Jan-Michael Mewes 
   J. Chem. Phys. 154, 064103 (2021). DOI: 10.1063/5.0040021

----- AuxJ basis set information -----
Your calculation utilizes the auxiliary basis: def2/J
   F. Weigend, Phys. Chem. Chem. Phys. 8, 1057 (2006).

================================================================================
                                        WARNINGS
                       Please study these warnings very carefully!
================================================================================

Using LibXC functional ID 497 : Re-regularized SCAN exchange by Furness et al
[ 1]  J. W. Furness, A. D. Kaplan, J. Ning, J. P. Perdew, and J. Sun.,  J. Phys. Chem. Lett. 11, 8208-8215 (2020)
[ 2]  J. W. Furness, A. D. Kaplan, J. Ning, J. P. Perdew, and J. Sun.,  J. Phys. Chem. Lett. 11, 9248-9248 (2020)
Using LibXC functional ID 498 : Re-regularized SCAN correlation by Furness et al
[ 1]  J. W. Furness, A. D. Kaplan, J. Ning, J. P. Perdew, and J. Sun.,  J. Phys. Chem. Lett. 11, 8208-8215 (2020)
[ 2]  J. W. Furness, A. D. Kaplan, J. Ning, J. P. Perdew, and J. Sun.,  J. Phys. Chem. Lett. 11, 9248-9248 (2020)
Using LibXC functional ID 497 : Re-regularized SCAN exchange by Furness et al
[ 1]  J. W. Furness, A. D. Kaplan, J. Ning, J. P. Perdew, and J. Sun.,  J. Phys. Chem. Lett. 11, 8208-8215 (2020)
[ 2]  J. W. Furness, A. D. Kaplan, J. Ning, J. P. Perdew, and J. Sun.,  J. Phys. Chem. Lett. 11, 9248-9248 (2020)
Using LibXC functional ID 498 : Re-regularized SCAN correlation by Furness et al
[ 1]  J. W. Furness, A. D. Kaplan, J. Ning, J. P. Perdew, and J. Sun.,  J. Phys. Chem. Lett. 11, 8208-8215 (2020)
[ 2]  J. W. Furness, A. D. Kaplan, J. Ning, J. P. Perdew, and J. Sun.,  J. Phys. Chem. Lett. 11, 9248-9248 (2020)

================================================================================
                                       INPUT FILE
================================================================================
NAME = sp_gas.inp
|  1> ! r2scan-3c def2/J RI DEFGRID2 scfconv6 printgap
|  2> %output
|  3>     printlevel normal
|  4> end
|  5> * xyz 0 1
|  6> C -2.4994519751 0.5088429962 0.8795358058
|  7> C -1.8755728577 -0.4989729169 -0.0785108491
|  8> C -0.8528796225 0.153853967 -1.0050674512
|  9> O 0.2625091483 0.6784380979 -0.2711386587
| 10> C 1.274781843 -0.1358518518 0.0069448149
| 11> O 1.3153691862 -1.298647689 -0.3394550046
| 12> C 2.3498351632 0.5699236723 0.778146308
| 13> H -3.1887219607 0.0096953589 1.5547502629
| 14> H -1.728212403 0.9981432645 1.4693642681
| 15> H -3.043759776 1.2696257575 0.3259966342
| 16> H -2.6474712002 -0.9549624224 -0.6986406236
| 17> H -1.3785100336 -1.2943650511 0.4814872952
| 18> H -0.480680802 -0.5739874557 -1.7328161034
| 19> H -1.2806365778 1.0177958657 -1.5150641547
| 20> H 1.9278715626 0.9793099076 1.6917189831
| 21> H 2.7294957142 1.3958966939 0.1825935285
| 22> H 3.1495389846 -0.1257954593 1.0088976187
| 23> *
| 24> 
| 25>                          ****END OF INPUT****
================================================================================

                       ****************************
                       * Single Point Calculation *
                       ****************************

---------------------------------
CARTESIAN COORDINATES (ANGSTROEM)
---------------------------------
  C     -2.499452    0.508843    0.879536
  C     -1.875573   -0.498973   -0.078511
  C     -0.852880    0.153854   -1.005067
  O      0.262509    0.678438   -0.271139
  C      1.274782   -0.135852    0.006945
  O      1.315369   -1.298648   -0.339455
  C      2.349835    0.569924    0.778146
  H     -3.188722    0.009695    1.554750
  H     -1.728212    0.998143    1.469364
  H     -3.043760    1.269626    0.325997
  H     -2.647471   -0.954962   -0.698641
  H     -1.378510   -1.294365    0.481487
  H     -0.480681   -0.573987   -1.732816
  H     -1.280637    1.017796   -1.515064
  H      1.927872    0.979310    1.691719
  H      2.729496    1.395897    0.182594
  H      3.149539   -0.125795    1.008898

----------------------------
CARTESIAN COORDINATES (A.U.)
----------------------------
  NO LB      ZA    FRAG     MASS         X           Y           Z
   0 C     6.0000    0    12.011   -4.723280    0.961574    1.662082
   1 C     6.0000    0    12.011   -3.544319   -0.942922   -0.148364
   2 C     6.0000    0    12.011   -1.611709    0.290742   -1.899302
   3 O     8.0000    0    15.999    0.496070    1.282062   -0.512378
   4 C     6.0000    0    12.011    2.408989   -0.256723    0.013124
   5 O     8.0000    0    15.999    2.485688   -2.454088   -0.641477
   6 C     6.0000    0    12.011    4.440545    1.077000    1.470483
   7 H     1.0000    0     1.008   -6.025811    0.018322    2.938052
   8 H     1.0000    0     1.008   -3.265848    1.886217    2.776696
   9 H     1.0000    0     1.008   -5.751872    2.399245    0.616044
  10 H     1.0000    0     1.008   -5.002996   -1.804617   -1.320239
  11 H     1.0000    0     1.008   -2.605006   -2.445995    0.909879
  12 H     1.0000    0     1.008   -0.908355   -1.084679   -3.274548
  13 H     1.0000    0     1.008   -2.420052    1.923355   -2.863056
  14 H     1.0000    0     1.008    3.643149    1.850628    3.196886
  15 H     1.0000    0     1.008    5.157999    2.637862    0.345052
  16 H     1.0000    0     1.008    5.951766   -0.237719    1.906540

--------------------------------
INTERNAL COORDINATES (ANGSTROEM)
--------------------------------
 C      0   0   0     0.000000000000     0.00000000     0.00000000
 C      1   0   0     1.524064126207     0.00000000     0.00000000
 C      2   1   0     1.526627502229   111.89919151     0.00000000
 O      3   2   1     1.434549438981   111.51379646    63.74010993
 C      4   3   2     1.328568609033   118.38347946    86.28413093
 O      5   4   3     1.213974598741   123.56049768     0.86216262
 C      5   4   3     1.499536753351   111.43331458   180.12783629
 H      1   2   3     1.086349869954   110.27968210   182.52009192
 H      1   2   3     1.087254728695   110.37962387   302.57376347
 H      1   2   3     1.086953083858   110.34669640    62.43236426
 H      2   1   3     1.090098352215   110.14209845   239.93515917
 H      2   1   3     1.092390964751   110.21223593   120.85368738
 H      3   2   1     1.094487642396   110.30383910   184.49685935
 H      3   2   1     1.090627459180   111.08867686   307.30202842
 H      7   5   4     1.086400203688   109.35255173    57.49270472
 H      7   5   4     1.086764316477   109.04670303   299.52451566
 H      7   5   4     1.084802968020   109.63659832   178.70438300

---------------------------
INTERNAL COORDINATES (A.U.)
---------------------------
 C      0   0   0     0.000000000000     0.00000000     0.00000000
 C      1   0   0     2.880063809065     0.00000000     0.00000000
 C      2   1   0     2.884907887725   111.89919151     0.00000000
 O      3   2   1     2.710905565244   111.51379646    63.74010993
 C      4   3   2     2.510630821196   118.38347946    86.28413093
 O      5   4   3     2.294079525157   123.56049768     0.86216262
 C      5   4   3     2.833713791583   111.43331458   180.12783629
 H      1   2   3     2.052903739833   110.27968210   182.52009192
 H      1   2   3     2.054613675045   110.37962387   302.57376347
 H      1   2   3     2.054043648912   110.34669640    62.43236426
 H      2   1   3     2.059987344725   110.14209845   239.93515917
 H      2   1   3     2.064319754549   110.21223593   120.85368738
 H      3   2   1     2.068281901090   110.30383910   184.49685935
 H      3   2   1     2.060987211985   111.08867686   307.30202842
 H      7   5   4     2.052998856807   109.35255173    57.49270472
 H      7   5   4     2.053686930259   109.04670303   299.52451566
 H      7   5   4     2.049980518823   109.63659832   178.70438300

---------------------
BASIS SET INFORMATION
---------------------
There are 3 groups of distinct atoms

 Group   1 Type C   : 11s6p1d contracted to 5s3p1d pattern {62111/411/1}
 Group   2 Type O   : 11s6p2d contracted to 5s3p2d pattern {62111/411/11}
 Group   3 Type H   : 4s1p contracted to 2s1p pattern {31/1}

Atom   0C    basis set group =>   1
Atom   1C    basis set group =>   1
Atom   2C    basis set group =>   1
Atom   3O    basis set group =>   2
Atom   4C    basis set group =>   1
Atom   5O    basis set group =>   2
Atom   6C    basis set group =>   1
Atom   7H    basis set group =>   3
Atom   8H    basis set group =>   3
Atom   9H    basis set group =>   3
Atom  10H    basis set group =>   3
Atom  11H    basis set group =>   3
Atom  12H    basis set group =>   3
Atom  13H    basis set group =>   3
Atom  14H    basis set group =>   3
Atom  15H    basis set group =>   3
Atom  16H    basis set group =>   3
---------------------------------
AUXILIARY/J BASIS SET INFORMATION
---------------------------------
There are 3 groups of distinct atoms

 Group   1 Type C   : 12s5p4d2f1g contracted to 6s4p3d1f1g pattern {711111/2111/211/2/1}
 Group   2 Type O   : 12s5p4d2f1g contracted to 6s4p3d1f1g pattern {711111/2111/211/2/1}
 Group   3 Type H   : 5s2p1d contracted to 3s1p1d pattern {311/2/1}

Atom   0C    basis set group =>   1
Atom   1C    basis set group =>   1
Atom   2C    basis set group =>   1
Atom   3O    basis set group =>   2
Atom   4C    basis set group =>   1
Atom   5O    basis set group =>   2
Atom   6C    basis set group =>   1
Atom   7H    basis set group =>   3
Atom   8H    basis set group =>   3
Atom   9H    basis set group =>   3
Atom  10H    basis set group =>   3
Atom  11H    basis set group =>   3
Atom  12H    basis set group =>   3
Atom  13H    basis set group =>   3
Atom  14H    basis set group =>   3
Atom  15H    basis set group =>   3
Atom  16H    basis set group =>   3

Checking for AutoStart:
The File: sp_gas.gbw exists
Trying to determine its content:
     ... Fine, the file contains calculation information
     ... Fine, the calculation information was read
     ... Fine, the file contains a basis set
     ... Fine, the basis set was read
     ... Fine, the file contains a geometry
     ... Fine, the geometry was read
     ... Fine, the file contains a set of orbitals
     ... Fine, the orbitals can be read
     => possible old guess file was deleted
     => GBW file was renamed to GES file
     => GES file is set as startup file
     => Guess is set to MORead
     ... now leaving AutoStart

------------------------------------------------------------------------------
                             ORCA STARTUP CALCULATIONS
                           -- RI-GTO INTEGRALS CHOSEN --
------------------------------------------------------------------------------
------------------------------------------------------------------------------
                   ___                                                        
                  /   \      - P O W E R E D   B Y -                         
                 /     \                                                     
                 |  |  |   _    _      __       _____    __    __             
                 |  |  |  | |  | |    /  \     |  _  \  |  |  /  |          
                  \  \/   | |  | |   /    \    | | | |  |  | /  /          
                 / \  \   | |__| |  /  /\  \   | |_| |  |  |/  /          
                |  |  |   |  __  | /  /__\  \  |    /   |      \           
                |  |  |   | |  | | |   __   |  |    \   |  |\   \          
                \     /   | |  | | |  |  |  |  | |\  \  |  | \   \       
                 \___/    |_|  |_| |__|  |__|  |_| \__\ |__|  \__/        
                                                                              
                      - O R C A' S   B I G   F R I E N D -                    
                                      &                                       
                       - I N T E G R A L  F E E D E R -                       
                                                                              
 v1 FN, 2020, v2 2021, v3 2022-2024                                           
------------------------------------------------------------------------------


----------------------
SHARK INTEGRAL PACKAGE
----------------------

Number of atoms                             ...     17
Number of basis functions                   ...    193
Number of shells                            ...     95
Maximum angular momentum                    ...      2
Integral batch strategy                     ... SHARK/LIBINT Hybrid
RI-J (if used) integral strategy            ... SPLIT-RIJ (Revised 2003 algorithm where possible)
Printlevel                                  ...      1
Contraction scheme used                     ... SEGMENTED contraction
Prescreening option                         ... SCHWARTZ
   Thresh                                   ... 1.000e-10
   Tcut                                     ... 1.000e-11
   Tpresel                                  ... 1.000e-11 
Coulomb Range Separation                    ... NOT USED
Exchange Range Separation                   ... NOT USED
Multipole approximations                    ... NOT USED
Finite Nucleus Model                        ... NOT USED
CABS basis                                  ... NOT available
Auxiliary Coulomb fitting basis             ... AVAILABLE
   # of basis functions in Aux-J            ...    453
   # of shells in Aux-J                     ...    155
   Maximum angular momentum in Aux-J        ...      4
Auxiliary J/K fitting basis                 ... NOT available
Auxiliary Correlation fitting basis         ... NOT available
Auxiliary 'external' fitting basis          ... NOT available

Checking pre-screening integrals            ... done (  0.0 sec) Dimension = 95
Check shell pair data                       ... done (  0.0 sec)
Shell pair information
Shell pair cut-off parameter TPreSel        ...   1.0e-11
Total number of shell pairs                 ...      4560
Shell pairs after pre-screening             ...      4114
Total number of primitive shell pairs       ...     16115
Primitive shell pairs kept                  ...     10480
          la=0 lb=0:   1367 shell pairs
          la=1 lb=0:   1536 shell pairs
          la=1 lb=1:    451 shell pairs
          la=2 lb=0:    459 shell pairs
          la=2 lb=1:    258 shell pairs
          la=2 lb=2:     43 shell pairs

Calculating one electron integrals          ... done (  0.0 sec)
Calculating RI/J V-Matrix + Cholesky decomp.... done (  0.1 sec)
Calculating Nuclear repulsion               ... done (  0.0 sec) ENN=    318.543071939546 Eh

Diagonalization of the overlap matrix:
Smallest eigenvalue                        ... 2.865e-04
Time for diagonalization                   ...    0.004 sec
Threshold for overlap eigenvalues          ... 1.000e-07
Number of eigenvalues below threshold      ... 0
Time for construction of square roots      ...    0.015 sec
Total time needed                          ...    0.039 sec

-------------------
DFT GRID GENERATION
-------------------

General Integration Accuracy     IntAcc      ... 4.388
Radial Grid Type                 RadialGrid  ... OptM3 with GC (2021)
Angular Grid (max. ang.)         AngularGrid ... 4 (Lebedev-302)
Angular grid pruning method      GridPruning ... 4 (adaptive)
Weight generation scheme         WeightScheme... mBecke (2022)
Basis function cutoff            BFCut       ... 1.0000e-10
Integration weight cutoff        WCut        ... 1.0000e-14
Partially contracted basis set               ... off
Rotationally invariant grid construction     ... off
Angular grids for H and He will be reduced by one unit
Diffuse basis detected: some atoms will have their outermost
                        angular grid increased by 1.

Total number of grid points                  ...    75141
Total number of batches                      ...     1184
Average number of points per batch           ...       63
Average number of grid points per atom       ...     4420
Initializing property integral containers    ... done (  0.0 sec)

SHARK setup successfully completed in   1.1 seconds

Maximum memory used throughout the entire STARTUP-calculation: 33.7 MB
-------------------------------------------------------------------------------
                                 ORCA GUESS
                   Start orbitals & Density for SCF / CASSCF
-------------------------------------------------------------------------------

------------
SCF SETTINGS
------------
Hamiltonian:
 Density Functional     Method          .... DFT(GTOs)
  Functional kind                       .... Exchange
  Functional name                       .... Re-regularized SCAN exchange by Furness et al
  Functional family                     .... MGGA
  Functional refs                              
    [ 0] J. W. Furness, A. D. Kaplan, J. Ning, J. P. Perdew, and J. Sun.,  J. Phys. Chem. Lett. 11, 8208-8215 (2020), doi: 10.1021/acs.jpclett.0c02405
    [ 1] J. W. Furness, A. D. Kaplan, J. Ning, J. P. Perdew, and J. Sun.,  J. Phys. Chem. Lett. 11, 9248-9248 (2020), doi: 10.1021/acs.jpclett.0c03077
  Functional external parameters        .... 6
    Parameter  0 _c1        =  6.670000e-01 : c1 parameter        
    Parameter  1 _c2        =  8.000000e-01 : c2 parameter        
    Parameter  2 _d         =  1.240000e+00 : d parameter         
    Parameter  3 _k1        =  6.500000e-02 : k1 parameter        
    Parameter  4 _eta       =  1.000000e-03 : eta parameter       
    Parameter  5 _dp2       =  3.610000e-01 : dp2 parameter       
  Functional kind                       .... Correlation
  Functional name                       .... Re-regularized SCAN correlation by Furness et al
  Functional family                     .... MGGA
  Functional refs                              
    [ 0] J. W. Furness, A. D. Kaplan, J. Ning, J. P. Perdew, and J. Sun.,  J. Phys. Chem. Lett. 11, 8208-8215 (2020), doi: 10.1021/acs.jpclett.0c02405
    [ 1] J. W. Furness, A. D. Kaplan, J. Ning, J. P. Perdew, and J. Sun.,  J. Phys. Chem. Lett. 11, 9248-9248 (2020), doi: 10.1021/acs.jpclett.0c03077
  Functional external parameters        .... 1
    Parameter  0 _eta       =  1.000000e-03 : Regularization parameter
 Gradients option       PostSCFGGA      .... off
 RI-approximation to the Coulomb term is turned on
   Number of AuxJ basis functions       .... 453


General Settings:
 Integral files         IntName         .... sp_gas
 Hartree-Fock type      HFTyp           .... RHF
 Total Charge           Charge          ....    0
 Multiplicity           Mult            ....    1
 Number of Electrons    NEL             ....   56
 Basis Dimension        Dim             ....  193
 Nuclear Repulsion      ENuc            ....    318.5430719395 Eh

Convergence Acceleration:
 AO-DIIS                CNVDIIS         .... on
   Start iteration      DIISMaxIt       ....    12
   Startup error        DIISStart       ....  0.200000
   # of expansion vecs  DIISMaxEq       ....     5
   Bias factor          DIISBfac        ....   1.050
   Max. coefficient     DIISMaxC        ....  10.000
 MO-DIIS                CNVKDIIS        .... off
 Trust-Rad. Augm. Hess. CNVTRAH         .... auto
   Auto Start mean grad. ratio tolernc. ....  1.125000
   Auto Start start iteration           ....     1
   Auto Start num. interpolation iter.  ....    10
   Max. Number of Micro iterations      ....    24
   Max. Number of Macro iterations      .... Maxiter - #DIIS iter
   Number of Davidson start vectors     ....     2
   Converg. threshold    (grad. norm)   ....   3.330e-04
   Grad. Scal. Fac. for Micro threshold ....   0.100
   Minimum threshold for Micro iter.    ....   1.000e-02
   NR start threshold (gradient norm)   ....   1.000e-04
   Initial trust radius                 ....   0.400
   Minimum AH scaling param. (alpha)    ....   1.000
   Maximum AH scaling param. (alpha)    .... 1000.000
   Quad. conv. algorithm                .... NR
   White noise on init. David. guess    .... on
   Maximum white noise                  ....   0.010
   Pseudo random numbers                .... off
   Inactive MOs                         .... canonical
   Orbital update algorithm             .... Taylor
   Preconditioner                       .... Diag
   Full preconditioner red. dimension   ....   250
   COSX micro iterations for RIJONX calc.... off
 SOSCF                  CNVSOSCF        .... on
   Start iteration      SOSCFMaxIt      ....   150
   Startup grad/error   SOSCFStart      ....  0.003300
   Hessian update       SOSCFHessUp     .... L-BFGS
 Level Shifting         CNVShift        .... on
   Level shift para.    LevelShift      ....    0.2500
   Turn off err/grad.   ShiftErr        ....    0.0010
 Zerner damping         CNVZerner       .... off
 Static damping         CNVDamp         .... on
   Fraction old density DampFac         ....    0.7000
   Max. Damping (<1)    DampMax         ....    0.9800
   Min. Damping (>=0)   DampMin         ....    0.0000
   Turn off err/grad.   DampErr         ....    0.1000

SCF Procedure:
 Maximum # iterations   MaxIter         ....   125
 SCF integral mode      SCFMode         .... Direct
   Integral package                     .... SHARK and LIBINT hybrid scheme
 Reset frequency        DirectResetFreq ....    20
 Integral Threshold     Thresh          ....  1.000e-10 Eh
 Primitive CutOff       TCut            ....  1.000e-11 Eh

Convergence Tolerance:
 Convergence Check Mode ConvCheckMode   .... Total+1el-Energy
 Convergence forced     ConvForced      .... 0
 Energy Change          TolE            ....  1.000e-06 Eh
 1-El. energy change                    ....  1.000e-03 Eh
 Orbital Gradient       TolG            ....  3.330e-04
 Orbital Rotation angle TolX            ....  3.330e-04
 DIIS Error             TolErr          ....  1.000e-06

---------------------
INITIAL GUESS: MOREAD
---------------------
Guess MOs are being read from file: sp_gas.ges
Input Geometry matches current geometry (good)
Atom 0: N(Shells)= 9 and 6 - projection required
Input basis set needs projection
NBasis(read)= 118
NBasis(calc)= 193
Basis set overlap was calculated
Using GuessMode=FMatrix for the initial guess
C*T matrix was formed
Effective Fockian was calculated
Effective Fockian was diagonalized
Initial density was built
                      ------------------
                      INITIAL GUESS DONE (   0.0 sec)
                      ------------------
             **** ENERGY FILE WAS UPDATED (sp_gas.en.tmp) ****
Finished Guess after   0.3 sec
Maximum memory used throughout the entire GUESS-calculation: 13.0 MB

-------------------------------------------------------------------------------------------
                                      ORCA LEAN-SCF
                              memory conserving SCF solver
-------------------------------------------------------------------------------------------

----------------------------------------D-I-I-S--------------------------------------------
Iteration    Energy (Eh)           Delta-E    RMSDP     MaxDP     DIISErr   Damp  Time(sec)
-------------------------------------------------------------------------------------------
               ***  Starting incremental Fock matrix formation  ***
    1    -346.7676779743948714     0.00e+00  3.60e-03  1.25e-01  6.26e-01  0.700   2.2
    2    -346.8199017833329094    -5.22e-02  2.97e-03  9.27e-02  4.40e-01  0.700   2.3
    3    -346.8568127474235894    -3.69e-02  2.19e-03  6.57e-02  3.09e-01  0.700   2.1
    4    -346.8827254834248492    -2.59e-02  1.57e-03  4.64e-02  2.16e-01  0.700   2.0
                               ***Turning on AO-DIIS***
    5    -346.9009004753023078    -1.82e-02  1.14e-03  3.34e-02  1.51e-01  0.700   1.9
    6    -346.9136397727484677    -1.27e-02  8.10e-04  2.36e-02  1.06e-01  0.700   2.0
    7    -346.9225698453132622    -8.93e-03  5.71e-04  1.66e-02  7.41e-02  0.700   2.0
    8    -346.9288262268390213    -6.26e-03  1.34e-03  3.88e-02  5.19e-02  0.000   2.0
                              *** Initializing SOSCF ***
---------------------------------------S-O-S-C-F--------------------------------------
Iteration    Energy (Eh)           Delta-E    RMSDP     MaxDP     MaxGrad    Time(sec)
--------------------------------------------------------------------------------------
    9    -346.9434428471278693    -1.46e-02  8.39e-06  2.42e-04  7.99e-05     2.0
                  *** Gradient check signals convergence ***

               *****************************************************
               *                     SUCCESS                       *
               *           SCF CONVERGED AFTER   9 CYCLES          *
               *****************************************************

             **** ENERGY FILE WAS UPDATED (sp_gas.en.tmp) ****

----------------
TOTAL SCF ENERGY
----------------

Total Energy       :       -346.94344284712787 Eh           -9440.81104 eV

Components:
Nuclear Repulsion  :        318.54307193954634 Eh            8667.99766 eV
Electronic Energy  :       -665.48651478667421 Eh          -18108.80870 eV
One Electron Energy:      -1102.38565403892608 Eh          -29997.43869 eV
Two Electron Energy:        436.89913925225193 Eh           11888.62999 eV

Virial components:
Potential Energy   :       -692.47440805192207 Eh          -18843.18661 eV
Kinetic Energy     :        345.53096520479420 Eh            9402.37557 eV
Virial Ratio       :          2.00408784677662

DFT components:
N(Alpha)           :       27.999997802576 electrons
N(Beta)            :       27.999997802576 electrons
N(Total)           :       55.999995605151 electrons
E(X)               :      -46.157515333733 Eh       
E(C)               :       -1.788287566298 Eh       
E(XC)              :      -47.945802900030 Eh       

---------------
SCF CONVERGENCE
---------------

  Last Energy change         ...    1.4617e-02  Tolerance :   1.0000e-06
  Last MAX-Density change    ...    2.4208e-04  Tolerance :   1.0000e-05
  Last RMS-Density change    ...    8.3875e-06  Tolerance :   1.0000e-06
  Last DIIS Error            ...    7.9853e-05  Tolerance :   1.0000e-06
  Last Orbital Gradient      ...    7.9853e-05  Tolerance :   3.3300e-04
  Last Orbital Rotation      ...    7.9853e-05  Tolerance :   3.3300e-04


----------------
ORBITAL ENERGIES
----------------

  NO   OCC          E(Eh)            E(eV) 
   0   2.0000     -18.996279      -516.9150 
   1   2.0000     -18.928971      -515.0835 
   2   2.0000     -10.156148      -276.3628 
   3   2.0000     -10.088105      -274.5113 
   4   2.0000     -10.039380      -273.1854 
   5   2.0000     -10.035054      -273.0677 
   6   2.0000     -10.021555      -272.7004 
   7   2.0000      -1.072115       -29.1737 
   8   2.0000      -0.976101       -26.5611 
   9   2.0000      -0.766820       -20.8662 
  10   2.0000      -0.721494       -19.6329 
  11   2.0000      -0.660734       -17.9795 
  12   2.0000      -0.588831       -16.0229 
  13   2.0000      -0.515175       -14.0186 
  14   2.0000      -0.469252       -12.7690 
  15   2.0000      -0.455625       -12.3982 
  16   2.0000      -0.443607       -12.0712 
  17   2.0000      -0.413885       -11.2624 
  18   2.0000      -0.410251       -11.1635 
  19   2.0000      -0.384060       -10.4508 
  20   2.0000      -0.371473       -10.1083 
  21   2.0000      -0.357255        -9.7214 
  22   2.0000      -0.346303        -9.4234 
  23   2.0000      -0.323804        -8.8111 
  24   2.0000      -0.314675        -8.5627 
  25   2.0000      -0.302429        -8.2295 
  26   2.0000      -0.269534        -7.3344 
  27   2.0000      -0.236533        -6.4364 
  28   0.0000      -0.014560        -0.3962 
  29   0.0000       0.074007         2.0138 
  30   0.0000       0.087040         2.3685 
  31   0.0000       0.112567         3.0631 
  32   0.0000       0.121298         3.3007 
  33   0.0000       0.130026         3.5382 
  34   0.0000       0.138576         3.7709 
  35   0.0000       0.152299         4.1443 
  36   0.0000       0.156992         4.2720 
  37   0.0000       0.167866         4.5679 
  38   0.0000       0.180925         4.9232 
*Only the first 10 virtual orbitals were printed.

                    ********************************
                    * MULLIKEN POPULATION ANALYSIS *
                    ********************************

-----------------------
MULLIKEN ATOMIC CHARGES
-----------------------
   0 C :   -0.487665
   1 C :   -0.231953
   2 C :   -0.143467
   3 O :   -0.180807
   4 C :    0.419805
   5 O :   -0.431430
   6 C :   -0.520818
   7 H :    0.148354
   8 H :    0.156856
   9 H :    0.140760
  10 H :    0.140727
  11 H :    0.163065
  12 H :    0.168878
  13 H :    0.146067
  14 H :    0.166060
  15 H :    0.168024
  16 H :    0.177544
Sum of atomic charges:    0.0000000

--------------------------------
MULLIKEN REDUCED ORBITAL CHARGES
--------------------------------
  0 C s       :     3.328815  s :     3.328815
      pz      :     1.038576  p :     3.132007
      px      :     1.076902
      py      :     1.016529
      dz2     :     0.002051  d :     0.026843
      dxz     :     0.007805
      dyz     :     0.007679
      dx2y2   :     0.002261
      dxy     :     0.007046

  1 C s       :     3.190143  s :     3.190143
      pz      :     0.996744  p :     3.005788
      px      :     1.011822
      py      :     0.997222
      dz2     :     0.003350  d :     0.036021
      dxz     :     0.010395
      dyz     :     0.009778
      dx2y2   :     0.004264
      dxy     :     0.008235

  2 C s       :     3.245983  s :     3.245983
      pz      :     0.952592  p :     2.843903
      px      :     0.831467
      py      :     1.059844
      dz2     :     0.006460  d :     0.053582
      dxz     :     0.014394
      dyz     :     0.011708
      dx2y2   :     0.009135
      dxy     :     0.011885

  3 O s       :     3.699435  s :     3.699435
      pz      :     1.608026  p :     4.454347
      px      :     1.225579
      py      :     1.620743
      dz2     :     0.003799  d :     0.027024
      dxz     :     0.003160
      dyz     :     0.009888
      dx2y2   :     0.002743
      dxy     :     0.007434

  4 C s       :     3.107021  s :     3.107021
      pz      :     0.777199  p :     2.348049
      px      :     0.799323
      py      :     0.771526
      dz2     :     0.011895  d :     0.125125
      dxz     :     0.012040
      dyz     :     0.027457
      dx2y2   :     0.027366
      dxy     :     0.046366

  5 O s       :     3.840611  s :     3.840611
      pz      :     1.501736  p :     4.570125
      px      :     1.748729
      py      :     1.319660
      dz2     :     0.003804  d :     0.020694
      dxz     :     0.001042
      dyz     :     0.006644
      dx2y2   :     0.007035
      dxy     :     0.002169

  6 C s       :     3.338581  s :     3.338581
      pz      :     1.050280  p :     3.157599
      px      :     1.019584
      py      :     1.087736
      dz2     :     0.003110  d :     0.024637
      dxz     :     0.005954
      dyz     :     0.005667
      dx2y2   :     0.002640
      dxy     :     0.007267

  7 H s       :     0.833308  s :     0.833308
      pz      :     0.006624  p :     0.018338
      px      :     0.006646
      py      :     0.005069

  8 H s       :     0.824853  s :     0.824853
      pz      :     0.005730  p :     0.018291
      px      :     0.007376
      py      :     0.005185

  9 H s       :     0.840983  s :     0.840983
      pz      :     0.005349  p :     0.018257
      px      :     0.005533
      py      :     0.007375

 10 H s       :     0.841251  s :     0.841251
      pz      :     0.005733  p :     0.018021
      px      :     0.007328
      py      :     0.004960

 11 H s       :     0.819107  s :     0.819107
      pz      :     0.005251  p :     0.017828
      px      :     0.004983
      py      :     0.007594

 12 H s       :     0.813221  s :     0.813221
      pz      :     0.006729  p :     0.017901
      px      :     0.003726
      py      :     0.007447

 13 H s       :     0.836573  s :     0.836573
      pz      :     0.005145  p :     0.017360
      px      :     0.004016
      py      :     0.008199

 14 H s       :     0.815377  s :     0.815377
      pz      :     0.009064  p :     0.018564
      px      :     0.004569
      py      :     0.004930

 15 H s       :     0.813393  s :     0.813393
      pz      :     0.005843  p :     0.018583
      px      :     0.004570
      py      :     0.008169

 16 H s       :     0.804483  s :     0.804483
      pz      :     0.003734  p :     0.017973
      px      :     0.007651
      py      :     0.006588


------------------------
MULLIKEN OVERLAP CHARGES
------------------------
B(  0-C ,  1-C ) :   0.4244 B(  0-C ,  2-C ) :  -0.2227 B(  0-C ,  7-H ) :   0.7963 
B(  0-C ,  8-H ) :   0.8705 B(  0-C ,  9-H ) :   0.8281 B(  0-C , 11-H ) :  -0.0672 
B(  1-C ,  2-C ) :   0.5651 B(  1-C ,  3-O ) :  -0.1707 B(  1-C ,  7-H ) :  -0.0763 
B(  1-C ,  8-H ) :  -0.1050 B(  1-C ,  9-H ) :  -0.0678 B(  1-C , 10-H ) :   0.7846 
B(  1-C , 11-H ) :   0.8601 B(  1-C , 12-H ) :  -0.0869 B(  1-C , 13-H ) :  -0.0709 
B(  2-C ,  3-O ) :   0.3175 B(  2-C ,  4-C ) :  -0.2041 B(  2-C , 10-H ) :  -0.0727 
B(  2-C , 11-H ) :  -0.0934 B(  2-C , 12-H ) :   0.8336 B(  2-C , 13-H ) :   0.7977 
B(  3-O ,  4-C ) :   0.3383 B(  3-O ,  5-O ) :  -0.2326 B(  3-O ,  6-C ) :  -0.0819 
B(  3-O , 12-H ) :  -0.0551 B(  3-O , 13-H ) :  -0.1008 B(  4-C ,  5-O ) :   1.0170 
B(  4-C ,  6-C ) :   0.5470 B(  4-C , 16-H ) :  -0.1188 B(  5-O ,  6-C ) :  -0.1335 
B(  6-C , 14-H ) :   0.7840 B(  6-C , 15-H ) :   0.7799 B(  6-C , 16-H ) :   0.8790 



                     *******************************
                     * LOEWDIN POPULATION ANALYSIS *
                     *******************************

----------------------
LOEWDIN ATOMIC CHARGES
----------------------
   0 C :   -0.420086
   1 C :   -0.287058
   2 C :    0.032561
   3 O :   -0.599587
   4 C :    0.353662
   5 O :   -0.434370
   6 C :   -0.335520
   7 H :    0.151947
   8 H :    0.156685
   9 H :    0.150578
  10 H :    0.160070
  11 H :    0.167944
  12 H :    0.191797
  13 H :    0.180584
  14 H :    0.177516
  15 H :    0.178861
  16 H :    0.174416

-------------------------------
LOEWDIN REDUCED ORBITAL CHARGES
-------------------------------
  0 C s       :     2.972202  s :     2.972202
      pz      :     1.126371  p :     3.384843
      px      :     1.137904
      py      :     1.120569
      dz2     :     0.003707  d :     0.063041
      dxz     :     0.018994
      dyz     :     0.018756
      dx2y2   :     0.004540
      dxy     :     0.017043

  1 C s       :     2.938297  s :     2.938297
      pz      :     1.095918  p :     3.271235
      px      :     1.077809
      py      :     1.097508
      dz2     :     0.005761  d :     0.077527
      dxz     :     0.023698
      dyz     :     0.022207
      dx2y2   :     0.007997
      dxy     :     0.017864

  2 C s       :     2.866148  s :     2.866148
      pz      :     1.003220  p :     2.980684
      px      :     0.910949
      py      :     1.066514
      dz2     :     0.011630  d :     0.120607
      dxz     :     0.032979
      dyz     :     0.028789
      dx2y2   :     0.019175
      dxy     :     0.028034

  3 O s       :     3.461329  s :     3.461329
      pz      :     1.636474  p :     4.662324
      px      :     1.386048
      py      :     1.639802
      dz2     :     0.067703  d :     0.475934
      dxz     :     0.114518
      dyz     :     0.064925
      dx2y2   :     0.111560
      dxy     :     0.117228

  4 C s       :     2.737066  s :     2.737066
      pz      :     0.787251  p :     2.636989
      px      :     0.881157
      py      :     0.968581
      dz2     :     0.025644  d :     0.272283
      dxz     :     0.024106
      dyz     :     0.056369
      dx2y2   :     0.062504
      dxy     :     0.103661

  5 O s       :     3.551505  s :     3.551505
      pz      :     1.497808  p :     4.667529
      px      :     1.694383
      py      :     1.475337
      dz2     :     0.024877  d :     0.215336
      dxz     :     0.018337
      dyz     :     0.054548
      dx2y2   :     0.057246
      dxy     :     0.060329

  6 C s       :     2.957309  s :     2.957309
      pz      :     1.113963  p :     3.321267
      px      :     1.083641
      py      :     1.123663
      dz2     :     0.007423  d :     0.056944
      dxz     :     0.012906
      dyz     :     0.013565
      dx2y2   :     0.005298
      dxy     :     0.017752

  7 H s       :     0.804426  s :     0.804426
      pz      :     0.015732  p :     0.043627
      px      :     0.015836
      py      :     0.012059

  8 H s       :     0.799388  s :     0.799388
      pz      :     0.013644  p :     0.043927
      px      :     0.018278
      py      :     0.012006

  9 H s       :     0.806049  s :     0.806049
      pz      :     0.012812  p :     0.043373
      px      :     0.012889
      py      :     0.017672

 10 H s       :     0.796299  s :     0.796299
      pz      :     0.014033  p :     0.043631
      px      :     0.017839
      py      :     0.011759

 11 H s       :     0.788473  s :     0.788473
      pz      :     0.013054  p :     0.043583
      px      :     0.012019
      py      :     0.018510

 12 H s       :     0.765005  s :     0.765005
      pz      :     0.015580  p :     0.043198
      px      :     0.009918
      py      :     0.017700

 13 H s       :     0.779431  s :     0.779431
      pz      :     0.011131  p :     0.039985
      px      :     0.008247
      py      :     0.020607

 14 H s       :     0.777972  s :     0.777972
      pz      :     0.022043  p :     0.044512
      px      :     0.010992
      py      :     0.011476

 15 H s       :     0.776604  s :     0.776604
      pz      :     0.014313  p :     0.044535
      px      :     0.010164
      py      :     0.020057

 16 H s       :     0.782073  s :     0.782073
      pz      :     0.008370  p :     0.043512
      px      :     0.018689
      py      :     0.016453


---------------------------------
LOEWDIN BOND ORDERS (THRESH 0.050000)
---------------------------------
B(  0-C ,  1-C ) :   1.1416 B(  0-C ,  2-C ) :   0.0671 B(  0-C ,  7-H ) :   0.9296 
B(  0-C ,  8-H ) :   0.9236 B(  0-C ,  9-H ) :   0.9295 B(  1-C ,  2-C ) :   1.0459 
B(  1-C ,  3-O ) :   0.1500 B(  1-C , 10-H ) :   0.8851 B(  1-C , 11-H ) :   0.8844 
B(  2-C ,  3-O ) :   1.3076 B(  2-C ,  4-C ) :   0.0822 B(  2-C ,  5-O ) :   0.0658 
B(  2-C , 12-H ) :   0.8134 B(  2-C , 13-H ) :   0.8273 B(  3-O ,  4-C ) :   1.4492 
B(  3-O ,  5-O ) :   0.4592 B(  3-O ,  6-C ) :   0.1852 B(  3-O , 12-H ) :   0.0923 
B(  3-O , 13-H ) :   0.0958 B(  4-C ,  5-O ) :   2.1775 B(  4-C ,  6-C ) :   0.9743 
B(  5-O ,  6-C ) :   0.1834 B(  6-C , 14-H ) :   0.8995 B(  6-C , 15-H ) :   0.8985 
B(  6-C , 16-H ) :   0.9094 

------------------------------------------
LOEWDIN REDUCED ORBITAL POPULATIONS PER MO
-------------------------------------------
THRESHOLD FOR PRINTING IS 0.1%%
                      0         1         2         3         4         5   
                 -18.99628 -18.92897 -10.15615 -10.08811 -10.03938 -10.03505
                   2.00000   2.00000   2.00000   2.00000   2.00000   2.00000
                  --------  --------  --------  --------  --------  --------
 1 C  s               0.0       0.0       0.0       0.0       0.0      99.7
 2 C  s               0.0       0.0       0.0      99.4       0.0       0.0
 3 O  s              99.9       0.0       0.0       0.0       0.0       0.0
 3 O  dxz             0.0       0.0       0.0       0.1       0.0       0.0
 3 O  dxy             0.0       0.0       0.2       0.1       0.0       0.0
 4 C  s               0.0       0.0      98.9       0.0       0.0       0.0
 5 O  s               0.0      99.9       0.0       0.0       0.0       0.0
 5 O  py              0.0       0.0       0.2       0.0       0.0       0.0
 5 O  dx2y2           0.0       0.0       0.2       0.0       0.0       0.0
 6 C  s               0.0       0.0       0.0       0.0      99.7       0.0

                      6         7         8         9        10        11   
                 -10.02156  -1.07212  -0.97610  -0.76682  -0.72149  -0.66073
                   2.00000   2.00000   2.00000   2.00000   2.00000   2.00000
                  --------  --------  --------  --------  --------  --------
 0 C  s              99.7       0.0       0.0      10.9       9.0      16.3
 0 C  pz              0.0       0.0       0.0       1.3       0.2       0.3
 0 C  px              0.0       0.1       0.0       0.6       0.1       0.2
 0 C  py              0.0       0.0       0.0       0.8       0.3       0.0
 1 C  s               0.0       0.3       0.2      21.7       7.4       0.2
 1 C  pz              0.0       0.1       0.0       0.0       0.6       5.8
 1 C  px              0.0       0.6       0.1       0.1       0.5       3.7
 1 C  py              0.0       0.1       0.1       1.3       0.2       0.2
 1 C  dyz             0.0       0.0       0.0       0.0       0.0       0.1
 1 C  dxy             0.0       0.0       0.0       0.0       0.0       0.1
 2 C  s               0.0       4.4       1.8      14.8       0.2      13.7
 2 C  pz              0.0       1.4       0.5       0.8       0.3       1.0
 2 C  px              0.0       3.8       0.8       2.2       2.2       0.0
 2 C  py              0.0       0.3       0.5       0.2       0.6       0.1
 2 C  dxz             0.0       0.2       0.1       0.0       0.1       0.0
 2 C  dx2y2           0.0       0.1       0.0       0.0       0.0       0.0
 3 O  s               0.0      42.0      15.8       0.5       1.0       0.7
 3 O  pz              0.0       0.0       0.1       1.7       1.3       2.7
 3 O  px              0.0       0.4       0.7       8.8       2.8       7.9
 3 O  py              0.0       2.5       0.4       0.1       0.0       0.2
 3 O  dz2             0.0       0.3       0.2       0.0       0.1       0.0
 3 O  dxz             0.0       0.2       0.0       0.1       0.2       1.4
 3 O  dyz             0.0       0.0       0.0       0.1       0.1       0.2
 3 O  dx2y2           0.0       0.0       0.3       0.0       0.8       0.4
 3 O  dxy             0.0       0.3       0.9       0.8       0.0       0.4
 4 C  s               0.0      16.3       4.2       2.3       4.1       0.5
 4 C  pz              0.0       1.0       0.3       0.6       3.4       0.6
 4 C  px              0.0       3.9       2.8       0.7       4.7       3.8
 4 C  py              0.0       0.0      20.0       3.8       4.2       0.4
 4 C  dz2             0.0       0.4       0.1       0.0       0.0       0.0
 4 C  dyz             0.0       0.0       0.5       0.0       0.0       0.0
 4 C  dx2y2           0.0       0.1       1.2       0.0       0.0       0.0
 4 C  dxy             0.0       0.5       0.2       0.0       0.1       0.3
 5 O  s               0.0      11.8      42.7       0.9       1.4       0.0
 5 O  pz              0.0       0.2       0.4       0.0       0.2       0.0
 5 O  px              0.0       0.1       0.0       0.0       0.2       0.2
 5 O  py              0.0       2.9       3.4       0.2       0.5       0.0
 5 O  dz2             0.0       0.4       0.0       0.0       0.0       0.0
 5 O  dxz             0.0       0.0       0.0       0.0       0.0       0.1
 5 O  dyz             0.0       0.1       0.1       0.1       0.4       0.0
 5 O  dx2y2           0.0       0.6       0.1       0.3       0.2       0.1
 5 O  dxy             0.0       0.4       0.2       0.0       0.3       0.1
 6 C  s               0.0       1.1       0.2       4.4      26.9       9.5
 6 C  pz              0.0       0.5       0.1       0.1       0.1       0.1
 6 C  px              0.0       1.2       0.0       0.4       0.3       0.5
 6 C  py              0.0       0.3       0.4       0.0       0.0       0.0
 7 H  s               0.0       0.0       0.0       1.4       1.5       4.1
 7 H  pz              0.0       0.0       0.0       0.1       0.1       0.1
 7 H  px              0.0       0.0       0.0       0.0       0.1       0.1
 8 H  s               0.0       0.0       0.0       1.5       1.4       3.5
 8 H  px              0.0       0.0       0.0       0.1       0.1       0.2
 9 H  s               0.0       0.0       0.0       1.5       1.5       3.6
 9 H  py              0.0       0.0       0.0       0.1       0.1       0.1
10 H  s               0.0       0.0       0.0       3.1       1.4       0.0
10 H  px              0.0       0.0       0.0       0.1       0.1       0.0
11 H  s               0.0       0.0       0.0       2.9       1.2       0.0
11 H  py              0.0       0.0       0.0       0.1       0.1       0.0
12 H  s               0.0       0.3       0.1       2.0       0.0       3.5
12 H  pz              0.0       0.0       0.0       0.1       0.0       0.1
12 H  py              0.0       0.0       0.0       0.1       0.0       0.2
13 H  s               0.0       0.3       0.2       2.5       0.0       3.9
13 H  py              0.0       0.0       0.0       0.1       0.0       0.2
14 H  s               0.0       0.1       0.0       0.7       5.3       2.2
14 H  pz              0.0       0.0       0.0       0.1       0.3       0.1
15 H  s               0.0       0.1       0.0       0.8       5.2       2.3
15 H  pz              0.0       0.0       0.0       0.0       0.1       0.1
15 H  py              0.0       0.0       0.0       0.0       0.3       0.1
16 H  s               0.0       0.1       0.0       0.6       4.8       2.7
16 H  px              0.0       0.0       0.0       0.0       0.2       0.1
16 H  py              0.0       0.0       0.0       0.0       0.2       0.1

                     12        13        14        15        16        17   
                  -0.58883  -0.51517  -0.46925  -0.45562  -0.44361  -0.41388
                   2.00000   2.00000   2.00000   2.00000   2.00000   2.00000
                  --------  --------  --------  --------  --------  --------
 0 C  s               9.9       1.3       0.3       0.0       0.0       0.0
 0 C  pz              1.9       0.3       2.4       1.0       0.7       6.4
 0 C  px              0.5       1.0       0.4       2.7       0.3      11.5
 0 C  py              3.3       2.7       0.1       1.1       2.7       0.0
 1 C  s              11.8       3.2       0.1       0.5       0.2       0.0
 1 C  pz              2.1       3.1       0.6       0.9       2.4       4.6
 1 C  px              0.2       0.0       0.7       9.9       0.4      14.7
 1 C  py              5.3       2.5       2.4       1.2       3.3       0.0
 2 C  s               0.1       6.3       0.0       0.4       0.2       0.2
 2 C  pz              0.1      16.0       0.4       5.0       0.0       0.2
 2 C  px              4.2       1.2       6.0       0.0       6.4       0.4
 2 C  py              7.5       0.9      11.3       1.7       0.1       0.9
 2 C  dz2             0.0       0.0       0.0       0.1       0.0       0.0
 2 C  dxz             0.2       0.1       0.0       0.0       0.0       0.1
 2 C  dyz             0.1       0.0       0.0       0.0       0.0       0.0
 2 C  dxy             0.0       0.4       0.0       0.0       0.1       0.0
 3 O  s               0.8       3.9       1.3       1.5       0.1       0.1
 3 O  pz              3.1       0.7       2.1       6.1      13.4       0.1
 3 O  px             10.1      10.8       0.4       5.6       1.0       0.4
 3 O  py              2.1       2.8      13.8      10.4       0.4       1.7
 3 O  dz2             0.1       0.0       0.0       0.0       0.0       0.1
 3 O  dxz             0.0       1.0       0.2       0.0       0.2       0.1
 3 O  dyz             0.0       0.2       0.7       0.2       0.0       0.1
 3 O  dx2y2           0.0       0.2       1.3       0.0       0.0       0.6
 3 O  dxy             0.1       0.2       0.5       0.0       0.2       0.4
 4 C  s               1.5       3.3       1.3       1.5       1.6       0.2
 4 C  pz              0.0       0.6       3.5       8.4       2.8       0.8
 4 C  px              1.7       0.1       6.8       0.9       7.0       2.8
 4 C  py              1.3       1.4       0.2       2.1       0.9       3.0
 4 C  dx2y2           0.0       0.0       0.1       0.2       0.1       0.0
 5 O  s               0.5       1.9       0.1       4.5       7.6       1.8
 5 O  pz              0.0       0.0       2.6       6.8       0.1       2.4
 5 O  px              0.3       0.1       5.2       0.8       2.3       1.3
 5 O  py              0.4       2.8       0.2       5.3      18.4       4.4
 5 O  dz2             0.0       0.1       0.0       0.0       0.2       0.0
 5 O  dxz             0.0       0.0       0.0       0.0       0.1       0.0
 5 O  dyz             0.0       0.0       0.4       0.7       0.0       0.1
 5 O  dx2y2           0.1       0.3       0.2       0.0       0.2       0.0
 5 O  dxy             0.1       0.0       0.7       0.1       0.3       0.2
 6 C  s               2.0       1.0       1.6       0.1       0.1       0.1
 6 C  pz              0.3       1.6       2.9       2.3       7.3      11.8
 6 C  px              1.2       2.0       6.3       1.6       1.4       0.6
 6 C  py              0.0       0.3       5.1       4.7       5.8       1.5
 6 C  dxz             0.0       0.1       0.1       0.0       0.1       0.0
 6 C  dxy             0.0       0.0       0.1       0.0       0.0       0.1
 7 H  s               3.4       0.6       1.1       0.2       0.7       0.1
 8 H  s               4.1       0.5       0.2       1.6       0.2       5.5
 8 H  px              0.2       0.1       0.0       0.0       0.0       0.0
 9 H  s               3.9       1.8       0.0       0.1       0.5       2.9
 9 H  pz              0.1       0.0       0.0       0.0       0.0       0.0
 9 H  py              0.1       0.0       0.0       0.0       0.0       0.1
10 H  s               5.5       0.8       0.2       4.6       0.2       6.0
10 H  pz              0.1       0.1       0.0       0.1       0.0       0.1
10 H  px              0.3       0.0       0.0       0.0       0.0       0.0
11 H  s               4.7       3.6       0.7       0.0       1.5       2.9
11 H  pz              0.2       0.0       0.0       0.0       0.0       0.0
11 H  py              0.1       0.1       0.0       0.0       0.0       0.1
12 H  s               0.1       8.6       4.0       0.0       0.0       0.4
12 H  pz              0.0       0.1       0.2       0.0       0.0       0.0
12 H  px              0.0       0.1       0.0       0.0       0.0       0.0
12 H  py              0.0       0.3       0.0       0.0       0.0       0.0
13 H  s               0.5       5.4       3.5       0.9       1.0       0.1
13 H  pz              0.0       0.0       0.1       0.0       0.0       0.0
13 H  py              0.0       0.3       0.1       0.0       0.0       0.0
14 H  s               0.6       0.9       2.3       0.2       5.7       2.4
14 H  pz              0.0       0.0       0.0       0.0       0.1       0.0
14 H  px              0.0       0.0       0.1       0.0       0.0       0.1
15 H  s               0.7       0.4       2.9       3.4       0.0       2.2
15 H  pz              0.0       0.0       0.1       0.0       0.1       0.0
16 H  s               1.1       1.2       1.3       0.0       0.7       2.2
16 H  py              0.0       0.0       0.1       0.0       0.0       0.0

                     18        19        20        21        22        23   
                  -0.41025  -0.38406  -0.37147  -0.35725  -0.34630  -0.32380
                   2.00000   2.00000   2.00000   2.00000   2.00000   2.00000
                  --------  --------  --------  --------  --------  --------
 0 C  s               0.1       0.0       0.0       0.0       0.3       0.0
 0 C  pz              8.8       0.5       0.6       5.8       8.3       8.9
 0 C  px              2.7       2.1       9.6       5.1       1.1       1.5
 0 C  py              4.2       6.1       2.0       5.7      14.5       5.2
 0 C  dxz             0.0       0.0       0.0       0.1       0.3       0.2
 0 C  dyz             0.0       0.0       0.1       0.0       0.0       0.0
 0 C  dxy             0.1       0.0       0.0       0.1       0.1       0.2
 1 C  s               0.2       0.0       0.1       0.3       0.2       0.1
 1 C  pz              1.1       5.3       3.1       0.2       8.1       7.5
 1 C  px              0.3       0.2       0.1       0.0       0.3       0.7
 1 C  py             10.3       0.0       0.7       0.2      10.3       3.9
 1 C  dxz             0.0       0.0       0.0       0.0       0.2       0.2
 1 C  dx2y2           0.0       0.0       0.1       0.0       0.0       0.1
 1 C  dxy             0.0       0.0       0.0       0.0       0.1       0.2
 2 C  s               0.2       0.0       0.1       0.3       0.3       0.4
 2 C  pz              6.1       0.9       3.0       0.1       0.6       6.0
 2 C  px              3.1       0.2       2.4       2.5       1.0       3.8
 2 C  py              0.5       8.6       4.1       1.1       0.6       1.7
 2 C  dyz             0.1       0.1       0.1       0.0       0.0       0.0
 2 C  dxy             0.0       0.1       0.1       0.1       0.1       0.1
 3 O  s               0.3       0.6       0.0       0.0       2.0       0.1
 3 O  pz              0.0       1.1       0.2      12.3       1.2       1.2
 3 O  px              0.1       0.0       7.2       1.0       0.1       0.2
 3 O  py              2.8       0.1       0.2       0.3      13.6       0.0
 3 O  dz2             0.8       0.0       0.1       0.0       0.0       0.3
 3 O  dxz             0.8       0.2       0.1       0.2       0.3       0.3
 3 O  dyz             0.0       0.1       0.1       0.4       0.0       0.3
 3 O  dx2y2           0.2       0.1       0.0       0.0       0.4       0.2
 3 O  dxy             0.0       0.3       0.3       0.0       0.0       0.0
 4 C  s               0.2       0.3       0.1       0.0       0.2       0.0
 4 C  pz              6.7       0.7       1.2       2.0       0.5       4.2
 4 C  px              0.9       1.0       2.2       2.5       0.1       1.0
 4 C  py              0.5       2.6       0.2       0.6       3.7       0.3
 4 C  dz2             0.0       0.0       0.0       0.3       0.0       0.1
 4 C  dxz             0.0       0.0       0.0       0.1       0.1       0.0
 4 C  dyz             0.0       0.1       0.1       0.0       0.0       0.3
 4 C  dx2y2           0.0       0.2       0.0       0.0       0.3       0.0
 4 C  dxy             0.0       0.1       0.3       0.0       0.1       0.2
 5 O  s               0.9       1.7       0.0       0.0       1.2       0.0
 5 O  pz              1.5       0.2       0.5       5.8       1.0      13.8
 5 O  px              0.3       1.8       0.2       2.4       0.0       5.8
 5 O  py              5.8      10.9       0.1       0.1       8.7       2.3
 5 O  dz2             0.1       0.0       0.0       0.0       0.0       0.1
 5 O  dxz             0.1       0.2       0.0       0.1       0.0       0.0
 5 O  dyz             0.2       0.1       0.0       0.2       0.0       0.1
 5 O  dx2y2           0.1       0.1       0.0       0.0       0.1       0.0
 6 C  s               0.1       0.0       0.1       0.0       0.1       0.0
 6 C  pz              4.1       2.4       5.9       9.7       0.8       2.7
 6 C  px              8.8       5.2      10.9       8.8       1.7       0.3
 6 C  py              3.6      17.3      11.6       0.7       0.9       0.1
 6 C  dz2             0.0       0.1       0.0       0.1       0.0       0.1
 6 C  dxz             0.0       0.2       0.0       0.0       0.0       0.0
 6 C  dyz             0.1       0.0       0.0       0.3       0.0       0.1
 6 C  dxy             0.0       0.0       0.4       0.0       0.0       0.0
 7 H  s               6.4       0.1       0.4       8.6       0.3       8.7
 7 H  pz              0.0       0.0       0.0       0.0       0.1       0.0
 8 H  s               0.0       0.0       1.5       1.0       9.0       0.1
 8 H  pz              0.1       0.0       0.0       0.1       0.0       0.1
 8 H  px              0.0       0.0       0.0       0.0       0.2       0.0
 9 H  s               1.3       3.8       4.1       1.8       0.2       4.8
 9 H  pz              0.0       0.0       0.0       0.0       0.1       0.0
 9 H  px              0.1       0.0       0.0       0.1       0.0       0.1
10 H  s               0.3       0.4       0.6       0.0       4.3       0.0
10 H  px              0.0       0.0       0.0       0.0       0.2       0.0
11 H  s               2.1       0.5       0.2       0.1       0.5       5.5
11 H  pz              0.0       0.0       0.0       0.0       0.1       0.0
12 H  s               3.5       1.0       0.2       0.2       0.1       0.6
13 H  s               0.0       4.4       4.9       2.7       0.0       1.1
14 H  s               1.6       6.9       0.1       7.2       0.1       1.7
14 H  pz              0.0       0.2       0.1       0.1       0.0       0.0
15 H  s               6.3       1.1       3.9       6.7       0.2       1.5
15 H  px              0.0       0.1       0.2       0.0       0.0       0.0
15 H  py              0.1       0.0       0.0       0.1       0.0       0.0
16 H  s               0.2       8.2      14.7       0.5       0.2       0.0
16 H  px              0.0       0.1       0.1       0.0       0.0       0.0
16 H  py              0.1       0.0       0.1       0.0       0.0       0.0

                     24        25        26        27        28        29   
                  -0.31467  -0.30243  -0.26953  -0.23653  -0.01456   0.07401
                   2.00000   2.00000   2.00000   2.00000   0.00000   0.00000
                  --------  --------  --------  --------  --------  --------
 0 C  s               0.1       0.4       0.0       0.0       0.0       8.6
 0 C  pz              1.1       6.6       1.1       0.0       0.1       0.4
 0 C  px             17.0       0.0       0.3       0.0       0.0       0.1
 0 C  py              1.6       5.3       0.1       0.0       0.0       0.2
 0 C  dyz             0.5       0.0       0.0       0.0       0.0       0.1
 0 C  dxy             0.2       0.1       0.0       0.0       0.0       0.1
 1 C  s               0.0       0.1       0.5       0.0       0.3       3.4
 1 C  pz              2.5       3.1       3.3       0.2       0.2       0.3
 1 C  px             17.5       0.2       3.5       0.1       0.2       0.2
 1 C  py              2.8       7.2       2.7       0.1       0.2       1.3
 1 C  dz2             0.0       0.0       0.0       0.0       0.0       0.2
 1 C  dxz             0.0       0.3       0.1       0.0       0.0       0.3
 1 C  dyz             0.7       0.1       0.0       0.0       0.0       0.0
 1 C  dxy             0.2       0.2       0.0       0.0       0.0       0.1
 2 C  s               0.1       0.1       0.2       0.1       0.0       2.5
 2 C  pz              0.5       2.3       4.1       0.7       0.0       3.0
 2 C  px              2.6       0.7       1.6       0.3       0.1       4.0
 2 C  py              0.9      10.8       0.8       0.1       0.0       2.4
 2 C  dz2             0.0       0.1       0.2       0.0       0.1       0.0
 2 C  dxz             0.0       0.3       0.3       0.0       0.1       0.5
 2 C  dyz             0.3       0.5       0.1       0.0       0.0       0.0
 2 C  dx2y2           0.1       0.1       0.1       0.0       0.0       0.1
 2 C  dxy             0.0       0.0       0.3       0.0       0.1       0.3
 3 O  s               0.0       2.1       0.0       0.3       0.0       4.6
 3 O  pz              0.1       4.1      29.8       0.1       6.7       0.1
 3 O  px              1.2       0.2       9.0       1.2       1.7       0.2
 3 O  py              1.8      19.4       2.5       6.9       0.7       0.7
 3 O  dz2             0.2       0.1       0.4       0.3       1.0       0.6
 3 O  dxz             0.0       0.2       0.0       0.0       1.8       3.0
 3 O  dyz             0.1       0.5       0.2       0.0       1.6       0.2
 3 O  dx2y2           0.0       0.7       0.0       0.1       1.4       0.5
 3 O  dxy             0.0       0.4       0.5       0.2       0.0       0.0
 4 C  s               0.0       0.2       0.0       0.2       0.0      13.0
 4 C  pz              1.5       0.0       0.2       0.2      29.8       0.1
 4 C  px              0.0       0.1       0.1       0.9       7.9       0.6
 4 C  py              0.0       2.4       0.1       0.5       2.9       0.1
 4 C  dz2             0.0       0.0       0.0       0.2       0.6       0.6
 4 C  dxz             0.0       0.1       0.3       0.2       0.0       0.6
 4 C  dyz             0.0       0.0       1.2       0.5       0.3       0.3
 4 C  dx2y2           0.0       0.4       0.4       0.0       0.0       0.0
 4 C  dxy             0.0       0.1       0.0       3.2       0.2       0.0
 5 O  s               0.0       0.4       0.0       0.0       0.0       1.9
 5 O  pz              1.9       1.5      24.3      11.6      18.2       0.0
 5 O  px              0.0       0.1       2.6      60.9       4.6       0.3
 5 O  py              1.1       3.6       2.2       0.3       1.7       0.4
 5 O  dz2             0.0       0.1       0.0       0.0       2.0       0.9
 5 O  dxz             0.1       0.1       0.0       0.0       0.1       0.4
 5 O  dyz             0.0       0.0       0.1       0.1       3.5       0.6
 5 O  dx2y2           0.0       0.2       0.0       0.0       0.2       0.2
 5 O  dxy             0.0       0.0       0.0       0.5       1.5       0.0
 6 C  s               0.0       0.1       0.0       0.7       0.0      19.7
 6 C  pz              1.1       0.2       0.1       1.4       0.1       0.1
 6 C  px              0.2       1.1       0.0       1.7       0.0       0.4
 6 C  py              0.1       0.3       0.0       3.5       0.0       0.2
 6 C  dz2             0.0       0.0       0.0       0.0       0.9       0.0
 6 C  dyz             0.0       0.0       0.0       0.0       0.6       0.0
 6 C  dxy             0.0       0.0       0.0       0.0       0.5       0.0
 7 H  s               1.1       0.1       1.1       0.1       0.0       1.3
 7 H  px              0.1       0.0       0.0       0.0       0.0       0.2
 7 H  py              0.1       0.1       0.0       0.0       0.0       0.2
 8 H  s               7.3       2.4       0.1       0.0       0.0       1.4
 8 H  px              0.0       0.1       0.0       0.0       0.0       0.6
 8 H  py              0.1       0.0       0.0       0.0       0.0       0.1
 9 H  s               8.2       0.0       0.3       0.1       0.0       0.6
 9 H  pz              0.0       0.1       0.0       0.0       0.0       0.3
10 H  s               8.1       3.7       0.6       0.1       0.0       2.2
10 H  pz              0.0       0.0       0.1       0.0       0.0       0.1
10 H  px              0.0       0.1       0.0       0.0       0.0       0.4
10 H  py              0.1       0.0       0.0       0.0       0.0       0.0
11 H  s              11.4       0.9       0.5       0.2       0.0       0.8
11 H  pz              0.1       0.1       0.0       0.0       0.0       0.1
11 H  px              0.0       0.0       0.1       0.0       0.0       0.4
11 H  py              0.1       0.0       0.0       0.0       0.0       0.0
12 H  s               1.2      10.4       1.9       0.1       0.2       1.4
12 H  px              0.0       0.1       0.0       0.0       0.0       0.7
12 H  py              0.0       0.0       0.0       0.1       0.0       0.1
13 H  s               2.0       4.0       1.3       0.2       0.1       0.9
13 H  py              0.0       0.0       0.0       0.0       0.0       0.6
14 H  s               0.3       0.0       0.0       0.6       3.3       2.2
14 H  pz              0.0       0.0       0.0       0.0       0.1       0.7
14 H  px              0.0       0.0       0.0       0.1       0.0       0.3
15 H  s               0.4       0.1       0.0       0.5       3.5       2.5
15 H  pz              0.0       0.0       0.0       0.1       0.0       0.5
15 H  py              0.0       0.0       0.0       0.0       0.1       0.4
16 H  s               0.3       0.1       0.0       0.2       0.0       1.1
16 H  px              0.0       0.0       0.0       0.0       0.0       0.3
16 H  py              0.0       0.0       0.0       0.0       0.0       0.3

                     30        31        32        33        34        35   
                   0.08704   0.11257   0.12130   0.13003   0.13858   0.15230
                   0.00000   0.00000   0.00000   0.00000   0.00000   0.00000
                  --------  --------  --------  --------  --------  --------
 0 C  s               0.7      11.9      10.7       5.6       1.6       0.9
 0 C  pz              0.1       0.9       8.5       4.8       4.9       1.7
 0 C  px              0.8       3.2       1.4       4.3       2.8       2.7
 0 C  py              2.8       0.3       0.0       5.4       3.1       2.7
 0 C  dz2             0.0       0.0       0.0       0.0       0.0       0.1
 0 C  dxz             0.1       0.0       0.4       0.0       0.5       0.1
 0 C  dyz             0.3       0.5       0.2       0.4       0.2       0.0
 0 C  dxy             0.0       0.2       0.0       0.6       0.2       0.4
 1 C  s               5.6       6.5       0.0       8.7       1.1       0.3
 1 C  pz              1.4       0.8       8.3       0.6       0.5       3.2
 1 C  px              0.4       6.2       5.3       0.6       0.0       1.7
 1 C  py              1.2       3.2       1.6      14.9       4.5       2.2
 1 C  dz2             0.5       0.1       0.1       0.0       0.0       0.2
 1 C  dxz             0.1       0.0       0.0       0.5       0.9       0.0
 1 C  dyz             0.1       0.0       1.7       0.0       0.2       0.1
 1 C  dx2y2           0.1       0.0       0.0       0.4       0.1       0.1
 1 C  dxy             0.5       0.3       0.0       0.0       0.2       0.2
 2 C  s               5.3       0.8      10.2       2.6       0.1       0.0
 2 C  pz              9.3       4.0      11.8       9.0       2.9       0.7
 2 C  px             19.1       3.8       2.6       1.1       2.0       4.1
 2 C  py              3.5       2.0       0.6       4.9      11.0       2.1
 2 C  dz2             0.0       0.0       0.1       0.2       0.4       0.0
 2 C  dxz             1.6       0.0       0.1       0.0       0.6       0.4
 2 C  dyz             0.3       0.1       0.2       0.6       0.8       0.0
 2 C  dx2y2           0.7       0.1       0.4       0.1       0.1       0.0
 2 C  dxy             0.3       0.6       0.0       0.0       0.1       0.0
 3 O  s               6.0       0.1       0.1       0.1       0.0       0.7
 3 O  pz              3.1       0.3       0.5       0.2       0.1       0.2
 3 O  px              2.8       1.9       0.0       0.0       0.3       0.2
 3 O  py              1.4       0.2       0.2       0.3       1.3       0.1
 3 O  dz2             0.1       2.0       0.2       1.4       0.2       0.6
 3 O  dxz             3.3       0.3       0.3       0.8       0.3       0.0
 3 O  dyz             0.6       0.5       1.1       0.2       1.0       0.1
 3 O  dx2y2           0.6       0.0       0.0       1.0       3.1       0.0
 3 O  dxy             0.2       0.2       0.4       1.5       1.2       0.0
 4 C  s               1.0       3.3       0.1       1.2       3.0       1.9
 4 C  pz              0.8       0.2       5.0       0.6       2.1       1.2
 4 C  px              0.3       2.2       0.2       0.1       1.0       2.2
 4 C  py              2.4       0.1       0.1       1.7       1.8       0.8
 4 C  dz2             0.0       0.2       0.0       0.1       0.1       0.0
 4 C  dxz             0.2       0.2       0.0       0.1       0.2       0.0
 4 C  dyz             0.1       0.2       0.0       0.0       0.1       0.0
 4 C  dx2y2           0.7       0.2       0.0       0.0       0.0       0.0
 5 O  s               0.3       0.4       0.2       0.4       0.2       0.6
 5 O  pz              0.3       0.1       0.3       0.1       0.1       0.2
 5 O  px              0.1       0.9       0.2       0.1       0.0       0.7
 5 O  py              0.2       0.2       0.1       0.2       0.2       0.8
 5 O  dz2             0.1       0.2       0.0       0.0       0.8       0.1
 5 O  dxz             0.3       0.8       0.1       0.0       0.4       0.2
 5 O  dyz             0.0       0.2       0.0       0.0       0.0       0.7
 5 O  dx2y2           0.0       0.1       0.0       0.0       1.6       0.4
 5 O  dxy             0.5       0.1       0.0       0.3       0.1       0.1
 6 C  s               0.3      11.5       1.0       3.1       1.9       7.9
 6 C  pz              0.4       0.2       1.1       2.3       3.6       8.6
 6 C  px              0.6       0.6       0.2       4.5       7.6      18.5
 6 C  py              1.4       0.8       0.1       0.8       1.4      10.5
 6 C  dz2             0.1       0.2       0.0       0.0       0.0       0.0
 6 C  dxz             0.3       0.2       0.0       0.1       0.7       0.5
 6 C  dyz             0.0       0.0       0.0       0.0       0.1       0.2
 6 C  dx2y2           0.2       0.0       0.0       0.0       0.2       0.0
 6 C  dxy             0.1       0.0       0.0       0.2       0.9       0.6
 7 H  s               0.0       3.8       1.3       0.4       0.5       0.4
 7 H  pz              0.0       0.3       0.1       0.2       0.5       0.0
 7 H  px              0.0       0.3       0.1       0.1       0.3       0.1
 7 H  py              0.1       1.1       0.1       0.2       0.1       0.0
 8 H  s               0.0       0.5       3.4       0.5       0.6       0.2
 8 H  pz              0.0       0.0       1.2       0.5       0.0       0.0
[...]
 2 C  px              2.0       0.4       0.3       4.2       1.3       0.3
 2 C  py              5.4       5.7       1.4       0.7       0.3       0.0
 2 C  dz2             0.4       0.7       0.3       0.1       0.0       0.0
 2 C  dxz             1.6       2.5       0.5       5.4       1.3       0.2
 2 C  dyz             7.7       4.5       3.8       1.1       0.1       0.1
 2 C  dx2y2           0.1       0.8       0.1       2.2       0.8       0.1
 2 C  dxy             0.0       0.1       0.8       3.5       1.0       0.3
 3 O  s               0.3       0.9       4.0      26.9       4.4       1.0
 3 O  pz              0.0       0.0       0.4       3.0       4.0       0.2
 3 O  px              0.0       0.3       0.2       4.1      24.1       0.6
 3 O  py              0.9       1.4       5.0       7.2       3.3       0.1
 3 O  dz2             0.1       0.3       0.6       3.0       3.9       0.0
 3 O  dxz             0.2       1.1       0.3      15.5       0.0       1.3
 3 O  dyz             0.6       1.0       0.5       0.8       3.0       0.2
 3 O  dx2y2           0.1       1.8       7.1       5.6       0.1       0.4
 3 O  dxy             0.2       0.2       0.5       0.1      23.8       0.3
 4 C  s               0.1       0.3       0.9       0.3       2.8       5.2
 4 C  pz              0.0       0.0       0.1       0.0       0.4       0.6
 4 C  px              0.1       0.1       0.2       0.7       4.2       0.0
 4 C  py              0.0       0.1       0.4       1.0       2.2       7.3
 4 C  dz2             0.1       0.1       0.3       0.2       1.8       1.0
 4 C  dxz             0.0       1.0       3.2       0.1       0.3       0.0
 4 C  dyz             0.0       0.0       0.9       0.3       1.0       1.6
 4 C  dx2y2           0.0       0.7       3.4       0.2       0.3       4.2
 4 C  dxy             0.0       2.1       6.0       1.6       9.0       0.0
 5 O  s               1.0       0.2       2.3       1.0       0.6      18.6
 5 O  pz              0.0       0.1       1.2       0.0       0.1       1.8
 5 O  px              0.8       1.3       5.9       0.1       0.1       0.0
 5 O  py              0.1       0.3       1.0       0.8       0.3      19.8
 5 O  dz2             0.1       0.2       1.7       0.4       0.0       4.6
 5 O  dxz             0.0       0.1       0.0       0.1       0.5       0.0
 5 O  dyz             0.0       0.5       3.1       0.2       0.6       7.4
 5 O  dx2y2           0.3       0.0       0.1       1.4       0.0      21.4
 5 O  dxy             0.0       4.9      15.5       0.2       1.0       0.1
 6 C  pz              0.1       0.1       0.4       0.0       0.0       0.0
 6 C  px              0.0       0.6       1.6       0.0       0.1       0.0
 6 C  dz2             0.0       0.2       0.2       0.0       0.1       0.1
 6 C  dxz             0.0       0.0       0.2       0.0       0.0       0.1
 6 C  dyz             0.0       0.1       0.6       0.0       0.0       0.0
 6 C  dx2y2           0.0       0.0       0.1       0.0       0.0       0.0
 6 C  dxy             0.1       1.2       3.5       0.1       0.3       0.2
 7 H  s               0.1       0.3       0.1       0.0       0.0       0.0
 7 H  pz              0.2       0.2       0.1       0.0       0.0       0.0
 7 H  px              0.0       0.5       0.1       0.0       0.0       0.0
 8 H  s               0.2       0.9       0.3       0.0       0.0       0.0
 8 H  pz              0.1       1.6       0.3       0.0       0.0       0.0
 8 H  px              0.2       0.8       0.2       0.0       0.0       0.0
 8 H  py              0.2       0.3       0.1       0.0       0.0       0.0
 9 H  s               1.2       0.0       0.1       0.0       0.0       0.0
 9 H  pz              0.5       0.0       0.0       0.0       0.0       0.0
 9 H  px              1.4       0.0       0.0       0.0       0.0       0.0
 9 H  py              1.1       0.1       0.3       0.0       0.0       0.0
10 H  s               2.3       2.5       0.4       0.1       0.0       0.0
10 H  pz              1.5       1.2       0.2       0.1       0.0       0.0
10 H  px              1.1       3.2       0.6       0.2       0.0       0.0
10 H  py              2.9       0.9       0.1       0.1       0.0       0.0
11 H  s               4.7       3.1       0.7       0.0       0.0       0.0
11 H  pz              2.8       1.2       0.2       0.0       0.0       0.0
11 H  px              2.7       1.3       0.3       0.0       0.0       0.0
11 H  py              6.4       5.6       1.0       0.0       0.0       0.0
12 H  s               4.1       2.3       0.8       0.3       0.1       0.0
12 H  pz              5.8       2.6       0.5       0.1       0.0       0.0
12 H  px              0.6       0.5       1.7       0.5       0.2       0.0
12 H  py              3.2       1.5       0.6       0.2       0.0       0.0
13 H  s               3.4       3.7       1.3       0.3       0.1       0.0
13 H  pz              2.2       3.2       0.9       0.0       0.0       0.0
13 H  px              1.1       1.4       0.2       0.0       0.0       0.0
13 H  py              3.8       3.8       2.0       1.1       0.2       0.0
16 H  s               0.0       0.6       1.2       0.0       0.1       0.1
16 H  px              0.0       0.5       1.0       0.0       0.0       0.0
16 H  py              0.0       0.5       1.1       0.0       0.0       0.1

                    186       187       188       189       190       191   
                  21.91059  21.93496  22.03386  22.10610  22.22840  43.67287
                   0.00000   0.00000   0.00000   0.00000   0.00000   0.00000
                  --------  --------  --------  --------  --------  --------
 0 C  s              37.4      56.2       0.3       4.9       0.9       0.0
 1 C  s               0.3       0.0      83.6      14.6       1.1       0.0
 2 C  s               9.0       0.1      15.3      74.0       1.3       0.0
 3 O  s               0.0       0.0       0.0       0.1       0.1       0.0
 4 C  s               0.3       1.2       0.3       1.7      95.5       0.0
 5 O  s               0.0       0.0       0.0       0.0       0.2      99.9
 5 O  py              0.0       0.0       0.0       0.0       0.1       0.0
 6 C  s              52.6      42.2       0.2       4.3       0.3       0.0

                    192   
                  43.74724
                   0.00000
                  --------
 3 O  s              99.9


                      *****************************
                      * MAYER POPULATION ANALYSIS *
                      *****************************

  NA   - Mulliken gross atomic population
  ZA   - Total nuclear charge
  QA   - Mulliken gross atomic charge
  VA   - Mayer's total valence
  BVA  - Mayer's bonded valence
  FA   - Mayer's free valence

  ATOM       NA         ZA         QA         VA         BVA        FA
  0 C      6.4877     6.0000    -0.4877     3.8334     3.8334     0.0000
  1 C      6.2320     6.0000    -0.2320     3.6684     3.6684     0.0000
  2 C      6.1435     6.0000    -0.1435     3.6562     3.6562     0.0000
  3 O      8.1808     8.0000    -0.1808     1.8905     1.8905     0.0000
  4 C      5.5802     6.0000     0.4198     3.8134     3.8134     0.0000
  5 O      8.4314     8.0000    -0.4314     1.9474     1.9474     0.0000
  6 C      6.5208     6.0000    -0.5208     3.8699     3.8699    -0.0000
  7 H      0.8516     1.0000     0.1484     0.9620     0.9620     0.0000
  8 H      0.8431     1.0000     0.1569     0.9614     0.9614    -0.0000
  9 H      0.8592     1.0000     0.1408     0.9657     0.9657    -0.0000
 10 H      0.8593     1.0000     0.1407     0.9638     0.9638     0.0000
 11 H      0.8369     1.0000     0.1631     0.9619     0.9619    -0.0000
 12 H      0.8311     1.0000     0.1689     0.9600     0.9600    -0.0000
 13 H      0.8539     1.0000     0.1461     0.9540     0.9540     0.0000
 14 H      0.8339     1.0000     0.1661     0.9593     0.9593     0.0000
 15 H      0.8320     1.0000     0.1680     0.9587     0.9587    -0.0000
 16 H      0.8225     1.0000     0.1775     0.9588     0.9588     0.0000

  Mayer bond orders larger than 0.100000
B(  0-C ,  1-C ) :   0.9150 B(  0-C ,  7-H ) :   0.9703 B(  0-C ,  8-H ) :   0.9844 
B(  0-C ,  9-H ) :   0.9771 B(  1-C ,  2-C ) :   0.9504 B(  1-C , 10-H ) :   0.9554 
B(  1-C , 11-H ) :   0.9689 B(  2-C ,  3-O ) :   0.8285 B(  2-C , 12-H ) :   0.9598 
B(  2-C , 13-H ) :   0.9625 B(  3-O ,  4-C ) :   1.0527 B(  4-C ,  5-O ) :   1.8452 
B(  4-C ,  6-C ) :   0.9560 B(  6-C , 14-H ) :   0.9517 B(  6-C , 15-H ) :   0.9501 
B(  6-C , 16-H ) :   0.9900 

-------
TIMINGS
-------

Total SCF time: 0 days 0 hours 0 min 18 sec 

Total time                  ....      18.751 sec
Sum of individual times     ....      18.259 sec  ( 97.4%)

SCF preparation             ....       0.188 sec  (  1.0%)
Fock matrix formation       ....      17.129 sec  ( 91.3%)
  Startup                   ....       0.049 sec  (  0.3% of F)
  Split-RI-J                ....       3.114 sec  ( 18.2% of F)
  XC integration            ....      13.405 sec  ( 78.3% of F)
    XC Preparation          ....       0.000 sec  (  0.0% of XC)
    Basis function eval.    ....       2.469 sec  ( 18.4% of XC)
    Density eval.           ....       3.829 sec  ( 28.6% of XC)
    XC-Functional eval.     ....       1.908 sec  ( 14.2% of XC)
    XC-Potential eval.      ....       4.328 sec  ( 32.3% of XC)
Diagonalization             ....       0.000 sec  (  0.0%)
Density matrix formation    ....       0.268 sec  (  1.4%)
Total Energy calculation    ....       0.033 sec  (  0.2%)
Population analysis         ....       0.108 sec  (  0.6%)
Orbital Transformation      ....       0.061 sec  (  0.3%)
Orbital Orthonormalization  ....       0.000 sec  (  0.0%)
DIIS solution               ....       0.443 sec  (  2.4%)
  MO trafo                  ....       0.000 sec  (  0.0 % of DIIS)
  Orb grad                  ....       0.000 sec  (  0.0 % of DIIS)
  Energy W gradient         ....       0.000 sec  (  0.0 % of DIIS)
  DIIS error                ....       0.011 sec  (  2.6 % of DIIS)
  DIIS work                 ....       0.373 sec  ( 84.3 % of DIIS)
  Form Q                    ....       0.000 sec  (  0.0 % of DIIS)
  Form QpQm                 ....       0.000 sec  (  0.0 % of DIIS)
  Exp/Cayley                ....       0.000 sec  (  0.0 % of DIIS)
  Orb update                ....       0.000 sec  (  0.0 % of DIIS)
  Wake-sleep                ....       0.025 sec  (  5.7 % of DIIS)
SOSCF solution              ....       0.029 sec  (  0.2%)
  MO trafo                  ....       0.029 sec  ( 99.6 % of SOSCF)
  Orb grad                  ....       0.000 sec  (  0.0 % of SOSCF)
  Rot update                ....       0.000 sec  (  0.0 % of SOSCF)
  Step                      ....       0.000 sec  (  0.0 % of SOSCF)
Finished LeanSCF after  18.8 sec

Maximum memory used throughout the entire LEANSCF-calculation: 20.2 MB


-------------------------------------------------------------------------------
                          DFT DISPERSION CORRECTION                            
                                                                               
                                DFTD4 V3.4.0                                   
-------------------------------------------------------------------------------
The R2SCAN3C composite method is recognized
Using three-body term ABC
Active option DFTDOPT                   ...         5   

-------------------------   ----------------
Dispersion correction           -0.004053655
-------------------------   ----------------

------------------   -----------------
gCP correction             0.010448675
------------------   -----------------

-------------------------   --------------------
FINAL SINGLE POINT ENERGY      -346.937047826402
-------------------------   --------------------


------------------------------------------------------------------------------
                              ORCA PROPERTY CALCULATIONS
------------------------------------------------------------------------------

GBWName                                 ... sp_gas.gbw
Number of atoms                         ...     17
Number of basis functions               ...    193
Max core memory                         ...   1024 MB

Electric properties:
Dipole moment                           ... YES
Quadrupole moment                       ...  NO
Static polarizability (Dipole/Dipole)   ...  NO
Static polarizability (Dipole/Quad.)    ...  NO
Static polarizability (Quad./Quad.)     ...  NO
Static polarizability (Velocity)        ...  NO

Atomic electric properties:
Dipole moment                           ...  NO
Quadrupole moment                       ...  NO
Static polarizability                   ...  NO

Choice of electric origin               ... Center of mass
Position of electric origin             ...    -0.000023     0.000010     0.000010

General magnetic properties:
Magnetizability                         ...  NO

EPR properties:
g-Tensor (aka g-matrix)                 ...  NO
Zero-Field splitting spin-orbit         ...  NO
Zero-field splitting spin-spin          ...  NO
Hyperfine couplings                     ...  NO (   0 nuclei)
Quadrupole couplings                    ...  NO (   0 nuclei)
Contact density                         ...  NO (   0 nuclei)

NMR properties:
Chemical shifts                         ...  NO (   0 nuclei)
Spin-rotation constants                 ...  NO (   0 nuclei)
Spin-spin couplings                     ...  NO (   0 nuclei,    0 pairs)

Choice of magnetic origin               ... GIAO
Position of magnetic origin             ...     0.000000     0.000000     0.000000

Properties with geometric perturbations:
SCF Hessian                             ...  NO
IR spectrum                             ...  NO
VCD spectrum                            ...  NO
X-ray spectroscopy properties:
SCF XES/XAS/RIXS spectra                ...  NO


-------------
DIPOLE MOMENT
-------------

Method             : SCF
Type of density    : Electron Density
Multiplicity       :   1
Irrep              :   0
Energy             :  -346.9434428471278693 Eh
Relativity type    : 
Basis              : AO
                                X                 Y                 Z
Electronic contribution:      5.202572972      -1.846118315      -2.443294042
Nuclear contribution   :     -5.550338616       2.543892049       2.588063975
                        -----------------------------------------
Total Dipole Moment    :     -0.347765645       0.697773734       0.144769933
                        -----------------------------------------
Magnitude (a.u.)       :      0.792961198
Magnitude (Debye)      :      2.015547186



--------------------
Rotational spectrum 
--------------------
 
Rotational constants in cm-1:             0.168202             0.051221             0.046405 
Rotational constants in MHz :          5042.556635          1535.553951          1391.198088 

Dipole components along the rotational axes: 
x,y,z [a.u.] :    -0.384262     0.619387    -0.312234 
x,y,z [Debye]:    -0.976717     1.574356    -0.793635 

 

Dipole moment calculation done in   0.0 sec 

Maximum memory used throughout the entire PROP-calculation: 11.5 MB

--------------------------------
SUGGESTED CITATIONS FOR THIS RUN
--------------------------------

Below you find a list of papers that are relevant to this ORCA run
We neither can nor want to force you to cite these papers, but we appreciate if you do
You receive ORCA, which is the product of decades of hard work by many enthusiastic individuals, for free
The only thing we kindly ask in return is that you cite our papers,
We deeply appreciate it, if you show your appreciation for ORCA by not just citing the generic ORCA reference.

Please note that relegating all ORCA citations to the supporting information does *not* help us.
SI sections are not indexed - citations you put there will not count into any citation statistics
But we need these citations in order to attract the funding resources that allow us to do what we are doing

Therefore, if you are a happy ORCA user, please consider citing a few of the papers listed below in the main body of your paper

In addition to the list printed below, the program has created the file sp_gas.bibtex that contains the list in bibtex format
You can import this file easily into all common literature databanks and citation aid programs


List of essential papers. We consider these as the minimum necessary citations

  1. Neese,F.
     Software update: the ORCA program system, version 5.0
     WIRES Comput. Molec. Sci., 2022 12(1)e1606
     doi.org/10.1002/wcms.1606
  2. Grimme,S.; Hansen,A.; Ehlert,S.; Mewes,J.
     r2SCAN-3c: A 'Swiss army knife' composite electronic-structure method
     J. Chem. Phys., 2021 154 064103
     doi.org/10.1063/5.0040021

List of papers to cite with high priority. The work reported in these papers was absolutely
necessary for this run to complete.
Our perspective: the developers of density functionals and basis sets usually get cited in chemistry papers
Good! But without the algorithms to do something with them, the functionals or basis sets would not do anything.
Hence, in our opinion, the algorithm design and method developments papers are equally worthy of getting cited

  1. Neese,F.
     An improvement of the resolution of the identity approximation for the formation of the Coulomb matrix
     J. Comp. Chem., 2003 24(14)1740-1747
     doi.org/10.1002/jcc.10318
  2. Neese,F.
     The SHARK Integral Generation and Digestion System
     J. Comp. Chem., 2022  1-16
     doi.org/10.1002/jcc.26942
  3. Lehtola,S.; Steigemann,C.; Oliveira,M.; Marques,M.
     Recent developments in Libxc - A comprehensive library of functionals for density functional theory
     Software X, 2018 7 
     doi.org/10.1016/j.softx.2017.11.002
  4. Caldeweyher,E.; Bannwarth,C.; Grimme,S.
     Extension of the D3 dispersion coefficient model
     J. Chem. Phys., 2017 147 034112-XXXX
     doi.org/10.1063/1.4993215
  5. Caldeweyher,E.; Ehlert,S.; Hansen,A.; Neugebauer,H.; Spicher,S.; Bannwarth,C.; Grimme,S.
     A generally applicable atomic-charge dependent London dispersion correction
     J. Chem. Phys., 2019 150 154122-XXXX
     doi.org/10.1063/1.5090222
  6. Caldeweyher,E.; Mewes,J.; Ehlert,S.; Grimme,S.
     Extension and evaluation of the D4 London-dispersion model for periodic systems
     Phys. Chem. Chem. Phys., 2020 22(16)8499-8512
     doi.org/10.1039/D0CP00502A

List of suggested additional citations. These are papers that are important in the 'surrounding' of 
of this run, or papers that preceded the highly important papers. If you like your results we are grateful for a citation.

  1. Neese,F.
     The ORCA program system
     WIRES Comput. Molec. Sci., 2012 2(1)73-78
     doi.org/10.1002/wcms.81
  2. Neese,F.
     Software update: the ORCA program system, version 4.0
     WIRES Comput. Molec. Sci., 2018 8(1)1-6
     doi.org/10.1002/wcms.1327
  3. Neese,F.; Wennmohs,F.; Becker,U.; Riplinger,C.
     The ORCA quantum chemistry program package
     J. Chem. Phys., 2020 152 Art. No. L224108
     doi.org/10.1063/5.0004608

List of optional additional citations

  1. Neese,F.
     Approximate second-order SCF convergence for spin unrestricted wavefunctions
     Chem. Phys. Lett., 2000 325(1-3)93-98
     doi.org/10.1016/s0009-2614(00)00662-x

Timings for individual modules:

Sum of individual times          ...       20.379 sec (=   0.340 min)
Startup calculation              ...        1.123 sec (=   0.019 min)   5.5 %
SCF iterations                   ...       19.151 sec (=   0.319 min)  94.0 %
Property calculations            ...        0.105 sec (=   0.002 min)   0.5 %
                             ****ORCA TERMINATED NORMALLY****
TOTAL RUN TIME: 0 days 0 hours 0 minutes 21 seconds 205 msec
