      -----------------------------------------------------------      
     |                   =====================                   |     
     |                           x T B                           |     
     |                   =====================                   |     
     |                         S. Grimme                         |     
     |          Mulliken Center for Theoretical Chemistry        |     
     |                    University of Bonn                     |     
      -----------------------------------------------------------      

   * xtb version 6.7.1 (edcfbbe) compiled by 'albert@albert-system' on 2024-07-22

   xtb is free software: you can redistribute it and/or modify it under
   the terms of the GNU Lesser General Public License as published by
   the Free Software Foundation, either version 3 of the License, or
   (at your option) any later version.
   
   xtb is distributed in the hope that it will be useful,
   but WITHOUT ANY WARRANTY; without even the implied warranty of
   MERCHANTABILITY or FITNESS FOR A PARTICULAR PURPOSE.  See the
   GNU Lesser General Public License for more details.
   
   Cite this work as:
   * C. Bannwarth, E. Caldeweyher, S. Ehlert, A. Hansen, P. Pracht,
     J. Seibert, S. Spicher, S. Grimme, WIREs Comput. Mol. Sci., 2020, 11,
     e01493. DOI: 10.1002/wcms.1493
   
   for GFN2-xTB:
   * C. Bannwarth, S. Ehlert and S. Grimme., J. Chem. Theory Comput., 2019,
     15, 1652-1671. DOI: 10.1021/acs.jctc.8b01176
   for GFN1-xTB:
   * S. Grimme, C. Bannwarth, P. Shushkov, J. Chem. Theory Comput., 2017,
     13, 1989-2009. DOI: 10.1021/acs.jctc.7b00118
   for GFN0-xTB:
   * P. Pracht, E. Caldeweyher, S. Ehlert, S. Grimme, ChemRxiv, 2019, preprint.
     DOI: 10.26434/chemrxiv.8326202.v1
   for GFN-FF:
   * S. Spicher and S. Grimme, Angew. Chem. Int. Ed., 2020, 59, 15665-15673.
     DOI: 10.1002/anie.202004239
   
   for ALPB and GBSA implicit solvation:
   * S. Ehlert, M. Stahn, S. Spicher, S. Grimme, J. Chem. Theory Comput.,
     2021, 17, 4250-4261. DOI: 10.1021/acs.jctc.1c00471
   
   for ddCOSMO and CPCM-X implicit solvation:
   * M. Stahn, S. Ehlert, S. Grimme, J. Phys. Chem. A,
     2023, XX, XXXX-XXXX. DOI: 10.1021/acs.jpca.3c04382
   
   for DFT-D4:
   * E. Caldeweyher, C. Bannwarth and S. Grimme, J. Chem. Phys., 2017,
     147, 034112. DOI: 10.1063/1.4993215
   * E. Caldeweyher, S. Ehlert, A. Hansen, H. Neugebauer, S. Spicher,
     C. Bannwarth and S. Grimme, J. Chem. Phys., 2019, 150, 154122.
     DOI: 10.1063/1.5090222
   * E. Caldeweyher, J.-M. Mewes, S. Ehlert and S. Grimme, Phys. Chem. Chem. Phys.
     2020, 22, 8499-8512. DOI: 10.1039/D0CP00502A
   
   for sTDA-xTB:
   * S. Grimme and C. Bannwarth, J. Chem. Phys., 2016, 145, 054103.
     DOI: 10.1063/1.4959605
   
   in the mass-spec context:
   * V. Asgeirsson, C. Bauer and S. Grimme, Chem. Sci., 2017, 8, 4879.
     DOI: 10.1039/c7sc00601b
   * J. Koopman and S. Grimme, ACS Omega 2019, 4, 12, 15120-15133.
     DOI: 10.1021/acsomega.9b02011
   
   for metadynamics refer to:
   * S. Grimme, J. Chem. Theory Comput., 2019, 155, 2847-2862
     DOI: 10.1021/acs.jctc.9b00143
   
   for SPH calculations refer to:
   * S. Spicher and S. Grimme, J. Chem. Theory Comput., 2021, 17, 1701-1714
     DOI: 10.1021/acs.jctc.0c01306
   
   for ONIOM refer to:
   * C. Plett, A. Katbashev, S. Ehlert, S. Grimme, M. Bursch,
     Phys. Chem. Chem. Phys., 2023, 25, 17860-17868. DOI: 10.1039/D3CP02178E
   
   for DIPRO refer to:
   * J. Kohn, N. Gildemeister, S. Grimme, D. Fazzi, A. Hansen,
     J. Chem. Phys., 2023, just accepted.
   
   for PTB refer to:
   * S. Grimme, M. Mueller, A. Hansen, J. Chem. Phys., 2023, 158, 124111.
     DOI: 10.1063/5.0137838
   
   with help from (in alphabetical order)
   P. Atkinson, C. Bannwarth, F. Bohle, G. Brandenburg, E. Caldeweyher
   M. Checinski, S. Dohm, S. Ehlert, S. Ehrlich, I. Gerasimov, C. Hölzer
   A. Katbashev, J. Kohn, J. Koopman, C. Lavigne, S. Lehtola, F. März, M. Müller,
   F. Musil, H. Neugebauer, J. Pisarek, C. Plett, P. Pracht, F. Pultar,
   J. Seibert, P. Shushkov, S. Spicher, M. Stahn, M. Steiner, T. Strunk,
   J. Stückrath, T. Rose, and J. Unsleber
   
 * started run on 2025/04/11 at 12:02:13.382     
   ID    Z sym.   atoms
    1    6 C      1-4, 7
    2    8 O      5, 6
    3    1 H      8-17

           -------------------------------------------------
          |                Calculation Setup                |
           -------------------------------------------------

          program call               : /srv/scratch/z5358697/.xtb/bin/xtb xtb_rrho.coord --gfn2 --bhess vtight --chrg 0 --enso --norestart -I rrho-xcontrol-inp --parallel 1 --alpb water
          hostname                   : k064
          coordinate file            : xtb_rrho.coord
          omp threads                :                     1


           -------------------------------------------------
          |                 G F N 2 - x T B                 |
           -------------------------------------------------

        Reference                      10.1021/acs.jctc.8b01176
      * Hamiltonian:
        H0-scaling (s, p, d)           1.850000    2.230000    2.230000
        zeta-weighting                 0.500000
      * Dispersion:
        s8                             2.700000
        a1                             0.520000
        a2                             5.000000
        s9                             5.000000
      * Repulsion:
        kExp                           1.500000    1.000000
        rExp                           1.000000
      * Coulomb:
        alpha                          2.000000
        third order                    shell-resolved
        anisotropic                    true
        a3                             3.000000
        a5                             4.000000
        cn-shift                       1.200000
        cn-exp                         4.000000
        max-rad                        5.000000

      * Solvation model:               ALPB
        Solvent                        water
        Parameter file                 internal GFN2-xTB/ALPB
        Dielectric constant                8.0200E+01
        Reference state                gsolv [1 M gas/solution]
        Free energy shift                  1.0808E-03 Eh       6.7819E-01 kcal/mol
        Temperature                        2.9815E+02 K
        Density                            1.0000E+00 kg/L
        Solvent mass                       1.8000E+01 g/mol
        Interaction kernel             P16
        Born radius scaling (c1)           1.4744E+00
        Born radii integrator          GBOBC
        Born offset                        0.0000E+00 a0       0.0000E+00 AA
        H-bond correction              true
        Ion screening                  false
        Surface tension                    1.0000E-05 Eh       1.5569E+01 dyn/cm
        Grid points                               974 per atom

          ...................................................
          :                      SETUP                      :
          :.................................................:
          :  # basis functions                  38          :
          :  # atomic orbitals                  38          :
          :  # shells                           24          :
          :  # electrons                        42          :
          :  max. iterations                   250          :
          :  Hamiltonian                  GFN2-xTB          :
          :  restarted?                      false          :
          :  GBSA solvation                   true          :
          :  PC potential                    false          :
          :  electronic temp.          300.0000000     K    :
          :  accuracy                    1.0000000          :
          :  -> integral cutoff          0.2500000E+02      :
          :  -> integral neglect         0.1000000E-07      :
          :  -> SCF convergence          0.1000000E-05 Eh   :
          :  -> wf. convergence          0.1000000E-03 e    :
          :  Broyden damping             0.4000000          :
          :  net charge                          0          :
          :  unpaired electrons                  0          :
          ...................................................

 iter      E             dE          RMSdq      gap      omega  full diag
   1    -24.1441881 -0.241442E+02  0.413E+00    5.53       0.0  T
   2    -24.2014819 -0.572938E-01  0.204E+00    4.61       1.0  T
   3    -24.2034010 -0.191911E-02  0.108E+00    4.95       1.0  T
   4    -24.2050466 -0.164560E-02  0.166E-01    4.72       1.0  T
   5    -24.2052381 -0.191479E-03  0.722E-02    4.77       1.0  T
   6    -24.2052395 -0.146927E-05  0.225E-02    4.76       1.1  T
   7    -24.2052403 -0.784378E-06  0.460E-03    4.77       5.3  T
   8    -24.2052404 -0.337715E-07  0.264E-03    4.77       9.2  T
   9    -24.2052404 -0.963307E-08  0.437E-04    4.77      55.4  T
  10    -24.2052404 -0.572776E-09  0.209E-04    4.77     116.2  T

   *** convergence criteria satisfied after 10 iterations ***

         #    Occupation            Energy/Eh            Energy/eV
      -------------------------------------------------------------
         1        2.0000           -0.7462173             -20.3056
       ...           ...                  ...                  ...
        15        2.0000           -0.4769832             -12.9794
        16        2.0000           -0.4744780             -12.9112
        17        2.0000           -0.4554889             -12.3945
        18        2.0000           -0.4540619             -12.3557
        19        2.0000           -0.4456897             -12.1278
        20        2.0000           -0.4355529             -11.8520
        21        2.0000           -0.4212520             -11.4628 (HOMO)
        22                         -0.2461067              -6.6969 (LUMO)
        23                         -0.0090655              -0.2467
        24                          0.0824426               2.2434
        25                          0.1111660               3.0250
        26                          0.1190949               3.2407
       ...                                ...                  ...
        38                          0.5804755              15.7955
      -------------------------------------------------------------
                  HL-Gap            0.1751452 Eh            4.7659 eV
             Fermi-level           -0.3336794 Eh           -9.0799 eV

 SCC (total)                   0 d,  0 h,  0 min,  0.028 sec
 SCC setup                      ...        0 min,  0.002 sec (  5.884%)
 Dispersion                     ...        0 min,  0.000 sec (  0.438%)
 classical contributions        ...        0 min,  0.000 sec (  0.104%)
 integral evaluation            ...        0 min,  0.002 sec (  7.906%)
 iterations                     ...        0 min,  0.020 sec ( 70.131%)
 molecular gradient             ...        0 min,  0.004 sec ( 14.841%)
 printout                       ...        0 min,  0.000 sec (  0.631%)

         :::::::::::::::::::::::::::::::::::::::::::::::::::::
         ::                     SUMMARY                     ::
         :::::::::::::::::::::::::::::::::::::::::::::::::::::
         :: total energy             -23.952461082912 Eh    ::
         :: total w/o Gsasa/hb       -23.952674533670 Eh    ::
         :: gradient norm              0.035257809614 Eh/a0 ::
         :: HOMO-LUMO gap              4.765944384000 eV    ::
         ::.................................................::
         :: SCC energy               -24.205207766059 Eh    ::
         :: -> isotropic ES            0.057281251926 Eh    ::
         :: -> anisotropic ES          0.001576198708 Eh    ::
         :: -> anisotropic XC          0.007242844639 Eh    ::
         :: -> dispersion             -0.009606534085 Eh    ::
         :: -> Gsolv                  -0.008829033048 Eh    ::
         ::    -> Gelec               -0.009042483806 Eh    ::
         ::    -> Gsasa                0.001418259510 Eh    ::
         ::    -> Ghb                 -0.002285568450 Eh    ::
         ::    -> Gshift               0.001080759698 Eh    ::
         :: repulsion energy           0.252746683147 Eh    ::
         :: add. restraining           0.000000000000 Eh    ::
         :: total charge              -0.000000000000 e     ::
         :::::::::::::::::::::::::::::::::::::::::::::::::::::

metadynamics with 1 initial structures loaded
           -------------------------------------------------
          |           Optimal kpush determination           |
           -------------------------------------------------
      ----------------------------------------------------------- 
     |                   =====================                   |
     |                        A N C O P T                        |
     |                   =====================                   |
     |               Approximate Normal Coordinate               |
     |                Rational Function Optimizer                |
      ----------------------------------------------------------- 
target rmsd / Å         0.100000
unbiased initial rmsd   0.170835
 
iter. min.        max.        rmsd       kpush
      ----------------------------------------------------------- 
     |                   =====================                   |
     |                        A N C O P T                        |
     |                   =====================                   |
     |               Approximate Normal Coordinate               |
     |                Rational Function Optimizer                |
      ----------------------------------------------------------- 
 1    0.000000    0.772727    0.011008   -0.386364
      ----------------------------------------------------------- 
     |                   =====================                   |
     |                        A N C O P T                        |
     |                   =====================                   |
     |               Approximate Normal Coordinate               |
     |                Rational Function Optimizer                |
      ----------------------------------------------------------- 
 2    0.000000    0.386364    0.013680   -0.193182
      ----------------------------------------------------------- 
     |                   =====================                   |
     |                        A N C O P T                        |
     |                   =====================                   |
     |               Approximate Normal Coordinate               |
     |                Rational Function Optimizer                |
      ----------------------------------------------------------- 
 3    0.000000    0.193182    0.017700   -0.096591
      ----------------------------------------------------------- 
     |                   =====================                   |
     |                        A N C O P T                        |
     |                   =====================                   |
     |               Approximate Normal Coordinate               |
     |                Rational Function Optimizer                |
      ----------------------------------------------------------- 
 4    0.000000    0.096591    0.025200   -0.048295
      ----------------------------------------------------------- 
     |                   =====================                   |
     |                        A N C O P T                        |
     |                   =====================                   |
     |               Approximate Normal Coordinate               |
     |                Rational Function Optimizer                |
      ----------------------------------------------------------- 
 5    0.000000    0.048295    0.038941   -0.024148
      ----------------------------------------------------------- 
     |                   =====================                   |
     |                        A N C O P T                        |
     |                   =====================                   |
     |               Approximate Normal Coordinate               |
     |                Rational Function Optimizer                |
      ----------------------------------------------------------- 
 6    0.000000    0.024148    0.060464   -0.012074
      ----------------------------------------------------------- 
     |                   =====================                   |
     |                        A N C O P T                        |
     |                   =====================                   |
     |               Approximate Normal Coordinate               |
     |                Rational Function Optimizer                |
      ----------------------------------------------------------- 
 7    0.000000    0.012074    0.088185   -0.006037
      ----------------------------------------------------------- 
     |                   =====================                   |
     |                        A N C O P T                        |
     |                   =====================                   |
     |               Approximate Normal Coordinate               |
     |                Rational Function Optimizer                |
      ----------------------------------------------------------- 
 8    0.000000    0.006037    0.115719   -0.003018
      ----------------------------------------------------------- 
     |                   =====================                   |
     |                        A N C O P T                        |
     |                   =====================                   |
     |               Approximate Normal Coordinate               |
     |                Rational Function Optimizer                |
      ----------------------------------------------------------- 
 9    0.003018    0.006037    0.100138   -0.004528
final kpush: -0.004528
           -------------------------------------------------
          |            Biased Numerical Hessian             |
           -------------------------------------------------
kpush                :  -0.00453
alpha                :   1.00000
step length          :   0.00500
SCC accuracy         :   0.30000
Hessian scale factor :   1.00000
frozen atoms in %    :   0.00000    0
RMS gradient         :   0.00007
estimated CPU  time      0.01 min
estimated wall time      0.01 min

writing file <hessian>.

 projected vibrational frequencies (cm⁻¹)
eigval :       -0.00    -0.00    -0.00     0.00     0.00     0.00
eigval :       41.02    89.12    53.47   133.06   206.88   224.48
eigval :      279.55   386.93   408.72   602.10   689.45   811.60
eigval :      874.50   903.40   939.18  1003.48  1072.94  1081.00
eigval :     1109.77  1115.76  1137.99  1184.25  1213.49  1243.76
eigval :     1299.62  1331.09  1373.81  1414.62  1425.86  1433.69
eigval :     1449.01  1477.31  1494.57  1502.31  1700.13  2984.29
eigval :     2985.62  2993.79  2994.93  2999.28  3011.87  3022.74
eigval :     3037.01  3044.72  3054.40
           -------------------------------------------------
          |                Property Printout                |
           -------------------------------------------------

    * Orbital Energies and Occupations

         #    Occupation            Energy/Eh            Energy/eV
      -------------------------------------------------------------
         1        2.0000           -0.7512002             -20.4412
       ...           ...                  ...                  ...
         9        2.0000           -0.5643601             -15.3570
        10        2.0000           -0.5500818             -14.9685
        11        2.0000           -0.5223210             -14.2131
        12        2.0000           -0.5126477             -13.9499
        13        2.0000           -0.5050435             -13.7429
        14        2.0000           -0.4940816             -13.4446
        15        2.0000           -0.4770568             -12.9814
        16        2.0000           -0.4745952             -12.9144
        17        2.0000           -0.4537032             -12.3459
        18        2.0000           -0.4530951             -12.3293
        19        2.0000           -0.4455105             -12.1230
        20        2.0000           -0.4365543             -11.8792
        21        2.0000           -0.4198298             -11.4241 (HOMO)
        22                         -0.2396414              -6.5210 (LUMO)
        23                          0.0057172               0.1556
        24                          0.0942787               2.5655
        25                          0.1183351               3.2201
        26                          0.1272468               3.4626
        27                          0.1388504               3.7783
        28                          0.1495517               4.0695
        29                          0.1605870               4.3698
        30                          0.1861352               5.0650
        31                          0.1934356               5.2637
        32                          0.2018434               5.4924
       ...                                ...                  ...
        38                          0.6125175              16.6674
      -------------------------------------------------------------
                  HL-Gap            0.1801884 Eh            4.9032 eV
             Fermi-level           -0.3297356 Eh           -8.9726 eV

     #   Z          covCN         q      C6AA      α(0)
     1   6 C        3.752    -0.112    22.697     6.794
     2   6 C        3.802    -0.058    21.610     6.618
     3   6 C        3.804    -0.101    22.428     6.742
     4   6 C        2.717     0.367    20.783     7.463
     5   8 O        0.856    -0.486    23.473     6.496
     6   8 O        1.704    -0.264    18.382     5.789
     7   6 C        3.649     0.010    20.725     6.540
     8   1 H        0.925     0.045     2.381     2.413
     9   1 H        0.925     0.050     2.314     2.379
    10   1 H        0.925     0.027     2.629     2.536
    11   1 H        0.924     0.061     2.190     2.314
    12   1 H        0.924     0.052     2.299     2.371
    13   1 H        0.925     0.075     2.037     2.232
    14   1 H        0.925     0.084     1.935     2.175
    15   1 H        0.925     0.102     1.771     2.081
    16   1 H        0.924     0.075     2.032     2.229
    17   1 H        0.924     0.073     2.050     2.239

 Mol. C6AA /au·bohr⁶  :       2204.750396
 Mol. C8AA /au·bohr⁸  :      46940.699468
 Mol. α(0) /au        :         69.410457


Wiberg/Mayer (AO) data.
largest (>0.10) Wiberg bond orders for each atom

 ---------------------------------------------------------------------------
     #   Z sym  total        # sym  WBO       # sym  WBO       # sym  WBO
 ---------------------------------------------------------------------------
     1   6 C    3.996 --     2 C    1.022    10 H    0.987     8 H    0.987
                             9 H    0.986
     2   6 C    3.991 --     1 C    1.022     3 C    0.980    12 H    0.977
                            11 H    0.975
     3   6 C    3.989 --     2 C    0.980     4 C    0.979    13 H    0.972
                            14 H    0.957
     4   6 C    3.903 --     5 O    1.698     6 O    1.163     3 C    0.979
     5   8 O    1.974 --     4 C    1.698     6 O    0.170
     6   8 O    2.317 --     4 C    1.163     7 C    0.940     5 O    0.170
     7   6 C    3.906 --    17 H    0.977    15 H    0.977    16 H    0.975
                             6 O    0.940
     8   1 H    0.998 --     1 C    0.987
     9   1 H    0.997 --     1 C    0.986
    10   1 H    0.999 --     1 C    0.987
    11   1 H    0.996 --     2 C    0.975
    12   1 H    0.997 --     2 C    0.977
    13   1 H    0.994 --     3 C    0.972
    14   1 H    0.993 --     3 C    0.957
    15   1 H    0.990 --     7 C    0.977
    16   1 H    0.994 --     7 C    0.975
    17   1 H    0.995 --     7 C    0.977
 ---------------------------------------------------------------------------

Topologies differ in total number of bonds
Writing topology from bond orders to xtbtopo.mol

molecular dipole:
                 x           y           z       tot (Debye)
 q only:       -0.072       0.803       0.857
   full:       -0.031       0.783       0.861       2.959
molecular quadrupole (traceless):
                xx          xy          yy          xz          yz          zz
 q only:        7.392       3.827      -3.361      -0.257      -3.707      -4.031
  q+dip:        6.460       3.697      -2.548       0.385      -4.362      -3.912
   full:        6.732       3.416      -2.676       0.416      -4.916      -4.056

           -------------------------------------------------
          |                Geometry Summary                 |
           -------------------------------------------------

      molecular mass/u    :      102.1318968
   center of mass at/Å    :       -0.0060631       0.0124218      -0.0109410
  moments of inertia/u·Å² :        0.1124154E+03   0.3095445E+03   0.3247161E+03
rotational constants/cm⁻¹ :        0.1499584E+00   0.5445947E-01   0.5191499E-01

 * 15 selected distances

     #   Z          #   Z                                           value/Å
     1   6 C        2   6 C                                       1.5239006
     2   6 C        3   6 C                                       1.5356042 (max)
     4   6 C        5   8 O                                       1.2136111
     4   6 C        6   8 O                                       1.3285905
     6   8 O        7   6 C                                       1.4293191
     1   6 C        8   1 H                                       1.0874326
     1   6 C        9   1 H                                       1.0867070
     1   6 C       10   1 H                                       1.0884399
     2   6 C       11   1 H                                       1.0905165
     2   6 C       12   1 H                                       1.0910314
     3   6 C       13   1 H                                       1.0897082
     3   6 C       14   1 H                                       1.0898678
     7   6 C       15   1 H                                       1.0854602 (min)
     7   6 C       16   1 H                                       1.0906554
     7   6 C       17   1 H                                       1.0908330

 * 3 distinct bonds (by element types)

   Z      Z             #   av. dist./Å        max./Å        min./Å
   1 H    6 C          10     1.0890652     1.0910314     1.0854602
   6 C    6 C           2     1.5297524     1.5356042     1.5239006
   6 C    8 O           3     1.3238402     1.4293191     1.2136111

           -------------------------------------------------
          |               Frequency Printout                |
           -------------------------------------------------
 projected vibrational frequencies (cm⁻¹)
eigval :       -0.00    -0.00    -0.00     0.00     0.00     0.00
eigval :       41.02    89.12    53.47   133.06   206.88   224.48
eigval :      279.55   386.93   408.72   602.10   689.45   811.60
eigval :      874.50   903.40   939.18  1003.48  1072.94  1081.00
eigval :     1109.77  1115.76  1137.99  1184.25  1213.49  1243.76
eigval :     1299.62  1331.09  1373.81  1414.62  1425.86  1433.69
eigval :     1449.01  1477.31  1494.57  1502.31  1700.13  2984.29
eigval :     2985.62  2993.79  2994.93  2999.28  3011.87  3022.74
eigval :     3037.01  3044.72  3054.40
 reduced masses (amu)
   1: 11.90   2: 11.53   3: 11.80   4: 11.74   5: 10.58   6: 11.04   7: 12.61   8:  8.70
   9:  1.69  10:  7.50  11:  9.87  12:  5.70  13:  8.74  14:  8.16  15: 10.64  16: 11.57
  17:  9.97  18:  5.80  19:  7.52  20:  8.08  21:  5.99  22:  9.42  23:  8.82  24:  4.76
  25:  6.66  26:  5.75  27:  6.20  28:  6.08  29:  8.92  30:  3.60  31:  4.16  32:  4.44
  33:  2.55  34:  3.12  35:  1.53  36:  2.15  37:  1.59  38:  1.93  39:  1.51  40:  1.57
  41: 13.29  42:  1.96  43:  1.95  44:  1.56  45:  1.40  46:  1.60  47:  1.82  48:  1.89
  49:  1.87  50:  1.39  51:  1.79
 IR intensities (km·mol⁻¹)
   1:  0.45   2:  0.56   3:  1.05   4:  0.13   5:  2.05   6:  0.21   7:  2.88   8:  0.16
   9:  0.50  10:  1.84  11:  7.82  12:  4.72  13: 15.31  14:  2.52  15: 11.13  16: 12.32
  17: 22.86  18: 19.71  19: 25.44  20:  7.87  21:  5.44  22: 11.55  23: 99.86  24:  9.20
  25: 22.46  26:  6.88  27: 28.88  28: 72.02  29:328.86  30: 11.09  31: 12.61  32:  6.67
  33: 16.16  34:  1.30  35: 13.64  36:  7.18  37:  2.87  38:  0.62  39:  2.45  40:  0.54
  41:666.66  42: 28.55  43: 18.29  44: 23.40  45: 11.98  46: 30.74  47: 34.78  48: 91.01
  49: 70.27  50: 36.12  51:  3.05
 Raman intensities (Ä⁴*amu⁻¹)
   1:  0.00   2:  0.00   3:  0.00   4:  0.00   5:  0.00   6:  0.00   7:  0.00   8:  0.00
   9:  0.00  10:  0.00  11:  0.00  12:  0.00  13:  0.00  14:  0.00  15:  0.00  16:  0.00
  17:  0.00  18:  0.00  19:  0.00  20:  0.00  21:  0.00  22:  0.00  23:  0.00  24:  0.00
  25:  0.00  26:  0.00  27:  0.00  28:  0.00  29:  0.00  30:  0.00  31:  0.00  32:  0.00
  33:  0.00  34:  0.00  35:  0.00  36:  0.00  37:  0.00  38:  0.00  39:  0.00  40:  0.00
  41:  0.00  42:  0.00  43:  0.00  44:  0.00  45:  0.00  46:  0.00  47:  0.00  48:  0.00
  49:  0.00  50:  0.00  51:  0.00
 output can be read by thermo (or use thermo option).
 writing <g98.out> molden fake output.
 recommended (thermochemical) frequency scaling factor: 1.0
           -------------------------------------------------
          |             Thermodynamic Functions             |
           -------------------------------------------------

Molecule has no symmetry elements
It seems to be the C1 point group
c1  symmetry found (for desy threshold:  0.10E+00) used in thermo

          ...................................................
          :                      SETUP                      :
          :.................................................:
          :  # frequencies                          45      :
          :  # imaginary freq.                       0      :
          :  linear?                             false      :
          :  only rotor calc.                    false      :
          :  symmetry                               c1      :
          :  rotational number                       1      :
          :  scaling factor                  1.0000000      :
          :  rotor cutoff                    0.0000000 cm⁻¹ :
          :  imag. cutoff                 -100.0000000 cm⁻¹ :
          :.................................................:

    mode    ω/cm⁻¹     T·S(HO)/kcal·mol⁻¹    T·S(FR)/kcal·mol⁻¹   T·S(vib)
   ------------------------------------------------------------------------
       1     41.02    -1.55308 (100.00%)    -1.11469 (  0.00%)    -1.55308
       2     89.12    -1.09695 (100.00%)    -0.88509 (  0.00%)    -1.09695
       3     53.47    -1.39672 (100.00%)    -1.03628 (  0.00%)    -1.39672
       4    133.06    -0.86502 (100.00%)    -0.76644 (  0.00%)    -0.86502
       5    206.88    -0.61747 (100.00%)    -0.63575 (  0.00%)    -0.61747
       6    224.48    -0.57324 (100.00%)    -0.61158 (  0.00%)    -0.57324
       7    279.55    -0.45808 (100.00%)    -0.54660 (  0.00%)    -0.45808
   ------------------------------------------------------------------------

   temp. (K)  partition function   enthalpy   heat capacity  entropy
                                   cal/mol     cal/K/mol   cal/K/mol   J/K/mol
 298.15  VIB   805.                 3792.863     23.518     26.018
         ROT  0.257E+06              888.752      2.981     27.734
         INT  0.207E+09             4681.615     26.499     53.752
         TR   0.999E+27             1481.254      4.968     39.763
         TOT                        6162.8694    31.4671    93.5148   391.2661

       T/K    H(0)-H(T)+PV         H(T)/Eh          T*S/Eh         G(T)/Eh
   ------------------------------------------------------------------------
    298.15    0.982116E-02    0.152973E+00    0.444319E-01    0.108541E+00
   ------------------------------------------------------------------------

         :::::::::::::::::::::::::::::::::::::::::::::::::::::
         ::                  THERMODYNAMIC                  ::
         :::::::::::::::::::::::::::::::::::::::::::::::::::::
         :: total free energy         -23.850247782271 Eh   ::
         ::.................................................::
         :: total energy              -23.958789262206 Eh   ::
         :: zero point energy           0.143152242069 Eh   ::
         :: G(RRHO) w/o ZPVE           -0.034610762135 Eh   ::
         :: G(RRHO) contrib.            0.108541479935 Eh   ::
         :::::::::::::::::::::::::::::::::::::::::::::::::::::

optimized geometry written to: xtbopt.coord


           -------------------------------------------------
          | TOTAL ENERGY              -23.958789262206 Eh   |
          | TOTAL ENTHALPY            -23.805815862634 Eh   |
          | TOTAL FREE ENERGY         -23.850247782271 Eh   |
          | GRADIENT NORM               0.000066578967 Eh/α |
          | HOMO-LUMO GAP               4.903176002739 eV   |
           -------------------------------------------------

------------------------------------------------------------------------
 * finished run on 2025/04/11 at 12:02:16.090     
------------------------------------------------------------------------
 total:
 * wall-time:     0 d,  0 h,  0 min,  2.707 sec
 *  cpu-time:     0 d,  0 h,  0 min,  2.498 sec
 * ratio c/w:     0.923 speedup
 SCF:
 * wall-time:     0 d,  0 h,  0 min,  0.028 sec
 *  cpu-time:     0 d,  0 h,  0 min,  0.015 sec
 * ratio c/w:     0.529 speedup
 analytical hessian:
 * wall-time:     0 d,  0 h,  0 min,  0.864 sec
 *  cpu-time:     0 d,  0 h,  0 min,  0.848 sec
 * ratio c/w:     0.981 speedup

