
                                 *****************
                                 * O   R   C   A *
                                 *****************

                                            #,                                       
                                            ###                                      
                                            ####                                     
                                            #####                                    
                                            ######                                   
                                           ########,                                 
                                     ,,################,,,,,                         
                               ,,#################################,,                 
                          ,,##########################################,,             
                       ,#########################################, ''#####,          
                    ,#############################################,,   '####,        
                  ,##################################################,,,,####,       
                ,###########''''           ''''###############################       
              ,#####''   ,,,,##########,,,,          '''####'''          '####       
            ,##' ,,,,###########################,,,                        '##       
           ' ,,###''''                  '''############,,,                           
         ,,##''                                '''############,,,,        ,,,,,,###''
      ,#''                                            '''#######################'''  
     '                                                          ''''####''''         
             ,#######,   #######,   ,#######,      ##                                
            ,#'     '#,  ##    ##  ,#'     '#,    #''#        ,####,   ,####,        
            ##       ##  ##   ,#'  ##            #'  '#       #'       #'  '#        
            ##       ##  #######   ##           ,######,      #####,   #    #        
            '#,     ,#'  ##    ##  '#,     ,#' ,#      #,     #,   #   #,  ,#        
             '#######'   ##     ##  '#######'  #'      '#     '####' # '####'        



                #########################################################
                #                        -***-                          #
                #          Department of theory and spectroscopy        #
                #                                                       #
                #                      Frank Neese                      #
                #                                                       #
                #     Directorship, Architecture, Infrastructure        #
                #                    SHARK, DRIVERS                     #
                #        Core code/Algorithms in most modules           #
                #                                                       #
                #        Max Planck Institute fuer Kohlenforschung      #
                #                Kaiser Wilhelm Platz 1                 #
                #                 D-45470 Muelheim/Ruhr                 #
                #                      Germany                          #
                #                                                       #
                #                  All rights reserved                  #
                #                        -***-                          #
                #########################################################


                         Program Version 6.0.0  -   RELEASE  -


 With contributions from (in alphabetic order):
   Daniel Aravena         : Magnetic Suceptibility
   Michael Atanasov       : Ab Initio Ligand Field Theory (pilot matlab implementation)
   Alexander A. Auer      : GIAO ZORA, VPT2 properties, NMR spectrum
   Ute Becker             : All parallelization in ORCA, NUMFREQ, NUMCALC
   Giovanni Bistoni       : ED, misc. LED, open-shell LED, HFLD
   Martin Brehm           : Molecular dynamics
   Dmytro Bykov           : pre 5.0 version of the SCF Hessian
   Marcos Casanova-Páez   : Triplet and SCS-CIS(D). UHF-(DLPNO)-IP/EA/STEOM-CCSD. UHF-CVS-IP/STEOM-CCSD
   Vijay G. Chilkuri      : MRCI spin determinant printing, contributions to CSF-ICE
   Pauline Colinet        : FMM embedding
   Dipayan Datta          : RHF DLPNO-CCSD density
   Achintya Kumar Dutta   : EOM-CC, STEOM-CC
   Nicolas Foglia         : Exact transition moments, OPA infrastructure, MCD improvements
   Dmitry Ganyushin       : Spin-Orbit,Spin-Spin,Magnetic field MRCI
   Miquel Garcia          : C-PCM and meta-GGA Hessian, CCSD/C-PCM, Gaussian charge scheme
   Tiago L. C. Gouveia    : GS-ROHF, GS-ROCIS
   Yang Guo               : DLPNO-NEVPT2, F12-NEVPT2, CIM, IAO-localization
   Andreas Hansen         : Spin unrestricted coupled pair/coupled cluster methods
   Ingolf Harden          : AUTO-CI MPn and infrastructure 
   Benjamin Helmich-Paris : MC-RPA, TRAH-(SCF,CASSCF), AVAS, COSX integrals, SCF dyn. polar.
   Lee Huntington         : MR-EOM, pCC
   Robert Izsak           : Overlap fitted RIJCOSX, COSX-SCS-MP3, EOM
   Riya Kayal             : Wick's Theorem for AUTO-CI, AUTO-CI UHF-CCSDT
   Emily Kempfer          : AUTO-CI, RHF CISDT and CCSDT
   Christian Kollmar      : KDIIS, OOCD, Brueckner-CCSD(T), CCSD density, CASPT2, CASPT2-K, improved NEVPT2
   Axel Koslowski         : Symmetry handling
   Simone Kossmann        : Meta GGA functionals, TD-DFT gradient, OOMP2, (MP2 Hessian; deprecated post 5.0)
   Lucas Lang             : DCDCAS
   Marvin Lechner         : AUTO-CI (C++ implementation), FIC-MRCC
   Spencer Leger          : CASSCF response
   Dagmar Lenk            : GEPOL surface, SMD, ORCA-2-JSON
   Dimitrios Liakos       : Extrapolation schemes; Compound Job, initial MDCI parallelization
   Dimitrios Manganas     : Further ROCIS development; embedding schemes. LFT, Crystal Embedding
   Dimitrios Pantazis     : SARC Basis sets
   Anastasios Papadopoulos: AUTO-CI, single reference methods and gradients
   Taras Petrenko         : pre 6.0 DFT Hessian and TD-DFT gradient, (ASA, deprecated), ECA, 1-Electron XAS/XES, NRVS
   Peter Pinski           : DLPNO-MP2, DLPNO-MP2 Gradient
   Christoph Reimann      : Effective Core Potentials
   Marius Retegan         : Local ZFS, SOC
   Christoph Riplinger    : Optimizer, TS searches, QM/MM, DLPNO-CCSD(T), (RO)-DLPNO pert. Triples
   Michael Roemelt        : Original ROCIS implementation
   Masaaki Saitow         : Open-shell DLPNO-CCSD energy and density
   Barbara Sandhoefer     : DKH picture change effects
   Kantharuban Sivalingam : CASSCF convergence/infrastructure, NEVPT2 and variants, FIC-MRCI
   Bernardo de Souza      : ESD, SOC TD-DFT
   Georgi Stoychev        : AutoAux, RI-MP2 NMR, DLPNO-MP2 response, X2C
   Van Anh Tran           : RI-MP2 g-tensors
   Willem Van den Heuvel  : Paramagnetic NMR
   Zikuan Wang            : NOTCH, Electric field optimization 
   Frank Wennmohs         : Technical directorship and infrastructure
   Hang Xu                : AUTO-CI-Response properties 


 We gratefully acknowledge several colleagues who have allowed us to
 interface, adapt or use parts of their codes:
   Stefan Grimme, W. Hujo, H. Kruse, P. Pracht,  : VdW corrections, initial TS optimization,
                  C. Bannwarth, S. Ehlert,         DFT functionals, gCP, sTDA/sTD-DF
                  L. Wittmann, M. Mueller
   Ed Valeev, F. Pavosevic, A. Kumar             : LibInt (2-el integral package), F12 methods
   Garnet Chan, S. Sharma, J. Yang, R. Olivares  : DMRG
   Ulf Ekstrom                                   : XCFun DFT Library
   Mihaly Kallay                                 : mrcc  (arbitrary order and MRCC methods)
   Frank Weinhold                                : gennbo (NPA and NBO analysis)
   Simon Mueller                                 : openCOSMO-RS
   Christopher J. Cramer and Donald G. Truhlar   : smd solvation model
   Lars Goerigk                                  : TD-DFT with DH, B97 family of functionals
   V. Asgeirsson, H. Jonsson                     : NEB implementation
   FAccTs GmbH                                   : IRC, NEB, NEB-TS, DLPNO-Multilevel, CI-OPT
                                                   MM, QMMM, 2- and 3-layer-ONIOM, Crystal-QMMM,
                                                   LR-CPCM, SF, NACMEs, symmetry and pop. for TD-DFT,
                                                   nearIR, NL-DFT gradient (VV10), updates on ESD,
                                                   ML-optimized integration grids, MBIS, APM,
                                                   GOAT, DOCKER, SOLVATOR, interface openCOSMO-RS
   S Lehtola, MJT Oliveira, MAL Marques          : LibXC Library
   Liviu Ungur et al                             : ANISO software


 Your calculation uses the libint2 library for the computation of 2-el integrals
 For citations please refer to: http://libint.valeyev.net

 Your ORCA version has been built with support for libXC version: 6.2.2
 For citations please refer to: https://libxc.gitlab.io

 This ORCA versions uses:
   CBLAS   interface :  Fast vector & matrix operations
   LAPACKE interface :  Fast linear algebra routines
   SCALAPACK package :  Parallel linear algebra routines
   Shared memory     :  Shared parallel matrices
   BLAS/LAPACK       :  OpenBLAS 0.3.27  USE64BITINT DYNAMIC_ARCH NO_AFFINITY SkylakeX SINGLE_THREADED
        Core in use  :  SkylakeX
   Copyright (c) 2011-2014, The OpenBLAS Project


Your calculation utilizes the geometrical counterpoise correction gCP
Please cite in your paper:
H.Kruse, S. Grimme J.Chem.Phys., 136, (2012), 154101 
   

Your calculation utilizes the atom-pairwise dispersion correction
based on EEQ partial charges (D4)


================================================================================

----- Orbital basis set information -----
Your calculation utilizes the basis: def2-mTZVPP
   Stefan Grimme, Andreas Hansen, Sebastian Ehlert, and Jan-Michael Mewes 
   J. Chem. Phys. 154, 064103 (2021). DOI: 10.1063/5.0040021

----- AuxJ basis set information -----
Your calculation utilizes the auxiliary basis: def2/J
   F. Weigend, Phys. Chem. Chem. Phys. 8, 1057 (2006).

================================================================================
                                        WARNINGS
                       Please study these warnings very carefully!
================================================================================

Using LibXC functional ID 497 : Re-regularized SCAN exchange by Furness et al
[ 1]  J. W. Furness, A. D. Kaplan, J. Ning, J. P. Perdew, and J. Sun.,  J. Phys. Chem. Lett. 11, 8208-8215 (2020)
[ 2]  J. W. Furness, A. D. Kaplan, J. Ning, J. P. Perdew, and J. Sun.,  J. Phys. Chem. Lett. 11, 9248-9248 (2020)
Using LibXC functional ID 498 : Re-regularized SCAN correlation by Furness et al
[ 1]  J. W. Furness, A. D. Kaplan, J. Ning, J. P. Perdew, and J. Sun.,  J. Phys. Chem. Lett. 11, 8208-8215 (2020)
[ 2]  J. W. Furness, A. D. Kaplan, J. Ning, J. P. Perdew, and J. Sun.,  J. Phys. Chem. Lett. 11, 9248-9248 (2020)
Using LibXC functional ID 497 : Re-regularized SCAN exchange by Furness et al
[ 1]  J. W. Furness, A. D. Kaplan, J. Ning, J. P. Perdew, and J. Sun.,  J. Phys. Chem. Lett. 11, 8208-8215 (2020)
[ 2]  J. W. Furness, A. D. Kaplan, J. Ning, J. P. Perdew, and J. Sun.,  J. Phys. Chem. Lett. 11, 9248-9248 (2020)
Using LibXC functional ID 498 : Re-regularized SCAN correlation by Furness et al
[ 1]  J. W. Furness, A. D. Kaplan, J. Ning, J. P. Perdew, and J. Sun.,  J. Phys. Chem. Lett. 11, 8208-8215 (2020)
[ 2]  J. W. Furness, A. D. Kaplan, J. Ning, J. P. Perdew, and J. Sun.,  J. Phys. Chem. Lett. 11, 9248-9248 (2020)

================================================================================
                                       INPUT FILE
================================================================================
NAME = sp_gas.inp
|  1> ! r2scan-3c def2/J RI DEFGRID2 scfconv6 printgap
|  2> %output
|  3>     printlevel normal
|  4> end
|  5> * xyz 0 1
|  6> C -2.2233236004 0.8982264634 0.1912622069
|  7> C -0.8491873513 0.6826318193 -0.4309349336
|  8> C -0.0240058745 -0.4005026974 0.2726908009
|  9> H -0.0046672683 -0.1777945435 1.3448851326
| 10> C -0.5976582294 -1.7973473785 0.0542773557
| 11> C 1.4243391481 -0.3513042004 -0.2254194998
| 12> O 2.0082225459 0.8805254966 0.1515878255
| 13> H -2.7269893783 1.7291632566 -0.2966299579
| 14> H -2.8463821253 0.0144304306 0.0837143956
| 15> H -2.1287075618 1.1287503069 1.249985419
| 16> H -0.2849411944 1.6161416348 -0.3787602332
| 17> H -0.9621385801 0.416485352 -1.4846396788
| 18> H -1.6020557088 -1.8644643807 0.4603979578
| 19> H 0.0195397657 -2.5443755198 0.5477616975
| 20> H -0.6353552386 -2.0276842405 -1.008203979
| 21> H 1.437095879 -0.460732882 -1.3186965181
| 22> H 1.988864792 -1.1846734344 0.2150827787
| 23> H 2.9165306307 0.9163410315 -0.1751966973
| 24> *
| 25> 
| 26>                          ****END OF INPUT****
================================================================================

                       ****************************
                       * Single Point Calculation *
                       ****************************

---------------------------------
CARTESIAN COORDINATES (ANGSTROEM)
---------------------------------
  C     -2.223324    0.898226    0.191262
  C     -0.849187    0.682632   -0.430935
  C     -0.024006   -0.400503    0.272691
  H     -0.004667   -0.177795    1.344885
  C     -0.597658   -1.797347    0.054277
  C      1.424339   -0.351304   -0.225419
  O      2.008223    0.880525    0.151588
  H     -2.726989    1.729163   -0.296630
  H     -2.846382    0.014430    0.083714
  H     -2.128708    1.128750    1.249985
  H     -0.284941    1.616142   -0.378760
  H     -0.962139    0.416485   -1.484640
  H     -1.602056   -1.864464    0.460398
  H      0.019540   -2.544376    0.547762
  H     -0.635355   -2.027684   -1.008204
  H      1.437096   -0.460733   -1.318697
  H      1.988865   -1.184673    0.215083
  H      2.916531    0.916341   -0.175197

----------------------------
CARTESIAN COORDINATES (A.U.)
----------------------------
  NO LB      ZA    FRAG     MASS         X           Y           Z
   0 C     6.0000    0    12.011   -4.201473    1.697402    0.361433
   1 C     6.0000    0    12.011   -1.604732    1.289987   -0.814349
   2 C     6.0000    0    12.011   -0.045365   -0.756840    0.515311
   3 H     1.0000    0     1.008   -0.008820   -0.335983    2.541465
   4 C     6.0000    0    12.011   -1.129410   -3.396494    0.102569
   5 C     6.0000    0    12.011    2.691611   -0.663869   -0.425981
   6 O     8.0000    0    15.999    3.794991    1.663952    0.286459
   7 H     1.0000    0     1.008   -5.153263    3.267645   -0.560549
   8 H     1.0000    0     1.008   -5.378883    0.027270    0.158197
   9 H     1.0000    0     1.008   -4.022674    2.133029    2.362130
  10 H     1.0000    0     1.008   -0.538461    3.054065   -0.715753
  11 H     1.0000    0     1.008   -1.818178    0.787043   -2.805562
  12 H     1.0000    0     1.008   -3.027447   -3.523327    0.870026
  13 H     1.0000    0     1.008    0.036925   -4.808173    1.035120
  14 H     1.0000    0     1.008   -1.200647   -3.831768   -1.905229
  15 H     1.0000    0     1.008    2.715718   -0.870659   -2.491975
  16 H     1.0000    0     1.008    3.758410   -2.238708    0.406448
  17 H     1.0000    0     1.008    5.511444    1.731634   -0.331074

--------------------------------
INTERNAL COORDINATES (ANGSTROEM)
--------------------------------
 C      0   0   0     0.000000000000     0.00000000     0.00000000
 C      1   0   0     1.523765324222     0.00000000     0.00000000
 C      2   1   0     1.532708069128   113.45619992     0.00000000
 H      3   2   1     1.095250468355   108.37405679   308.17224749
 C      3   2   1     1.525764241436   112.26146017    69.17226915
 C      3   2   1     1.532396054635   109.69053521   191.49194647
 O      6   3   2     1.414375744973   109.35955937    64.49103052
 H      1   2   3     1.087278223177   110.03833816   175.41784418
 H      1   2   3     1.086675611560   111.19694722   295.22804865
 H      1   2   3     1.087652645389   110.42659355    55.82993328
 H      2   1   3     1.092033195729   108.99571268   240.01187047
 H      2   1   3     1.092650727452   109.57346755   122.12105632
 H      5   3   2     1.085473598048   110.54504661   298.66242625
 H      5   3   2     1.087433310439   110.52172047   178.85405618
 H      5   3   2     1.087815573103   110.28540766    58.87218175
 H      6   3   2     1.098813910215   109.34106459   303.60749652
 H      6   3   2     1.098742799823   109.32591064   184.95072712
 H      7   6   3     0.965968143261   109.28675370   180.90457152

---------------------------
INTERNAL COORDINATES (A.U.)
---------------------------
 C      0   0   0     0.000000000000     0.00000000     0.00000000
 C      1   0   0     2.879499155145     0.00000000     0.00000000
 C      2   1   0     2.896398493904   113.45619992     0.00000000
 H      3   2   1     2.069723433241   108.37405679   308.17224749
 C      3   2   1     2.883276561244   112.26146017    69.17226915
 C      3   2   1     2.895808871961   109.69053521   191.49194647
 O      6   3   2     2.672782808459   109.35955937    64.49103052
 H      1   2   3     2.054658073181   110.03833816   175.41784418
 H      1   2   3     2.053519302260   111.19694722   295.22804865
 H      1   2   3     2.055365628620   110.42659355    55.82993328
 H      2   1   3     2.063643669078   108.99571268   240.01187047
 H      2   1   3     2.064810634914   109.57346755   122.12105632
 H      5   3   2     2.051247825913   110.54504661   298.66242625
 H      5   3   2     2.054951145632   110.52172047   178.85405618
 H      5   3   2     2.055673517378   110.28540766    58.87218175
 H      6   3   2     2.076457362450   109.34106459   303.60749652
 H      6   3   2     2.076322983283   109.32591064   184.95072712
 H      7   6   3     1.825415244855   109.28675370   180.90457152

---------------------
BASIS SET INFORMATION
---------------------
There are 3 groups of distinct atoms

 Group   1 Type C   : 11s6p1d contracted to 5s3p1d pattern {62111/411/1}
 Group   2 Type H   : 4s1p contracted to 2s1p pattern {31/1}
 Group   3 Type O   : 11s6p2d contracted to 5s3p2d pattern {62111/411/11}

Atom   0C    basis set group =>   1
Atom   1C    basis set group =>   1
Atom   2C    basis set group =>   1
Atom   3H    basis set group =>   2
Atom   4C    basis set group =>   1
Atom   5C    basis set group =>   1
Atom   6O    basis set group =>   3
Atom   7H    basis set group =>   2
Atom   8H    basis set group =>   2
Atom   9H    basis set group =>   2
Atom  10H    basis set group =>   2
Atom  11H    basis set group =>   2
Atom  12H    basis set group =>   2
Atom  13H    basis set group =>   2
Atom  14H    basis set group =>   2
Atom  15H    basis set group =>   2
Atom  16H    basis set group =>   2
Atom  17H    basis set group =>   2
---------------------------------
AUXILIARY/J BASIS SET INFORMATION
---------------------------------
There are 3 groups of distinct atoms

 Group   1 Type C   : 12s5p4d2f1g contracted to 6s4p3d1f1g pattern {711111/2111/211/2/1}
 Group   2 Type H   : 5s2p1d contracted to 3s1p1d pattern {311/2/1}
 Group   3 Type O   : 12s5p4d2f1g contracted to 6s4p3d1f1g pattern {711111/2111/211/2/1}

Atom   0C    basis set group =>   1
Atom   1C    basis set group =>   1
Atom   2C    basis set group =>   1
Atom   3H    basis set group =>   2
Atom   4C    basis set group =>   1
Atom   5C    basis set group =>   1
Atom   6O    basis set group =>   3
Atom   7H    basis set group =>   2
Atom   8H    basis set group =>   2
Atom   9H    basis set group =>   2
Atom  10H    basis set group =>   2
Atom  11H    basis set group =>   2
Atom  12H    basis set group =>   2
Atom  13H    basis set group =>   2
Atom  14H    basis set group =>   2
Atom  15H    basis set group =>   2
Atom  16H    basis set group =>   2
Atom  17H    basis set group =>   2

Checking for AutoStart:
The File: sp_gas.gbw exists
Trying to determine its content:
     ... Fine, the file contains calculation information
     ... Fine, the calculation information was read
     ... Fine, the file contains a basis set
     ... Fine, the basis set was read
     ... Fine, the file contains a geometry
     ... Fine, the geometry was read
     ... Fine, the file contains a set of orbitals
     ... Fine, the orbitals can be read
     => possible old guess file was deleted
     => GBW file was renamed to GES file
     => GES file is set as startup file
     => Guess is set to MORead
     ... now leaving AutoStart

------------------------------------------------------------------------------
                             ORCA STARTUP CALCULATIONS
                           -- RI-GTO INTEGRALS CHOSEN --
------------------------------------------------------------------------------
------------------------------------------------------------------------------
                   ___                                                        
                  /   \      - P O W E R E D   B Y -                         
                 /     \                                                     
                 |  |  |   _    _      __       _____    __    __             
                 |  |  |  | |  | |    /  \     |  _  \  |  |  /  |          
                  \  \/   | |  | |   /    \    | | | |  |  | /  /          
                 / \  \   | |__| |  /  /\  \   | |_| |  |  |/  /          
                |  |  |   |  __  | /  /__\  \  |    /   |      \           
                |  |  |   | |  | | |   __   |  |    \   |  |\   \          
                \     /   | |  | | |  |  |  |  | |\  \  |  | \   \       
                 \___/    |_|  |_| |__|  |__|  |_| \__\ |__|  \__/        
                                                                              
                      - O R C A' S   B I G   F R I E N D -                    
                                      &                                       
                       - I N T E G R A L  F E E D E R -                       
                                                                              
 v1 FN, 2020, v2 2021, v3 2022-2024                                           
------------------------------------------------------------------------------


----------------------
SHARK INTEGRAL PACKAGE
----------------------

Number of atoms                             ...     18
Number of basis functions                   ...    179
Number of shells                            ...     91
Maximum angular momentum                    ...      2
Integral batch strategy                     ... SHARK/LIBINT Hybrid
RI-J (if used) integral strategy            ... SPLIT-RIJ (Revised 2003 algorithm where possible)
Printlevel                                  ...      1
Contraction scheme used                     ... SEGMENTED contraction
Prescreening option                         ... SCHWARTZ
   Thresh                                   ... 1.000e-10
   Tcut                                     ... 1.000e-11
   Tpresel                                  ... 1.000e-11 
Coulomb Range Separation                    ... NOT USED
Exchange Range Separation                   ... NOT USED
Multipole approximations                    ... NOT USED
Finite Nucleus Model                        ... NOT USED
CABS basis                                  ... NOT available
Auxiliary Coulomb fitting basis             ... AVAILABLE
   # of basis functions in Aux-J            ...    426
   # of shells in Aux-J                     ...    150
   Maximum angular momentum in Aux-J        ...      4
Auxiliary J/K fitting basis                 ... NOT available
Auxiliary Correlation fitting basis         ... NOT available
Auxiliary 'external' fitting basis          ... NOT available

Checking pre-screening integrals            ... done (  0.0 sec) Dimension = 91
Check shell pair data                       ... done (  0.0 sec)
Shell pair information
Shell pair cut-off parameter TPreSel        ...   1.0e-11
Total number of shell pairs                 ...      4186
Shell pairs after pre-screening             ...      3889
Total number of primitive shell pairs       ...     14533
Primitive shell pairs kept                  ...      9987
          la=0 lb=0:   1367 shell pairs
          la=1 lb=0:   1502 shell pairs
          la=1 lb=1:    434 shell pairs
          la=2 lb=0:    360 shell pairs
          la=2 lb=1:    198 shell pairs
          la=2 lb=2:     28 shell pairs

Calculating one electron integrals          ... done (  0.0 sec)
Calculating RI/J V-Matrix + Cholesky decomp.... done (  0.1 sec)
Calculating Nuclear repulsion               ... done (  0.0 sec) ENN=    259.123256956909 Eh

Diagonalization of the overlap matrix:
Smallest eigenvalue                        ... 1.904e-04
Time for diagonalization                   ...    0.003 sec
Threshold for overlap eigenvalues          ... 1.000e-07
Number of eigenvalues below threshold      ... 0
Time for construction of square roots      ...    0.016 sec
Total time needed                          ...    0.029 sec

-------------------
DFT GRID GENERATION
-------------------

General Integration Accuracy     IntAcc      ... 4.388
Radial Grid Type                 RadialGrid  ... OptM3 with GC (2021)
Angular Grid (max. ang.)         AngularGrid ... 4 (Lebedev-302)
Angular grid pruning method      GridPruning ... 4 (adaptive)
Weight generation scheme         WeightScheme... mBecke (2022)
Basis function cutoff            BFCut       ... 1.0000e-10
Integration weight cutoff        WCut        ... 1.0000e-14
Partially contracted basis set               ... off
Rotationally invariant grid construction     ... off
Angular grids for H and He will be reduced by one unit
Diffuse basis detected: some atoms will have their outermost
                        angular grid increased by 1.

Total number of grid points                  ...    74866
Total number of batches                      ...     1180
Average number of points per batch           ...       63
Average number of grid points per atom       ...     4159
Initializing property integral containers    ... done (  0.0 sec)

SHARK setup successfully completed in   1.2 seconds

Maximum memory used throughout the entire STARTUP-calculation: 32.3 MB
-------------------------------------------------------------------------------
                                 ORCA GUESS
                   Start orbitals & Density for SCF / CASSCF
-------------------------------------------------------------------------------

------------
SCF SETTINGS
------------
Hamiltonian:
 Density Functional     Method          .... DFT(GTOs)
  Functional kind                       .... Exchange
  Functional name                       .... Re-regularized SCAN exchange by Furness et al
  Functional family                     .... MGGA
  Functional refs                              
    [ 0] J. W. Furness, A. D. Kaplan, J. Ning, J. P. Perdew, and J. Sun.,  J. Phys. Chem. Lett. 11, 8208-8215 (2020), doi: 10.1021/acs.jpclett.0c02405
    [ 1] J. W. Furness, A. D. Kaplan, J. Ning, J. P. Perdew, and J. Sun.,  J. Phys. Chem. Lett. 11, 9248-9248 (2020), doi: 10.1021/acs.jpclett.0c03077
  Functional external parameters        .... 6
    Parameter  0 _c1        =  6.670000e-01 : c1 parameter        
    Parameter  1 _c2        =  8.000000e-01 : c2 parameter        
    Parameter  2 _d         =  1.240000e+00 : d parameter         
    Parameter  3 _k1        =  6.500000e-02 : k1 parameter        
    Parameter  4 _eta       =  1.000000e-03 : eta parameter       
    Parameter  5 _dp2       =  3.610000e-01 : dp2 parameter       
  Functional kind                       .... Correlation
  Functional name                       .... Re-regularized SCAN correlation by Furness et al
  Functional family                     .... MGGA
  Functional refs                              
    [ 0] J. W. Furness, A. D. Kaplan, J. Ning, J. P. Perdew, and J. Sun.,  J. Phys. Chem. Lett. 11, 8208-8215 (2020), doi: 10.1021/acs.jpclett.0c02405
    [ 1] J. W. Furness, A. D. Kaplan, J. Ning, J. P. Perdew, and J. Sun.,  J. Phys. Chem. Lett. 11, 9248-9248 (2020), doi: 10.1021/acs.jpclett.0c03077
  Functional external parameters        .... 1
    Parameter  0 _eta       =  1.000000e-03 : Regularization parameter
 Gradients option       PostSCFGGA      .... off
 RI-approximation to the Coulomb term is turned on
   Number of AuxJ basis functions       .... 426


General Settings:
 Integral files         IntName         .... sp_gas
 Hartree-Fock type      HFTyp           .... RHF
 Total Charge           Charge          ....    0
 Multiplicity           Mult            ....    1
 Number of Electrons    NEL             ....   50
 Basis Dimension        Dim             ....  179
 Nuclear Repulsion      ENuc            ....    259.1232569569 Eh

Convergence Acceleration:
 AO-DIIS                CNVDIIS         .... on
   Start iteration      DIISMaxIt       ....    12
   Startup error        DIISStart       ....  0.200000
   # of expansion vecs  DIISMaxEq       ....     5
   Bias factor          DIISBfac        ....   1.050
   Max. coefficient     DIISMaxC        ....  10.000
 MO-DIIS                CNVKDIIS        .... off
 Trust-Rad. Augm. Hess. CNVTRAH         .... auto
   Auto Start mean grad. ratio tolernc. ....  1.125000
   Auto Start start iteration           ....     1
   Auto Start num. interpolation iter.  ....    10
   Max. Number of Micro iterations      ....    24
   Max. Number of Macro iterations      .... Maxiter - #DIIS iter
   Number of Davidson start vectors     ....     2
   Converg. threshold    (grad. norm)   ....   3.330e-04
   Grad. Scal. Fac. for Micro threshold ....   0.100
   Minimum threshold for Micro iter.    ....   1.000e-02
   NR start threshold (gradient norm)   ....   1.000e-04
   Initial trust radius                 ....   0.400
   Minimum AH scaling param. (alpha)    ....   1.000
   Maximum AH scaling param. (alpha)    .... 1000.000
   Quad. conv. algorithm                .... NR
   White noise on init. David. guess    .... on
   Maximum white noise                  ....   0.010
   Pseudo random numbers                .... off
   Inactive MOs                         .... canonical
   Orbital update algorithm             .... Taylor
   Preconditioner                       .... Diag
   Full preconditioner red. dimension   ....   250
   COSX micro iterations for RIJONX calc.... off
 SOSCF                  CNVSOSCF        .... on
   Start iteration      SOSCFMaxIt      ....   150
   Startup grad/error   SOSCFStart      ....  0.003300
   Hessian update       SOSCFHessUp     .... L-BFGS
 Level Shifting         CNVShift        .... on
   Level shift para.    LevelShift      ....    0.2500
   Turn off err/grad.   ShiftErr        ....    0.0010
 Zerner damping         CNVZerner       .... off
 Static damping         CNVDamp         .... on
   Fraction old density DampFac         ....    0.7000
   Max. Damping (<1)    DampMax         ....    0.9800
   Min. Damping (>=0)   DampMin         ....    0.0000
   Turn off err/grad.   DampErr         ....    0.1000

SCF Procedure:
 Maximum # iterations   MaxIter         ....   125
 SCF integral mode      SCFMode         .... Direct
   Integral package                     .... SHARK and LIBINT hybrid scheme
 Reset frequency        DirectResetFreq ....    20
 Integral Threshold     Thresh          ....  1.000e-10 Eh
 Primitive CutOff       TCut            ....  1.000e-11 Eh

Convergence Tolerance:
 Convergence Check Mode ConvCheckMode   .... Total+1el-Energy
 Convergence forced     ConvForced      .... 0
 Energy Change          TolE            ....  1.000e-06 Eh
 1-El. energy change                    ....  1.000e-03 Eh
 Orbital Gradient       TolG            ....  3.330e-04
 Orbital Rotation angle TolX            ....  3.330e-04
 DIIS Error             TolErr          ....  1.000e-06

---------------------
INITIAL GUESS: MOREAD
---------------------
Guess MOs are being read from file: sp_gas.ges
Input Geometry matches current geometry (good)
Atom 0: N(Shells)= 9 and 6 - projection required
Input basis set needs projection
NBasis(read)= 108
NBasis(calc)= 179
Basis set overlap was calculated
Using GuessMode=FMatrix for the initial guess
C*T matrix was formed
Effective Fockian was calculated
Effective Fockian was diagonalized
Initial density was built
                      ------------------
                      INITIAL GUESS DONE (   0.1 sec)
                      ------------------
             **** ENERGY FILE WAS UPDATED (sp_gas.en.tmp) ****
Finished Guess after   0.3 sec
Maximum memory used throughout the entire GUESS-calculation: 12.2 MB

-------------------------------------------------------------------------------------------
                                      ORCA LEAN-SCF
                              memory conserving SCF solver
-------------------------------------------------------------------------------------------

----------------------------------------D-I-I-S--------------------------------------------
Iteration    Energy (Eh)           Delta-E    RMSDP     MaxDP     DIISErr   Damp  Time(sec)
-------------------------------------------------------------------------------------------
               ***  Starting incremental Fock matrix formation  ***
    1    -272.7475698154185011     0.00e+00  3.55e-03  1.02e-01  6.27e-01  0.700   2.2
    2    -272.7938256901614977    -4.63e-02  2.94e-03  7.15e-02  4.41e-01  0.700   2.1
    3    -272.8266407817660593    -3.28e-02  2.17e-03  5.24e-02  3.09e-01  0.700   2.1
    4    -272.8496970500710859    -2.31e-02  1.56e-03  3.74e-02  2.16e-01  0.700   2.0
                               ***Turning on AO-DIIS***
    5    -272.8658791865029798    -1.62e-02  1.13e-03  2.68e-02  1.51e-01  0.700   2.0
    6    -272.8772296747474684    -1.14e-02  8.03e-04  1.89e-02  1.06e-01  0.700   2.0
    7    -272.8851895984153089    -7.96e-03  5.67e-04  1.33e-02  7.42e-02  0.700   2.2
    8    -272.8907691123215500    -5.58e-03  1.33e-03  3.12e-02  5.19e-02  0.000   1.9
                              *** Initializing SOSCF ***
---------------------------------------S-O-S-C-F--------------------------------------
Iteration    Energy (Eh)           Delta-E    RMSDP     MaxDP     MaxGrad    Time(sec)
--------------------------------------------------------------------------------------
    9    -272.9038124740044395    -1.30e-02  1.02e-05  2.92e-04  1.63e-04     2.2
               *** Restarting incremental Fock matrix formation ***
   10    -272.9038125728083060    -9.88e-08  9.77e-06  3.15e-04  3.11e-05     2.2
                  *** Gradient check signals convergence ***

               *****************************************************
               *                     SUCCESS                       *
               *           SCF CONVERGED AFTER  10 CYCLES          *
               *****************************************************

             **** ENERGY FILE WAS UPDATED (sp_gas.en.tmp) ****

----------------
TOTAL SCF ENERGY
----------------

Total Energy       :       -272.90381257280831 Eh           -7426.09028 eV

Components:
Nuclear Repulsion  :        259.12325695690936 Eh            7051.10229 eV
Electronic Energy  :       -532.02706952971766 Eh          -14477.19257 eV
One Electron Energy:       -882.15552810249790 Eh          -24004.67229 eV
Two Electron Energy:        350.12845857278023 Eh            9527.47973 eV

Virial components:
Potential Energy   :       -544.58760472645668 Eh          -14818.98211 eV
Kinetic Energy     :        271.68379215364837 Eh            7392.89183 eV
Virial Ratio       :          2.00449058962807

DFT components:
N(Alpha)           :       24.999988067182 electrons
N(Beta)            :       24.999988067182 electrons
N(Total)           :       49.999976134363 electrons
E(X)               :      -38.582467083983 Eh       
E(C)               :       -1.562052331747 Eh       
E(XC)              :      -40.144519415730 Eh       

---------------
SCF CONVERGENCE
---------------

  Last Energy change         ...    9.8804e-08  Tolerance :   1.0000e-06
  Last MAX-Density change    ...    3.1518e-04  Tolerance :   1.0000e-05
  Last RMS-Density change    ...    9.7682e-06  Tolerance :   1.0000e-06
  Last DIIS Error            ...    1.6255e-04  Tolerance :   1.0000e-06
  Last Orbital Gradient      ...    3.1105e-05  Tolerance :   3.3300e-04
  Last Orbital Rotation      ...    4.5109e-05  Tolerance :   3.3300e-04


----------------
ORBITAL ENERGIES
----------------

  NO   OCC          E(Eh)            E(eV) 
   0   2.0000     -18.946442      -515.5589 
   1   2.0000     -10.071389      -274.0564 
   2   2.0000     -10.029637      -272.9203 
   3   2.0000     -10.017332      -272.5855 
   4   2.0000     -10.015998      -272.5492 
   5   2.0000     -10.011271      -272.4205 
   6   2.0000      -0.982914       -26.7464 
   7   2.0000      -0.772727       -21.0270 
   8   2.0000      -0.695925       -18.9371 
   9   2.0000      -0.640962       -17.4415 
  10   2.0000      -0.586495       -15.9593 
  11   2.0000      -0.522474       -14.2172 
  12   2.0000      -0.480262       -13.0686 
  13   2.0000      -0.432265       -11.7625 
  14   2.0000      -0.415581       -11.3085 
  15   2.0000      -0.407433       -11.0868 
  16   2.0000      -0.374401       -10.1880 
  17   2.0000      -0.352091        -9.5809 
  18   2.0000      -0.345133        -9.3915 
  19   2.0000      -0.327298        -8.9062 
  20   2.0000      -0.323064        -8.7910 
  21   2.0000      -0.290009        -7.8916 
  22   2.0000      -0.287598        -7.8260 
  23   2.0000      -0.276758        -7.5310 
  24   2.0000      -0.233841        -6.3631 
  25   0.0000       0.060992         1.6597 
  26   0.0000       0.091065         2.4780 
  27   0.0000       0.116638         3.1739 
  28   0.0000       0.129281         3.5179 
  29   0.0000       0.130182         3.5424 
  30   0.0000       0.141293         3.8448 
  31   0.0000       0.145050         3.9470 
  32   0.0000       0.156559         4.2602 
  33   0.0000       0.163276         4.4430 
  34   0.0000       0.174924         4.7599 
  35   0.0000       0.178076         4.8457 
*Only the first 10 virtual orbitals were printed.

                    ********************************
                    * MULLIKEN POPULATION ANALYSIS *
                    ********************************

-----------------------
MULLIKEN ATOMIC CHARGES
-----------------------
   0 C :   -0.506082
   1 C :   -0.241852
   2 C :   -0.040056
   3 H :    0.154343
   4 C :   -0.521360
   5 C :   -0.134294
   6 O :   -0.434478
   7 H :    0.147046
   8 H :    0.142814
   9 H :    0.147817
  10 H :    0.172648
  11 H :    0.131498
  12 H :    0.153002
  13 H :    0.144721
  14 H :    0.150765
  15 H :    0.121489
  16 H :    0.121125
  17 H :    0.290854
Sum of atomic charges:   -0.0000000

--------------------------------
MULLIKEN REDUCED ORBITAL CHARGES
--------------------------------
  0 C s       :     3.349329  s :     3.349329
      pz      :     1.060555  p :     3.129510
      px      :     0.976390
      py      :     1.092565
      dz2     :     0.007634  d :     0.027243
      dxz     :     0.004287
      dyz     :     0.002787
      dx2y2   :     0.004043
      dxy     :     0.008492

  1 C s       :     3.179522  s :     3.179522
      pz      :     1.020041  p :     3.025580
      px      :     0.954008
      py      :     1.051531
      dz2     :     0.009989  d :     0.036751
      dxz     :     0.005906
      dyz     :     0.003919
      dx2y2   :     0.007060
      dxy     :     0.009877

  2 C s       :     3.098452  s :     3.098452
      pz      :     1.071535  p :     2.896415
      px      :     0.907301
      py      :     0.917580
      dz2     :     0.011137  d :     0.045189
      dxz     :     0.006149
      dyz     :     0.006581
      dx2y2   :     0.012124
      dxy     :     0.009197

  3 H s       :     0.828180  s :     0.828180
      pz      :     0.010752  p :     0.017477
      px      :     0.003152
      py      :     0.003573

  4 C s       :     3.346359  s :     3.346359
      pz      :     1.076613  p :     3.148080
      px      :     1.090086
      py      :     0.981381
      dz2     :     0.006574  d :     0.026921
      dxz     :     0.002978
      dyz     :     0.004858
      dx2y2   :     0.006496
      dxy     :     0.006014

  5 C s       :     3.286130  s :     3.286130
      pz      :     1.032885  p :     2.789231
      px      :     0.943044
      py      :     0.813302
      dz2     :     0.013360  d :     0.058933
      dxz     :     0.006494
      dyz     :     0.010440
      dx2y2   :     0.014333
      dxy     :     0.014306

  6 O s       :     3.768385  s :     3.768385
      pz      :     1.818389  p :     4.649773
      px      :     1.348838
      py      :     1.482545
      dz2     :     0.003634  d :     0.016320
      dxz     :     0.004226
      dyz     :     0.003126
      dx2y2   :     0.005091
      dxy     :     0.000244

  7 H s       :     0.834621  s :     0.834621
      pz      :     0.005068  p :     0.018333
      px      :     0.005320
      py      :     0.007944

  8 H s       :     0.838767  s :     0.838767
      pz      :     0.003776  p :     0.018418
      px      :     0.006135
      py      :     0.008508

  9 H s       :     0.833953  s :     0.833953
      pz      :     0.010587  p :     0.018231
      px      :     0.003620
      py      :     0.004024

 10 H s       :     0.809371  s :     0.809371
      pz      :     0.003422  p :     0.017981
      px      :     0.005793
      py      :     0.008766

 11 H s       :     0.850698  s :     0.850698
      pz      :     0.010432  p :     0.017804
      px      :     0.003516
      py      :     0.003856

 12 H s       :     0.828428  s :     0.828428
      pz      :     0.004719  p :     0.018570
      px      :     0.010095
      py      :     0.003756

 13 H s       :     0.836943  s :     0.836943
      pz      :     0.005136  p :     0.018337
      px      :     0.005966
      py      :     0.007235

 14 H s       :     0.830997  s :     0.830997
      pz      :     0.010562  p :     0.018238
      px      :     0.003735
      py      :     0.003941

 15 H s       :     0.861425  s :     0.861425
      pz      :     0.011232  p :     0.017087
      px      :     0.003240
      py      :     0.002614

 16 H s       :     0.861695  s :     0.861695
      pz      :     0.004457  p :     0.017181
      px      :     0.005152
      py      :     0.007572

 17 H s       :     0.665642  s :     0.665642
      pz      :     0.013478  p :     0.043504
      px      :     0.020905
      py      :     0.009121


------------------------
MULLIKEN OVERLAP CHARGES
------------------------
B(  0-C ,  1-C ) :   0.3708 B(  0-C ,  2-C ) :  -0.1362 B(  0-C ,  7-H ) :   0.8011 
B(  0-C ,  8-H ) :   0.8588 B(  0-C ,  9-H ) :   0.8789 B(  0-C , 10-H ) :  -0.0518 
B(  1-C ,  2-C ) :   0.2959 B(  1-C ,  3-H ) :  -0.1176 B(  1-C ,  4-C ) :  -0.2077 
B(  1-C ,  5-C ) :  -0.1552 B(  1-C ,  7-H ) :  -0.0727 B(  1-C ,  8-H ) :  -0.0924 
B(  1-C ,  9-H ) :  -0.1294 B(  1-C , 10-H ) :   0.8453 B(  1-C , 11-H ) :   0.7765 
B(  2-C ,  3-H ) :   0.8999 B(  2-C ,  4-C ) :   0.3714 B(  2-C ,  5-C ) :   0.4894 
B(  2-C ,  6-O ) :  -0.1709 B(  2-C , 10-H ) :  -0.1088 B(  2-C , 11-H ) :  -0.0629 
B(  2-C , 12-H ) :  -0.0756 B(  2-C , 13-H ) :  -0.0790 B(  2-C , 14-H ) :  -0.0909 
B(  2-C , 16-H ) :  -0.1315 B(  3-H ,  5-C ) :  -0.0865 B(  4-C ,  5-C ) :  -0.1429 
B(  4-C , 12-H ) :   0.8109 B(  4-C , 13-H ) :   0.7955 B(  4-C , 14-H ) :   0.8649 
B(  5-C ,  6-O ) :   0.4423 B(  5-C , 15-H ) :   0.8406 B(  5-C , 16-H ) :   0.8484 
B(  5-C , 17-H ) :  -0.0862 B(  6-O , 15-H ) :  -0.1147 B(  6-O , 16-H ) :  -0.1020 
B(  6-O , 17-H ) :   0.5860 B(  8-H ,  9-H ) :  -0.0541 B( 15-H , 16-H ) :  -0.0940 



                     *******************************
                     * LOEWDIN POPULATION ANALYSIS *
                     *******************************

----------------------
LOEWDIN ATOMIC CHARGES
----------------------
   0 C :   -0.422334
   1 C :   -0.305765
   2 C :   -0.218520
   3 H :    0.165683
   4 C :   -0.412953
   5 C :    0.011350
   6 O :   -0.636070
   7 H :    0.151016
   8 H :    0.146935
   9 H :    0.151210
  10 H :    0.170922
  11 H :    0.152815
  12 H :    0.155954
  13 H :    0.154078
  14 H :    0.154771
  15 H :    0.157853
  16 H :    0.156734
  17 H :    0.266319

-------------------------------
LOEWDIN REDUCED ORBITAL CHARGES
-------------------------------
  0 C s       :     2.971135  s :     2.971135
      pz      :     1.144857  p :     3.387329
      px      :     1.090840
      py      :     1.151633
      dz2     :     0.018553  d :     0.063870
      dxz     :     0.009468
      dyz     :     0.006781
      dx2y2   :     0.009291
      dxy     :     0.019777

  1 C s       :     2.934199  s :     2.934199
      pz      :     1.112625  p :     3.292140
      px      :     1.066271
      py      :     1.113244
      dz2     :     0.022154  d :     0.079425
      dxz     :     0.012371
      dyz     :     0.008582
      dx2y2   :     0.014757
      dxy     :     0.021562

  2 C s       :     2.909555  s :     2.909555
      pz      :     1.118137  p :     3.216570
      px      :     1.037925
      py      :     1.060509
      dz2     :     0.024496  d :     0.092394
      dxz     :     0.012009
      dyz     :     0.012844
      dx2y2   :     0.024377
      dxy     :     0.018668

  3 H s       :     0.791308  s :     0.791308
      pz      :     0.026553  p :     0.043010
      px      :     0.007601
      py      :     0.008856

  4 C s       :     2.965404  s :     2.965404
      pz      :     1.153415  p :     3.383922
      px      :     1.145832
      py      :     1.084675
      dz2     :     0.016481  d :     0.063626
      dxz     :     0.007416
      dyz     :     0.010628
      dx2y2   :     0.015193
      dxy     :     0.013908

  5 C s       :     2.872527  s :     2.872527
      pz      :     1.069094  p :     2.984009
      px      :     1.007949
      py      :     0.906966
      dz2     :     0.032047  d :     0.132113
      dxz     :     0.012433
      dyz     :     0.023330
      dx2y2   :     0.033246
      dxy     :     0.031058

  6 O s       :     3.519891  s :     3.519891
      pz      :     1.821735  p :     4.830093
      px      :     1.431021
      py      :     1.577337
      dz2     :     0.042225  d :     0.286086
      dxz     :     0.027585
      dyz     :     0.054844
      dx2y2   :     0.093016
      dxy     :     0.068416

  7 H s       :     0.805503  s :     0.805503
      pz      :     0.011887  p :     0.043481
      px      :     0.012367
      py      :     0.019227

  8 H s       :     0.809289  s :     0.809289
      pz      :     0.008360  p :     0.043776
      px      :     0.014469
      py      :     0.020947

  9 H s       :     0.805486  s :     0.805486
      pz      :     0.026267  p :     0.043304
      px      :     0.008102
      py      :     0.008935

 10 H s       :     0.784505  s :     0.784505
      pz      :     0.007918  p :     0.044573
      px      :     0.014181
      py      :     0.022474

 11 H s       :     0.803991  s :     0.803991
      pz      :     0.025667  p :     0.043195
      px      :     0.008336
      py      :     0.009192

 12 H s       :     0.799765  s :     0.799765
      pz      :     0.010872  p :     0.044281
      px      :     0.024919
      py      :     0.008490

 13 H s       :     0.802240  s :     0.802240
      pz      :     0.011988  p :     0.043683
      px      :     0.014385
      py      :     0.017310

 14 H s       :     0.801655  s :     0.801655
      pz      :     0.026434  p :     0.043573
      px      :     0.008286
      py      :     0.008854

 15 H s       :     0.801742  s :     0.801742
      pz      :     0.026612  p :     0.040405
      px      :     0.007772
      py      :     0.006020

 16 H s       :     0.802898  s :     0.802898
      pz      :     0.010667  p :     0.040368
      px      :     0.012586
      py      :     0.017115

 17 H s       :     0.610770  s :     0.610770
      pz      :     0.036355  p :     0.122911
      px      :     0.062501
      py      :     0.024055


---------------------------------
LOEWDIN BOND ORDERS (THRESH 0.050000)
---------------------------------
B(  0-C ,  1-C ) :   1.1406 B(  0-C ,  2-C ) :   0.0683 B(  0-C ,  7-H ) :   0.9291 
B(  0-C ,  8-H ) :   0.9279 B(  0-C ,  9-H ) :   0.9285 B(  1-C ,  2-C ) :   1.0684 
B(  1-C ,  4-C ) :   0.0635 B(  1-C ,  5-C ) :   0.0694 B(  1-C , 10-H ) :   0.8749 
B(  1-C , 11-H ) :   0.8897 B(  2-C ,  3-H ) :   0.8516 B(  2-C ,  4-C ) :   1.1034 
B(  2-C ,  5-C ) :   1.0028 B(  2-C ,  6-O ) :   0.1710 B(  4-C ,  5-C ) :   0.0818 
B(  4-C , 12-H ) :   0.9195 B(  4-C , 13-H ) :   0.9228 B(  4-C , 14-H ) :   0.9212 
B(  5-C ,  6-O ) :   1.4229 B(  5-C , 15-H ) :   0.8310 B(  5-C , 16-H ) :   0.8315 
B(  6-O , 15-H ) :   0.1032 B(  6-O , 16-H ) :   0.1052 B(  6-O , 17-H ) :   0.9747 


------------------------------------------
LOEWDIN REDUCED ORBITAL POPULATIONS PER MO
-------------------------------------------
THRESHOLD FOR PRINTING IS 0.1%%
                      0         1         2         3         4         5   
                 -18.94644 -10.07139 -10.02964 -10.01733 -10.01600 -10.01127
                   2.00000   2.00000   2.00000   2.00000   2.00000   2.00000
                  --------  --------  --------  --------  --------  --------
 0 C  s               0.0       0.0       0.0       0.0       0.0      99.7
 1 C  s               0.0       0.0       0.0       0.0      99.7       0.0
 2 C  s               0.0       0.0      99.6       0.0       0.0       0.0
 4 C  s               0.0       0.0       0.0      99.7       0.0       0.0
 5 C  s               0.0      99.4       0.0       0.0       0.0       0.0
 6 O  s              99.9       0.0       0.0       0.0       0.0       0.0
 6 O  dxy             0.0       0.1       0.0       0.0       0.0       0.0

                      6         7         8         9        10        11   
                  -0.98291  -0.77273  -0.69592  -0.64096  -0.58650  -0.52247
                   2.00000   2.00000   2.00000   2.00000   2.00000   2.00000
                  --------  --------  --------  --------  --------  --------
 0 C  s               0.0       6.3      24.8       0.5      14.8       1.0
 0 C  pz              0.0       0.2       0.2       0.0       0.8       2.8
 0 C  px              0.0       1.7       0.6       0.1       5.2       1.4
 0 C  py              0.0       0.2       0.0       0.1       0.1       0.0
 1 C  s               0.1      16.3      12.0       0.4       9.3       5.7
 1 C  pz              0.0       0.9       0.1       0.0       0.5       8.4
 1 C  px              0.3       0.1       5.3       1.3       6.2       0.1
 1 C  py              0.0       1.5       1.5       0.1       0.4       1.5
 1 C  dxz             0.0       0.0       0.1       0.0       0.1       0.0
 2 C  s               0.8      24.8       3.0       0.4       2.7      10.3
 2 C  pz              0.1       0.7       0.0       0.2       0.1      10.9
 2 C  px              1.3       0.4       2.4       7.5       2.9       0.1
 2 C  py              0.2       0.0       5.7       6.1       4.3       0.1
 2 C  dx2y2           0.0       0.0       0.0       0.2       0.0       0.0
 3 H  s               0.0       3.1       0.5       0.1       0.7      10.0
 3 H  pz              0.0       0.3       0.0       0.0       0.1       0.6
 4 C  s               0.1      11.5       8.4      22.8       1.3       2.1
 4 C  pz              0.0       0.0       0.0       0.0       0.0       2.5
 4 C  px              0.1       0.4       0.5       0.8       0.0       0.6
 4 C  py              0.1       2.7       0.1       0.8       1.2       4.5
 5 C  s               9.5       5.1       4.1      13.4       6.7       1.8
 5 C  pz              0.5       0.1       0.0       0.1       0.1       5.7
 5 C  px              1.7       5.0       0.6       0.3       1.6       2.9
 5 C  py              6.4       0.5       1.0       0.2       1.8       0.3
 5 C  dz2             0.1       0.0       0.0       0.0       0.0       0.0
 5 C  dyz             0.1       0.0       0.0       0.0       0.0       0.0
 5 C  dx2y2           0.2       0.1       0.0       0.0       0.0       0.1
 5 C  dxy             0.4       0.0       0.0       0.0       0.0       0.0
 6 O  s              60.6       1.5       0.6       2.3       0.7       0.4
 6 O  pz              0.7       0.0       0.0       0.1       0.1       1.1
 6 O  px              0.3       1.1       0.7       5.8       0.9       0.0
 6 O  py              1.7       0.6       0.8       4.7       3.2       1.1
 6 O  dz2             0.1       0.1       0.0       0.2       0.0       0.0
 6 O  dxz             0.0       0.0       0.0       0.1       0.0       0.2
 6 O  dyz             0.1       0.0       0.0       0.2       0.1       0.3
 6 O  dx2y2           0.0       0.0       0.2       0.5       0.9       0.3
 6 O  dxy             0.1       0.3       0.2       0.5       0.0       0.1
 7 H  s               0.0       0.8       4.7       0.1       5.4       0.2
 7 H  pz              0.0       0.0       0.1       0.0       0.1       0.0
 7 H  py              0.0       0.0       0.2       0.0       0.2       0.0
 8 H  s               0.0       0.8       4.3       0.2       5.4       0.7
 8 H  px              0.0       0.0       0.1       0.0       0.1       0.0
 8 H  py              0.0       0.0       0.2       0.0       0.3       0.0
 9 H  s               0.0       0.8       4.4       0.1       4.9       1.5
 9 H  pz              0.0       0.1       0.4       0.0       0.3       0.1
10 H  s               0.0       2.0       2.1       0.3       3.1       2.9
10 H  py              0.0       0.1       0.1       0.0       0.2       0.1
11 H  s               0.0       2.1       2.0       0.1       3.0       5.9
11 H  pz              0.0       0.2       0.2       0.0       0.2       0.3
12 H  s               0.0       1.5       1.3       6.5       0.4       0.9
12 H  px              0.0       0.1       0.1       0.5       0.0       0.0
13 H  s               0.0       1.5       1.8       5.5       0.8       1.1
13 H  px              0.0       0.0       0.0       0.2       0.0       0.0
13 H  py              0.0       0.1       0.1       0.2       0.0       0.0
14 H  s               0.0       1.5       1.5       5.5       0.5       3.0
14 H  pz              0.0       0.1       0.1       0.4       0.0       0.2
15 H  s               0.7       0.7       0.8       3.5       2.3       3.7
15 H  pz              0.1       0.1       0.1       0.3       0.2       0.2
16 H  s               0.7       0.7       1.0       3.1       3.6       1.0
16 H  py              0.0       0.0       0.0       0.1       0.1       0.0
17 H  s              10.7       0.7       0.4       2.7       0.6       0.0
17 H  pz              0.2       0.0       0.0       0.1       0.0       0.0
17 H  px              2.1       0.1       0.1       0.3       0.1       0.0

                     12        13        14        15        16        17   
                  -0.48026  -0.43227  -0.41558  -0.40743  -0.37440  -0.35209
                   2.00000   2.00000   2.00000   2.00000   2.00000   2.00000
                  --------  --------  --------  --------  --------  --------
 0 C  s               0.0       0.2       0.3       0.0       0.0       0.0
 0 C  pz              0.0       0.4       0.0      13.3       9.9       3.4
 0 C  px              0.0       4.5       2.2       3.5       2.9       0.1
 0 C  py              0.1       3.7      11.0       2.4       0.2      28.2
 0 C  dyz             0.0       0.0       0.0       0.0       0.0       0.1
 0 C  dxy             0.0       0.0       0.0       0.0       0.0       0.3
 1 C  s               0.0       1.4       0.3       0.0       0.1       0.3
 1 C  pz              0.1       0.1       1.0      13.4       3.9       0.0
 1 C  px              0.1       0.3       2.5       4.2       0.2       0.1
 1 C  py              1.1      12.2       5.4       4.1       0.4       0.8
 2 C  s               1.0       0.5       0.1       0.1       0.1       0.6
 2 C  pz              0.7      10.2       2.4       0.5       3.6       0.1
 2 C  px              0.1       1.1      10.5       0.7       0.0       1.5
 2 C  py              1.6       0.1       0.4       3.5       0.7       1.4
 2 C  dxy             0.1       0.0       0.0       0.0       0.1       0.2
 3 H  s               0.0       1.8       0.5       0.3       1.5       0.2
 4 C  s               1.0       0.1       0.0       0.1       0.0       0.2
 4 C  pz              0.1       5.6       2.3       0.6      26.6       3.2
 4 C  px              1.9       1.5      11.8       1.4       0.0       6.5
 4 C  py              2.8       3.9       2.0       1.9       0.0      11.4
 4 C  dz2             0.0       0.0       0.0       0.0       0.2       0.0
 4 C  dyz             0.0       0.0       0.0       0.0       0.0       0.1
 4 C  dxy             0.0       0.0       0.0       0.0       0.0       0.2
 5 C  s               0.8       0.1       0.2       0.1       0.0       0.0
 5 C  pz              4.3      10.7       0.0      12.5       7.3       0.0
 5 C  px              0.4       4.3      14.3       0.0       0.4       0.9
 5 C  py             16.1       5.8       0.2       0.7       2.1       0.2
 5 C  dyz             0.2       0.0       0.0       0.0       0.0       0.0
 5 C  dx2y2           0.3       0.0       0.1       0.0       0.0       0.0
 6 O  s               1.1       0.2       1.0       0.5       0.1       0.3
 6 O  pz              1.5       2.3       0.3       6.5       6.4       0.3
 6 O  px             37.3       2.3       0.4       0.2       0.3       0.2
 6 O  py              5.2       0.8      10.1       0.2       0.4       3.0
 6 O  dz2             0.0       0.3       0.0       0.1       0.2       0.0
 6 O  dxz             0.1       0.2       0.0       0.0       0.0       0.0
 6 O  dyz             0.1       0.3       0.0       0.4       0.2       0.0
 6 O  dx2y2           0.1       0.2       0.6       0.2       0.1       0.0
 6 O  dxy             0.0       0.1       0.2       0.0       0.0       0.0
 7 H  s               0.0       0.0       4.8       0.6       2.9      12.7
 7 H  px              0.0       0.0       0.0       0.0       0.0       0.1
 8 H  s               0.0       3.2       0.7       2.5       0.4       8.1
 8 H  px              0.0       0.0       0.1       0.0       0.0       0.2
 9 H  s               0.0       0.1       0.3       5.7       4.3       0.3
 9 H  pz              0.0       0.0       0.0       0.2       0.1       0.0
 9 H  py              0.0       0.0       0.0       0.0       0.0       0.2
10 H  s               0.5       4.4       1.8       2.8       0.0       0.0
10 H  px              0.0       0.2       0.0       0.0       0.0       0.0
11 H  s               0.1       0.0       0.0       6.6       0.9       0.2
11 H  pz              0.0       0.0       0.0       0.2       0.0       0.0
12 H  s               1.6       0.0       4.7       1.2       1.9       1.0
12 H  px              0.1       0.0       0.1       0.0       0.1       0.0
13 H  s               0.7       4.1       2.0       0.3       2.4      10.8
14 H  s               0.4       0.9       1.3       0.0      11.2       1.0
14 H  pz              0.0       0.0       0.0       0.0       0.2       0.0
14 H  py              0.0       0.1       0.0       0.0       0.0       0.1
15 H  s               3.3       2.6       0.0       5.6       3.2       0.0
15 H  pz              0.1       0.1       0.0       0.1       0.1       0.0
15 H  px              0.0       0.0       0.1       0.0       0.0       0.0
16 H  s               2.8       7.6       2.4       1.0       2.8       0.0
16 H  pz              0.1       0.0       0.0       0.0       0.0       0.0
16 H  py              0.0       0.1       0.1       0.0       0.1       0.0
17 H  s              11.0       0.2       0.0       0.3       0.0       0.0
17 H  px              0.3       0.0       0.0       0.0       0.0       0.0
17 H  py              0.0       0.0       0.1       0.0       0.0       0.1

                     18        19        20        21        22        23   
                  -0.34513  -0.32730  -0.32306  -0.29001  -0.28760  -0.27676
                   2.00000   2.00000   2.00000   2.00000   2.00000   2.00000
                  --------  --------  --------  --------  --------  --------
 0 C  s               0.2       0.0       0.3       0.0       0.2       0.2
 0 C  pz              0.0       8.5      12.4       4.1       1.2       0.0
 0 C  px              9.1       2.6       9.5       1.4       2.6       7.0
 0 C  py              0.6       1.2       1.3       1.3       5.3       1.8
 0 C  dz2             0.0       0.2       0.2       0.4       0.0       0.0
 0 C  dxy             0.1       0.0       0.0       0.0       0.4       0.1
 1 C  s               0.1       0.0       0.1       0.3       0.5       0.1
 1 C  pz              0.6       1.6       8.2      13.3       3.0       0.2
 1 C  px              8.1       0.3      12.3       4.5       1.4       5.9
 1 C  py              0.9       0.0       1.3       2.3      15.4       5.0
 1 C  dz2             0.0       0.0       0.1       0.8       0.0       0.0
 1 C  dxz             0.1       0.1       0.1       0.0       0.0       0.1
 1 C  dx2y2           0.0       0.0       0.2       0.0       0.1       0.1
 1 C  dxy             0.0       0.0       0.0       0.0       0.7       0.0
 2 C  s               0.1       0.3       0.2       0.4       0.3       0.1
 2 C  pz              0.0       4.3       1.3      12.4       7.6       0.4
 2 C  px              3.6       0.4       0.2       1.8       0.3      17.0
 2 C  py              5.6       9.3       0.0       0.8       9.6       3.2
 2 C  dz2             0.0       0.2       0.0       0.7       0.1       0.1
 2 C  dxz             0.0       0.0       0.0       0.0       0.0       0.1
 2 C  dyz             0.0       0.0       0.1       0.1       0.1       0.0
 2 C  dx2y2           0.1       0.0       0.1       0.1       0.2       0.3
 2 C  dxy             0.0       0.1       0.0       0.0       0.2       0.1
 3 H  s               0.0       5.5       0.3      11.1       2.6       0.9
 3 H  pz              0.0       0.1       0.0       0.0       0.0       0.0
 3 H  px              0.0       0.0       0.0       0.0       0.0       0.2
 3 H  py              0.0       0.0       0.0       0.0       0.1       0.0
 4 C  s               0.2       0.1       0.0       0.4       0.1       0.0
 4 C  pz              0.0       9.9       2.0       2.0       2.9       0.0
 4 C  px             25.5       0.5       0.8       1.4       1.0       2.6
 4 C  py              1.2       8.9       0.0       3.3       8.7       0.4
 4 C  dz2             0.0       0.3       0.0       0.1       0.1       0.0
 4 C  dxz             0.2       0.0       0.0       0.0       0.0       0.0
 4 C  dyz             0.0       0.0       0.0       0.1       0.2       0.0
 4 C  dx2y2           0.3       0.0       0.0       0.0       0.0       0.2
 4 C  dxy             0.0       0.1       0.0       0.0       0.1       0.2
 5 C  s               0.5       0.0       0.3       0.1       0.3       1.0
 5 C  pz              1.2       0.0       1.9       0.8       0.5       3.0
 5 C  px              1.7       0.3       1.0       0.1       2.7      11.5
 5 C  py              3.2       1.7       1.7       0.0       0.0       2.0
 5 C  dz2             0.0       0.0       0.1       0.2       0.0       0.1
 5 C  dxz             0.0       0.0       0.0       0.1       0.0       0.1
 5 C  dx2y2           0.1       0.1       0.1       0.0       0.2       0.3
 5 C  dxy             0.3       0.0       0.1       0.0       0.0       0.3
 6 O  s               0.2       2.7       2.3       0.1       0.1       1.7
 6 O  pz              3.9       6.0       2.1       0.0       2.0       8.3
 6 O  px              0.9       4.1       4.3       0.1       1.8       3.4
 6 O  py              5.2       6.4      16.3       1.7       0.6       3.9
 6 O  dz2             0.3       0.0       0.1       0.2       0.1       0.2
 6 O  dxz             0.0       0.2       0.0       0.1       0.0       0.1
 6 O  dyz             0.1       0.0       0.1       0.0       0.0       0.2
 6 O  dx2y2           0.1       0.4       0.2       0.0       0.1       0.5
 6 O  dxy             0.1       0.0       0.0       0.2       0.4       0.8
 7 H  s               0.3       0.9       0.1       0.3       2.4       3.7
 7 H  pz              0.0       0.0       0.1       0.0       0.0       0.0
 8 H  s               3.4       2.4       0.0       3.0       5.0       0.0
 8 H  pz              0.0       0.1       0.1       0.0       0.0       0.0
 9 H  s               0.2       5.8       6.3       5.2       0.1       0.2
 9 H  px              0.1       0.0       0.1       0.0       0.0       0.1
10 H  s               2.2       0.0       0.1       5.6      10.8       0.1
10 H  px              0.0       0.0       0.0       0.0       0.0       0.1
11 H  s               0.0       0.9       4.6      13.6       0.2       0.0
11 H  px              0.1       0.0       0.2       0.0       0.0       0.1
11 H  py              0.0       0.0       0.0       0.0       0.2       0.1
12 H  s              13.4       2.0       0.1       0.0       1.2       2.1
12 H  py              0.0       0.1       0.0       0.0       0.1       0.0
13 H  s               2.5       0.4       1.1       0.2       3.1       1.7
13 H  pz              0.0       0.1       0.0       0.0       0.0       0.0
13 H  px              0.0       0.0       0.0       0.0       0.1       0.0
13 H  py              0.1       0.0       0.0       0.0       0.0       0.0
14 H  s               0.0       7.9       1.0       2.6       1.7       0.1
14 H  pz              0.0       0.1       0.0       0.0       0.0       0.0
14 H  px              0.2       0.0       0.0       0.0       0.0       0.0
15 H  s               0.0       0.0       2.6       1.6       0.2       2.2
15 H  px              0.0       0.0       0.0       0.0       0.0       0.1
16 H  s               1.7       0.5       0.0       0.2       0.1       3.1
16 H  pz              0.0       0.0       0.0       0.0       0.0       0.1
17 H  s               0.3       1.1       0.6       0.0       0.2       1.7
17 H  py              0.1       0.1       0.3       0.0       0.0       0.1

                     24        25        26        27        28        29   
                  -0.23384   0.06099   0.09107   0.11664   0.12928   0.13018
                   2.00000   0.00000   0.00000   0.00000   0.00000   0.00000
                  --------  --------  --------  --------  --------  --------
 0 C  s               0.0       0.7       9.8      22.5       0.4       0.1
 0 C  pz              0.0       0.2       0.2       0.2       2.6       3.9
 0 C  px              0.0       0.2       2.4       2.8       4.5       1.0
 0 C  py              0.2       0.1       0.2       0.8       1.2       2.4
 0 C  dz2             0.0       0.0       0.0       0.1       0.2       0.1
 0 C  dxz             0.0       0.0       0.2       0.0       0.0       0.3
 0 C  dx2y2           0.0       0.0       0.3       0.0       0.2       0.1
 1 C  s               0.0       0.6       5.7       1.1       0.7       7.2
 1 C  pz              0.0       0.2       1.8       1.3       5.2       6.6
 1 C  px              0.0       1.1       0.1       7.8       0.7       0.6
 1 C  py              1.9       0.2       0.2       4.4       0.7       1.5
 1 C  dz2             0.0       0.0       0.0       0.0       0.8       0.0
 1 C  dxz             0.0       0.0       0.0       0.8       0.2       0.1
 1 C  dyz             0.0       0.0       0.1       0.0       0.1       0.0
 1 C  dx2y2           0.0       0.1       0.0       0.4       0.0       0.0
 1 C  dxy             0.0       0.0       0.0       0.0       0.0       0.5
 2 C  s               0.0       0.1       4.3       1.1       3.3       2.0
 2 C  pz              0.2       0.0       2.3       0.6       9.5       1.6
 2 C  px              0.1       1.4       0.1       1.2       1.2       0.3
 2 C  py              0.4       0.4       0.2       3.1       0.0       0.3
 2 C  dz2             0.0       0.1       0.0       0.0       1.3       0.3
 2 C  dxz             0.0       0.1       0.0       0.1       0.1       0.0
 2 C  dyz             0.0       0.0       0.0       0.4       0.1       0.1
 2 C  dx2y2           0.0       0.0       0.0       0.0       0.1       0.3
 2 C  dxy             0.0       0.6       0.0       0.0       0.2       0.0
 3 H  s               0.3       0.3       1.2       0.0       6.1       1.4
 3 H  pz              0.0       0.0       0.6       0.0       2.7       0.0
 3 H  px              0.0       0.2       0.0       0.1       0.1       0.0
 3 H  py              0.0       0.0       0.1       0.4       0.1       0.1
 4 C  s               0.0       2.1      16.6       1.2       0.0       0.5
 4 C  pz              0.0       0.0       0.2       1.1      14.0       2.7
 4 C  px              0.1       0.1       0.5       4.7       1.0       1.7
 4 C  py              0.1       1.1       2.3       0.6       0.1       4.6
 4 C  dz2             0.0       0.0       0.0       0.3       0.0       0.2
 4 C  dxz             0.0       0.1       0.0       0.0       0.0       0.7
 4 C  dyz             0.0       0.0       0.1       0.1       0.2       0.0
 4 C  dx2y2           0.0       0.0       0.3       0.1       0.1       0.1
 4 C  dxy             0.0       0.0       0.3       0.0       0.1       0.4
 5 C  s               0.0       3.8       4.4       6.5       0.6       1.9
 5 C  pz              4.6       0.9       0.7       1.5      16.3       3.4
 5 C  px              0.6      16.7       2.0       0.8       0.7       7.3
 5 C  py              1.2      11.4       5.0       2.0       2.5      11.4
 5 C  dz2             0.7       0.3       0.0       0.1       0.1       0.9
 5 C  dxz             0.0       0.1       0.2       0.1       0.6       0.1
 5 C  dyz             0.7       0.1       0.0       0.0       0.4       0.4
 5 C  dx2y2           0.3       0.2       0.2       0.1       0.0       0.0
 5 C  dxy             0.2       1.3       0.0       0.0       0.2       0.1
 6 O  s               0.0       9.5       0.0       0.5       0.3       0.5
 6 O  pz             49.3       1.7       0.2       0.1       0.2       0.1
 6 O  px              7.3       4.4       0.3       0.1       0.7       3.8
 6 O  py             12.9       1.9       1.7       0.4       0.1       0.7
 6 O  dz2             0.2       0.1       0.2       0.8       0.1       0.2
 6 O  dxz             0.2       1.0       0.1       0.8       2.6       1.6
 6 O  dyz             0.4       0.0       0.7       1.3       0.0       0.4
 6 O  dx2y2           0.3       1.9       1.3       0.0       0.2       2.3
 6 O  dxy             0.0       0.2       0.4       0.0       0.0       0.4
 7 H  s               0.2       0.1       1.6       1.1       0.4       0.4
 7 H  pz              0.0       0.0       0.2       0.5       0.1       0.0
 7 H  px              0.0       0.0       0.0       0.1       0.1       0.0
 7 H  py              0.0       0.0       0.6       0.6       0.0       0.2
 8 H  s               0.2       0.1       2.9       2.1       0.9       0.0
 8 H  px              0.0       0.0       0.0       0.6       0.4       0.1
 8 H  py              0.0       0.0       1.3       0.9       0.1       0.0
 9 H  s               0.0       0.1       0.8       4.0       0.5       0.0
 9 H  pz              0.0       0.0       0.3       1.9       0.2       0.1
 9 H  px              0.0       0.0       0.3       0.0       0.0       0.1
 9 H  py              0.0       0.0       0.0       0.1       0.1       0.0
10 H  s               0.4       0.2       0.8       0.5       0.1       1.9
10 H  pz              0.0       0.0       0.1       0.1       0.4       0.1
10 H  px              0.0       0.1       0.1       0.0       0.1       0.4
10 H  py              0.0       0.0       0.3       0.6       0.1       0.6
11 H  s               0.0       0.0       1.6       0.2       3.4       2.5
11 H  pz              0.0       0.0       0.7       0.0       0.6       1.2
11 H  px              0.0       0.0       0.0       0.7       0.1       0.0
11 H  py              0.0       0.0       0.2       0.0       0.1       0.4
12 H  s               0.0       0.8       3.9       0.2       0.3       4.5
12 H  pz              0.0       0.0       0.2       0.1       0.0       0.3
12 H  px              0.0       0.2       1.4       0.0       0.0       0.7
12 H  py              0.0       0.0       0.3       0.0       0.0       0.2
13 H  s               0.0       0.1       3.2       0.6       0.4       1.6
13 H  pz              0.0       0.0       0.3       0.2       0.1       0.2
13 H  px              0.0       0.0       1.2       0.1       0.0       0.0
13 H  py              0.0       0.0       0.2       0.0       0.2       0.0
14 H  s               0.0       0.1       1.9       2.0       0.6       0.5
14 H  pz              0.0       0.1       1.1       0.7       0.4       0.1
14 H  px              0.0       0.0       0.0       0.0       0.0       0.4
15 H  s               7.0       0.9       1.4       3.3       2.1       1.3
15 H  pz              0.0       0.4       0.5       1.5       1.1       0.1
15 H  px              0.0       0.3       0.2       0.1       0.3       0.1
15 H  py              0.0       0.4       0.0       0.0       0.4       0.5
16 H  s               7.8       0.8       2.2       1.9       2.1       0.3
16 H  pz              0.0       0.2       0.2       0.5       0.3       0.4
16 H  px              0.0       0.8       0.0       0.0       0.2       0.3
16 H  py              0.0       0.0       0.8       0.6       0.1       0.5
17 H  s               0.0      22.3       1.0       1.0       0.1       1.9
17 H  pz              0.9       0.5       0.0       0.0       0.1       0.1
17 H  px              0.1       5.2       0.1       0.2       0.0       0.3
17 H  py              0.2       0.1       0.0       0.0       0.0       0.1

                     30        31        32        33        34        35   
                   0.14129   0.14505   0.15656   0.16328   0.17492   0.17808
                   0.00000   0.00000   0.00000   0.00000   0.00000   0.00000
                  --------  --------  --------  --------  --------  --------
 0 C  s               0.1       0.1       2.2       2.1       0.9       1.3
 0 C  pz              2.1       0.5      11.3       0.1       1.2       1.6
 0 C  px              1.0       3.1      10.3      14.4       8.0       2.1
 0 C  py              0.6       5.8       1.3       3.4       9.1       3.5
 0 C  dz2             0.1       0.2       0.2       0.0       0.2       0.1
 0 C  dxz             0.1       0.3       0.2       0.5       0.0       0.1
 0 C  dyz             0.2       0.7       0.2       0.2       0.3       0.0
 0 C  dx2y2           0.0       0.1       0.2       0.7       0.0       0.0
 0 C  dxy             0.3       0.2       1.1       0.1       0.3       0.0
 1 C  s               0.5       5.3       6.3       1.8       0.3       0.8
 1 C  pz              2.3       7.3       0.7       0.2       5.2       1.1
 1 C  px              0.8       0.0       0.4       4.5       0.7       2.3
 1 C  py              1.8      10.6       0.6       0.9       5.5       7.3
 1 C  dz2             0.2       0.3       0.0       0.0       0.5       0.2
 1 C  dxz             0.1       0.0       0.1       0.3       0.0       0.2
 1 C  dyz             0.5       0.9       0.0       0.2       0.1       0.1
 1 C  dx2y2           0.3       0.1       0.0       0.2       0.2       0.0
 1 C  dxy             0.0       0.1       0.3       0.2       1.3       0.0
 2 C  s               4.1       1.2       7.7       0.5       0.9       2.0
 2 C  pz              0.4       0.7       1.9       1.4       1.0       0.4
 2 C  px              5.0      10.7       0.4       1.2       0.1       1.8
 2 C  py              6.7       3.0       0.4       0.9       2.4       1.0
 2 C  dz2             0.0       0.2       0.2       0.3       0.1       0.2
 2 C  dxz             0.1       1.1       0.0       0.0       0.1       0.6
 2 C  dyz             0.3       0.1       0.1       0.0       0.1       0.0
 2 C  dx2y2           1.3       0.1       0.0       0.4       0.3       0.0
 2 C  dxy             0.2       0.1       0.3       0.3       0.2       0.2
 3 H  s               0.5       0.4       0.4       1.4       1.5       0.3
 3 H  pz              0.3       0.5       0.5       0.5       0.6       0.0
 3 H  px              0.3       1.1       0.0       0.0       0.0       0.3
 3 H  py              1.2       0.2       0.0       0.0       0.1       0.0
 4 C  s              11.4       3.3       0.7       0.2       0.1       2.8
 4 C  pz              0.3       0.3       3.8       0.3       3.9       3.3
 4 C  px              4.1       8.0       3.1      17.4       4.4       0.5
 4 C  py             23.4       0.5       9.5       1.8       1.3       2.7
 4 C  dz2             0.0       0.0       0.8       0.0       0.2       1.3
 4 C  dxz             0.1       0.6       0.2       0.2       0.0       0.0
 4 C  dyz             0.4       0.2       0.1       0.0       0.0       0.0
 4 C  dx2y2           1.2       0.0       0.5       0.2       0.1       0.0
 4 C  dxy             0.3       0.0       0.0       0.5       0.0       0.4
 5 C  s               1.7       0.5       0.5       0.3       0.0       9.2
 5 C  pz              0.6       6.5       2.5       4.2       2.7       2.5
 5 C  px              0.3       1.6       2.5       5.6       0.6       1.3
 5 C  py              2.6       1.1       1.5       7.4       6.1       0.3
 5 C  dz2             0.1       0.3       0.3       0.0       0.0       0.2
 5 C  dyz             0.0       0.1       0.0       0.0       0.5       0.0
 5 C  dx2y2           0.0       0.1       0.2       0.2       0.2       0.2
 5 C  dxy             0.0       0.0       0.1       0.1       0.8       0.0
 6 O  s               0.3       0.2       0.2       0.1       0.1       0.5
 6 O  pz              1.0       0.1       0.0       0.1       0.1       0.3
 6 O  px              0.7       0.1       0.4       0.2       1.1       1.0
 6 O  py              0.1       0.3       0.1       0.0       3.3       0.1
 6 O  dz2             0.0       0.5       0.1       0.0       0.0       3.6
 6 O  dxz             0.7       0.1       0.1       0.7       2.9       0.2
 6 O  dyz             0.1       0.1       0.4       0.1       0.2       1.3
 6 O  dx2y2           0.6       0.4       0.0       0.6       0.7       1.7
 6 O  dxy             0.3       0.0       0.7       0.3       0.7       1.1
 7 H  s               1.5       3.7       4.3       1.0       0.3       1.0
 7 H  pz              0.0       0.9       0.0       0.0       0.0       0.0
 7 H  px              0.1       0.0       1.0       0.6       0.1       0.0
 7 H  py              0.2       0.1       0.4       0.0       0.1       0.5
 8 H  s               0.6       3.1       1.6       1.1       3.1       0.9
 8 H  pz              0.3       0.1       0.4       0.0       0.2       0.0
[...]
 2 C  py              0.2       0.6       0.6       0.0       0.0       0.0
 2 C  dz2             0.0       0.7      17.0       0.0       0.0       0.0
 2 C  dxz             0.0       0.3       0.1       0.0       0.0       0.0
 2 C  dyz             0.0       0.4       2.1       0.1       0.0       0.0
 2 C  dx2y2           0.0       1.4       0.2       0.1       0.1       0.0
 2 C  dxy             0.0       0.9       0.0       0.3       0.0       0.0
 3 H  s               0.0       0.8       7.4       0.0       0.0       0.0
 3 H  pz              0.0       1.8      19.2       0.0       0.0       0.0
 3 H  py              0.1       0.2       0.5       0.0       0.0       0.0
 4 C  s               0.0       0.2       0.3       0.1       0.0      11.9
 4 C  pz              0.0       0.4       0.6       0.0       0.0       0.0
 4 C  px              0.0       0.0       0.1       0.3       0.0       0.0
 4 C  py              0.0       0.8       1.0       0.0       0.0       0.0
 4 C  dz2             0.0       0.2       2.8       0.0       0.0       0.0
 4 C  dxz             0.0       0.1       0.1       0.0       0.0       0.0
 4 C  dyz             0.1       0.6       0.0       0.0       0.0       0.0
 4 C  dx2y2           0.1       0.6       0.0       0.0       0.0       0.0
 4 C  dxy             0.2       0.4       0.5       0.0       0.0       0.0
 5 C  s               0.1       0.2       0.4       1.8       0.2       0.4
 5 C  pz              5.7       0.9       2.1       0.9       0.1       0.0
 5 C  px              0.6       2.6       0.9       0.8       0.3       0.0
 5 C  py              1.6       0.4       0.1       7.8       0.8       0.0
 5 C  dz2             8.5       0.4       5.3       2.8       0.1       0.0
 5 C  dxz             0.6       0.8       0.2       0.1       0.1       0.0
 5 C  dyz             2.4       0.4       0.5       2.2       0.2       0.0
 5 C  dx2y2           0.3       1.3       0.4       1.8       0.7       0.0
 5 C  dxy             1.8       0.9       0.1       6.3       0.5       0.0
 6 O  s               0.2       0.0       0.0      24.6       6.2       0.0
 6 O  pz              0.0       0.0       0.0       2.3       1.0       0.0
 6 O  px              0.0       0.0       0.0       1.4      17.9       0.0
 6 O  py              0.0       0.0       0.0      15.5       1.5       0.0
 6 O  dz2             0.2       0.3       0.0       7.8       1.8       0.0
 6 O  dxz             0.6       0.0       0.2       0.2      12.1       0.0
 6 O  dyz             0.0       0.0       0.0       5.1       0.4       0.0
 6 O  dx2y2           0.0       0.0       0.0       0.9      25.4       0.0
 6 O  dxy             0.2       0.0       0.0      10.0       0.3       0.0
 7 H  pz              0.0       0.4       0.0       0.0       0.0       0.0
 7 H  px              0.1       0.0       0.0       0.0       0.0       0.0
 8 H  s               0.4       0.7       0.2       0.0       0.0       0.0
 8 H  px              0.6       0.4       0.5       0.0       0.0       0.0
 8 H  py              0.5       1.6       0.1       0.0       0.0       0.0
 9 H  s               1.7       0.0       0.1       0.0       0.0       0.0
 9 H  pz              3.9       0.0       0.2       0.0       0.0       0.0
 9 H  px              0.0       0.2       0.0       0.0       0.0       0.0
 9 H  py              0.3       0.1       0.0       0.0       0.0       0.0
10 H  s               1.1       7.4       0.3       0.0       0.0       0.0
10 H  pz              0.2       0.1       0.0       0.0       0.0       0.0
10 H  px              1.4       4.4       0.0       0.0       0.0       0.0
10 H  py              1.2      15.4       0.5       0.0       0.0       0.0
11 H  s               3.9       0.6       1.5       0.0       0.0       0.0
11 H  pz              9.2       1.1       3.9       0.0       0.0       0.0
11 H  px              0.3       0.4       0.0       0.0       0.0       0.0
11 H  py              0.6       0.0       0.1       0.0       0.0       0.0
12 H  s               0.0       0.1       0.3       0.0       0.0       0.0
12 H  pz              0.0       0.0       0.2       0.0       0.0       0.0
12 H  px              0.0       0.4       0.6       0.0       0.0       0.0
12 H  py              0.0       0.1       0.2       0.0       0.0       0.0
13 H  s               0.0       0.3       0.1       0.0       0.0       0.0
13 H  pz              0.0       0.1       0.1       0.0       0.0       0.0
13 H  px              0.0       0.3       0.1       0.0       0.0       0.0
13 H  py              0.0       0.2       0.0       0.0       0.0       0.0
14 H  s               0.0       0.3       0.8       0.0       0.0       0.0
14 H  pz              0.0       0.6       1.9       0.0       0.0       0.0
14 H  py              0.0       0.3       0.1       0.0       0.0       0.0
15 H  s               4.5       0.5       1.9       0.5       0.0       0.0
15 H  pz             10.0       0.8       5.0       0.8       0.0       0.0
15 H  px              0.1       0.3       0.0       0.0       0.0       0.0
15 H  py              0.5       0.2       0.1       0.3       0.0       0.0
16 H  s               4.0       1.7       0.3       0.6       0.0       0.0
16 H  pz              0.7       0.6       0.0       0.5       0.0       0.0
16 H  px              2.8       0.6       0.6       0.7       0.0       0.0
16 H  py              5.3       2.7       0.1       0.1       0.0       0.0
17 H  s               0.0       0.0       0.0       0.7      14.1       0.0
17 H  pz              0.1       0.1       0.0       0.1       1.9       0.0
17 H  px              0.0       0.0       0.0       1.1      13.9       0.0

                    174       175       176       177       178   
                  21.97197  22.03316  22.04276  22.09077  43.64099
                   0.00000   0.00000   0.00000   0.00000   0.00000
                  --------  --------  --------  --------  --------
 0 C  s              12.4       0.0       0.0       1.7       0.0
 1 C  s               9.5      87.3       1.3       0.0       0.0
 2 C  s               4.3       0.7       0.3      94.2       0.0
 4 C  s              72.8       9.3       2.5       3.2       0.0
 5 C  s               0.7       2.4      95.4       0.6       0.1
 6 O  s               0.0       0.0       0.1       0.0      99.8


                      *****************************
                      * MAYER POPULATION ANALYSIS *
                      *****************************

  NA   - Mulliken gross atomic population
  ZA   - Total nuclear charge
  QA   - Mulliken gross atomic charge
  VA   - Mayer's total valence
  BVA  - Mayer's bonded valence
  FA   - Mayer's free valence

  ATOM       NA         ZA         QA         VA         BVA        FA
  0 C      6.5061     6.0000    -0.5061     3.8436     3.8436    -0.0000
  1 C      6.2419     6.0000    -0.2419     3.5619     3.5619    -0.0000
  2 C      6.0401     6.0000    -0.0401     3.5345     3.5345     0.0000
  3 H      0.8457     1.0000     0.1543     0.9642     0.9642    -0.0000
  4 C      6.5214     6.0000    -0.5214     3.8138     3.8138    -0.0000
  5 C      6.1343     6.0000    -0.1343     3.7396     3.7396     0.0000
  6 O      8.4345     8.0000    -0.4345     1.8270     1.8270    -0.0000
  7 H      0.8530     1.0000     0.1470     0.9619     0.9619     0.0000
  8 H      0.8572     1.0000     0.1428     0.9637     0.9637    -0.0000
  9 H      0.8522     1.0000     0.1478     0.9631     0.9631    -0.0000
 10 H      0.8274     1.0000     0.1726     0.9575     0.9575    -0.0000
 11 H      0.8685     1.0000     0.1315     0.9691     0.9691    -0.0000
 12 H      0.8470     1.0000     0.1530     0.9627     0.9627     0.0000
 13 H      0.8553     1.0000     0.1447     0.9649     0.9649    -0.0000
 14 H      0.8492     1.0000     0.1508     0.9644     0.9644    -0.0000
 15 H      0.8785     1.0000     0.1215     0.9563     0.9563     0.0000
 16 H      0.8789     1.0000     0.1211     0.9532     0.9532     0.0000
 17 H      0.7091     1.0000     0.2909     0.9151     0.9151    -0.0000

  Mayer bond orders larger than 0.100000
B(  0-C ,  1-C ) :   0.8935 B(  0-C ,  7-H ) :   0.9735 B(  0-C ,  8-H ) :   0.9839 
B(  0-C ,  9-H ) :   0.9901 B(  1-C ,  2-C ) :   0.9115 B(  1-C , 10-H ) :   0.9665 
B(  1-C , 11-H ) :   0.9589 B(  2-C ,  3-H ) :   0.9681 B(  2-C ,  4-C ) :   0.8875 
B(  2-C ,  5-C ) :   0.9456 B(  4-C , 12-H ) :   0.9724 B(  4-C , 13-H ) :   0.9713 
B(  4-C , 14-H ) :   0.9855 B(  5-C ,  6-O ) :   0.9331 B(  5-C , 15-H ) :   0.9675 
B(  5-C , 16-H ) :   0.9688 B(  6-O , 17-H ) :   0.9013 

-------
TIMINGS
-------

Total SCF time: 0 days 0 hours 0 min 21 sec 

Total time                  ....      21.312 sec
Sum of individual times     ....      20.493 sec  ( 96.2%)

SCF preparation             ....       0.177 sec  (  0.8%)
Fock matrix formation       ....      19.368 sec  ( 90.9%)
  Startup                   ....       0.067 sec  (  0.3% of F)
  Split-RI-J                ....       3.143 sec  ( 16.2% of F)
  XC integration            ....      15.581 sec  ( 80.4% of F)
    XC Preparation          ....       0.000 sec  (  0.0% of XC)
    Basis function eval.    ....       2.944 sec  ( 18.9% of XC)
    Density eval.           ....       4.319 sec  ( 27.7% of XC)
    XC-Functional eval.     ....       2.156 sec  ( 13.8% of XC)
    XC-Potential eval.      ....       4.746 sec  ( 30.5% of XC)
Diagonalization             ....       0.000 sec  (  0.0%)
Density matrix formation    ....       0.237 sec  (  1.1%)
Total Energy calculation    ....       0.040 sec  (  0.2%)
Population analysis         ....       0.102 sec  (  0.5%)
Orbital Transformation      ....       0.057 sec  (  0.3%)
Orbital Orthonormalization  ....       0.000 sec  (  0.0%)
DIIS solution               ....       0.453 sec  (  2.1%)
  MO trafo                  ....       0.000 sec  (  0.0 % of DIIS)
  Orb grad                  ....       0.000 sec  (  0.0 % of DIIS)
  Energy W gradient         ....       0.000 sec  (  0.0 % of DIIS)
  DIIS error                ....       0.011 sec  (  2.4 % of DIIS)
  DIIS work                 ....       0.385 sec  ( 85.0 % of DIIS)
  Form Q                    ....       0.000 sec  (  0.0 % of DIIS)
  Form QpQm                 ....       0.000 sec  (  0.0 % of DIIS)
  Exp/Cayley                ....       0.000 sec  (  0.0 % of DIIS)
  Orb update                ....       0.000 sec  (  0.0 % of DIIS)
  Wake-sleep                ....       0.028 sec  (  6.2 % of DIIS)
SOSCF solution              ....       0.060 sec  (  0.3%)
  MO trafo                  ....       0.045 sec  ( 76.0 % of SOSCF)
  Orb grad                  ....       0.001 sec  (  1.0 % of SOSCF)
  Rot update                ....       0.000 sec  (  0.1 % of SOSCF)
  Step                      ....       0.014 sec  ( 22.8 % of SOSCF)
Finished LeanSCF after  21.4 sec

Maximum memory used throughout the entire LEANSCF-calculation: 19.5 MB


-------------------------------------------------------------------------------
                          DFT DISPERSION CORRECTION                            
                                                                               
                                DFTD4 V3.4.0                                   
-------------------------------------------------------------------------------
The R2SCAN3C composite method is recognized
Using three-body term ABC
Active option DFTDOPT                   ...         5   

-------------------------   ----------------
Dispersion correction           -0.004323049
-------------------------   ----------------

------------------   -----------------
gCP correction             0.009853239
------------------   -----------------

-------------------------   --------------------
FINAL SINGLE POINT ENERGY      -272.898282382869
-------------------------   --------------------


------------------------------------------------------------------------------
                              ORCA PROPERTY CALCULATIONS
------------------------------------------------------------------------------

GBWName                                 ... sp_gas.gbw
Number of atoms                         ...     18
Number of basis functions               ...    179
Max core memory                         ...   1024 MB

Electric properties:
Dipole moment                           ... YES
Quadrupole moment                       ...  NO
Static polarizability (Dipole/Dipole)   ...  NO
Static polarizability (Dipole/Quad.)    ...  NO
Static polarizability (Quad./Quad.)     ...  NO
Static polarizability (Velocity)        ...  NO

Atomic electric properties:
Dipole moment                           ...  NO
Quadrupole moment                       ...  NO
Static polarizability                   ...  NO

Choice of electric origin               ... Center of mass
Position of electric origin             ...    -0.000028    -0.000013    -0.000003

General magnetic properties:
Magnetizability                         ...  NO

EPR properties:
g-Tensor (aka g-matrix)                 ...  NO
Zero-Field splitting spin-orbit         ...  NO
Zero-field splitting spin-spin          ...  NO
Hyperfine couplings                     ...  NO (   0 nuclei)
Quadrupole couplings                    ...  NO (   0 nuclei)
Contact density                         ...  NO (   0 nuclei)

NMR properties:
Chemical shifts                         ...  NO (   0 nuclei)
Spin-rotation constants                 ...  NO (   0 nuclei)
Spin-spin couplings                     ...  NO (   0 nuclei,    0 pairs)

Choice of magnetic origin               ... GIAO
Position of magnetic origin             ...     0.000000     0.000000     0.000000

Properties with geometric perturbations:
SCF Hessian                             ...  NO
IR spectrum                             ...  NO
VCD spectrum                            ...  NO
X-ray spectroscopy properties:
SCF XES/XAS/RIXS spectra                ...  NO


-------------
DIPOLE MOMENT
-------------

Method             : SCF
Type of density    : Electron Density
Multiplicity       :   1
Irrep              :   0
Energy             :  -272.9038125728083060 Eh
Relativity type    : 
Basis              : AO
                                X                 Y                 Z
Electronic contribution:      4.797669427       1.926245861       0.432359134
Nuclear contribution   :     -4.500782482      -2.274562980      -0.711035877
                        -----------------------------------------
Total Dipole Moment    :      0.296886945      -0.348317120      -0.278676743
                        -----------------------------------------
Magnitude (a.u.)       :      0.535842702
Magnitude (Debye)      :      1.362003908



--------------------
Rotational spectrum 
--------------------
 
Rotational constants in cm-1:             0.156882             0.078816             0.057366 
Rotational constants in MHz :          4703.216677          2362.844061          1719.783641 

Dipole components along the rotational axes: 
x,y,z [a.u.] :     0.300412     0.343833    -0.280461 
x,y,z [Debye]:     0.763588     0.873955    -0.712875 

 

Dipole moment calculation done in   0.0 sec 

Maximum memory used throughout the entire PROP-calculation: 10.6 MB

--------------------------------
SUGGESTED CITATIONS FOR THIS RUN
--------------------------------

Below you find a list of papers that are relevant to this ORCA run
We neither can nor want to force you to cite these papers, but we appreciate if you do
You receive ORCA, which is the product of decades of hard work by many enthusiastic individuals, for free
The only thing we kindly ask in return is that you cite our papers,
We deeply appreciate it, if you show your appreciation for ORCA by not just citing the generic ORCA reference.

Please note that relegating all ORCA citations to the supporting information does *not* help us.
SI sections are not indexed - citations you put there will not count into any citation statistics
But we need these citations in order to attract the funding resources that allow us to do what we are doing

Therefore, if you are a happy ORCA user, please consider citing a few of the papers listed below in the main body of your paper

In addition to the list printed below, the program has created the file sp_gas.bibtex that contains the list in bibtex format
You can import this file easily into all common literature databanks and citation aid programs


List of essential papers. We consider these as the minimum necessary citations

  1. Neese,F.
     Software update: the ORCA program system, version 5.0
     WIRES Comput. Molec. Sci., 2022 12(1)e1606
     doi.org/10.1002/wcms.1606
  2. Grimme,S.; Hansen,A.; Ehlert,S.; Mewes,J.
     r2SCAN-3c: A 'Swiss army knife' composite electronic-structure method
     J. Chem. Phys., 2021 154 064103
     doi.org/10.1063/5.0040021

List of papers to cite with high priority. The work reported in these papers was absolutely
necessary for this run to complete.
Our perspective: the developers of density functionals and basis sets usually get cited in chemistry papers
Good! But without the algorithms to do something with them, the functionals or basis sets would not do anything.
Hence, in our opinion, the algorithm design and method developments papers are equally worthy of getting cited

  1. Neese,F.
     An improvement of the resolution of the identity approximation for the formation of the Coulomb matrix
     J. Comp. Chem., 2003 24(14)1740-1747
     doi.org/10.1002/jcc.10318
  2. Neese,F.
     The SHARK Integral Generation and Digestion System
     J. Comp. Chem., 2022  1-16
     doi.org/10.1002/jcc.26942
  3. Lehtola,S.; Steigemann,C.; Oliveira,M.; Marques,M.
     Recent developments in Libxc - A comprehensive library of functionals for density functional theory
     Software X, 2018 7 
     doi.org/10.1016/j.softx.2017.11.002
  4. Caldeweyher,E.; Bannwarth,C.; Grimme,S.
     Extension of the D3 dispersion coefficient model
     J. Chem. Phys., 2017 147 034112-XXXX
     doi.org/10.1063/1.4993215
  5. Caldeweyher,E.; Ehlert,S.; Hansen,A.; Neugebauer,H.; Spicher,S.; Bannwarth,C.; Grimme,S.
     A generally applicable atomic-charge dependent London dispersion correction
     J. Chem. Phys., 2019 150 154122-XXXX
     doi.org/10.1063/1.5090222
  6. Caldeweyher,E.; Mewes,J.; Ehlert,S.; Grimme,S.
     Extension and evaluation of the D4 London-dispersion model for periodic systems
     Phys. Chem. Chem. Phys., 2020 22(16)8499-8512
     doi.org/10.1039/D0CP00502A

List of suggested additional citations. These are papers that are important in the 'surrounding' of 
of this run, or papers that preceded the highly important papers. If you like your results we are grateful for a citation.

  1. Neese,F.
     The ORCA program system
     WIRES Comput. Molec. Sci., 2012 2(1)73-78
     doi.org/10.1002/wcms.81
  2. Neese,F.
     Software update: the ORCA program system, version 4.0
     WIRES Comput. Molec. Sci., 2018 8(1)1-6
     doi.org/10.1002/wcms.1327
  3. Neese,F.; Wennmohs,F.; Becker,U.; Riplinger,C.
     The ORCA quantum chemistry program package
     J. Chem. Phys., 2020 152 Art. No. L224108
     doi.org/10.1063/5.0004608

List of optional additional citations

  1. Neese,F.
     Approximate second-order SCF convergence for spin unrestricted wavefunctions
     Chem. Phys. Lett., 2000 325(1-3)93-98
     doi.org/10.1016/s0009-2614(00)00662-x

Timings for individual modules:

Sum of individual times          ...       23.124 sec (=   0.385 min)
Startup calculation              ...        1.236 sec (=   0.021 min)   5.3 %
SCF iterations                   ...       21.786 sec (=   0.363 min)  94.2 %
Property calculations            ...        0.103 sec (=   0.002 min)   0.4 %
                             ****ORCA TERMINATED NORMALLY****
TOTAL RUN TIME: 0 days 0 hours 0 minutes 23 seconds 829 msec
