      -----------------------------------------------------------      
     |                   =====================                   |     
     |                           x T B                           |     
     |                   =====================                   |     
     |                         S. Grimme                         |     
     |          Mulliken Center for Theoretical Chemistry        |     
     |                    University of Bonn                     |     
      -----------------------------------------------------------      

   * xtb version 6.7.1 (edcfbbe) compiled by 'albert@albert-system' on 2024-07-22

   xtb is free software: you can redistribute it and/or modify it under
   the terms of the GNU Lesser General Public License as published by
   the Free Software Foundation, either version 3 of the License, or
   (at your option) any later version.
   
   xtb is distributed in the hope that it will be useful,
   but WITHOUT ANY WARRANTY; without even the implied warranty of
   MERCHANTABILITY or FITNESS FOR A PARTICULAR PURPOSE.  See the
   GNU Lesser General Public License for more details.
   
   Cite this work as:
   * C. Bannwarth, E. Caldeweyher, S. Ehlert, A. Hansen, P. Pracht,
     J. Seibert, S. Spicher, S. Grimme, WIREs Comput. Mol. Sci., 2020, 11,
     e01493. DOI: 10.1002/wcms.1493
   
   for GFN2-xTB:
   * C. Bannwarth, S. Ehlert and S. Grimme., J. Chem. Theory Comput., 2019,
     15, 1652-1671. DOI: 10.1021/acs.jctc.8b01176
   for GFN1-xTB:
   * S. Grimme, C. Bannwarth, P. Shushkov, J. Chem. Theory Comput., 2017,
     13, 1989-2009. DOI: 10.1021/acs.jctc.7b00118
   for GFN0-xTB:
   * P. Pracht, E. Caldeweyher, S. Ehlert, S. Grimme, ChemRxiv, 2019, preprint.
     DOI: 10.26434/chemrxiv.8326202.v1
   for GFN-FF:
   * S. Spicher and S. Grimme, Angew. Chem. Int. Ed., 2020, 59, 15665-15673.
     DOI: 10.1002/anie.202004239
   
   for ALPB and GBSA implicit solvation:
   * S. Ehlert, M. Stahn, S. Spicher, S. Grimme, J. Chem. Theory Comput.,
     2021, 17, 4250-4261. DOI: 10.1021/acs.jctc.1c00471
   
   for ddCOSMO and CPCM-X implicit solvation:
   * M. Stahn, S. Ehlert, S. Grimme, J. Phys. Chem. A,
     2023, XX, XXXX-XXXX. DOI: 10.1021/acs.jpca.3c04382
   
   for DFT-D4:
   * E. Caldeweyher, C. Bannwarth and S. Grimme, J. Chem. Phys., 2017,
     147, 034112. DOI: 10.1063/1.4993215
   * E. Caldeweyher, S. Ehlert, A. Hansen, H. Neugebauer, S. Spicher,
     C. Bannwarth and S. Grimme, J. Chem. Phys., 2019, 150, 154122.
     DOI: 10.1063/1.5090222
   * E. Caldeweyher, J.-M. Mewes, S. Ehlert and S. Grimme, Phys. Chem. Chem. Phys.
     2020, 22, 8499-8512. DOI: 10.1039/D0CP00502A
   
   for sTDA-xTB:
   * S. Grimme and C. Bannwarth, J. Chem. Phys., 2016, 145, 054103.
     DOI: 10.1063/1.4959605
   
   in the mass-spec context:
   * V. Asgeirsson, C. Bauer and S. Grimme, Chem. Sci., 2017, 8, 4879.
     DOI: 10.1039/c7sc00601b
   * J. Koopman and S. Grimme, ACS Omega 2019, 4, 12, 15120-15133.
     DOI: 10.1021/acsomega.9b02011
   
   for metadynamics refer to:
   * S. Grimme, J. Chem. Theory Comput., 2019, 155, 2847-2862
     DOI: 10.1021/acs.jctc.9b00143
   
   for SPH calculations refer to:
   * S. Spicher and S. Grimme, J. Chem. Theory Comput., 2021, 17, 1701-1714
     DOI: 10.1021/acs.jctc.0c01306
   
   for ONIOM refer to:
   * C. Plett, A. Katbashev, S. Ehlert, S. Grimme, M. Bursch,
     Phys. Chem. Chem. Phys., 2023, 25, 17860-17868. DOI: 10.1039/D3CP02178E
   
   for DIPRO refer to:
   * J. Kohn, N. Gildemeister, S. Grimme, D. Fazzi, A. Hansen,
     J. Chem. Phys., 2023, just accepted.
   
   for PTB refer to:
   * S. Grimme, M. Mueller, A. Hansen, J. Chem. Phys., 2023, 158, 124111.
     DOI: 10.1063/5.0137838
   
   with help from (in alphabetical order)
   P. Atkinson, C. Bannwarth, F. Bohle, G. Brandenburg, E. Caldeweyher
   M. Checinski, S. Dohm, S. Ehlert, S. Ehrlich, I. Gerasimov, C. Hölzer
   A. Katbashev, J. Kohn, J. Koopman, C. Lavigne, S. Lehtola, F. März, M. Müller,
   F. Musil, H. Neugebauer, J. Pisarek, C. Plett, P. Pracht, F. Pultar,
   J. Seibert, P. Shushkov, S. Spicher, M. Stahn, M. Steiner, T. Strunk,
   J. Stückrath, T. Rose, and J. Unsleber
   
 * started run on 2025/04/11 at 12:14:10.830     
   ID    Z sym.   atoms
    1    6 C      1, 2, 4-7
    2    1 H      3, 9-21
    3    8 O      8

           -------------------------------------------------
          |                Calculation Setup                |
           -------------------------------------------------

          program call               : /srv/scratch/z5358697/.xtb/bin/xtb xtb_rrho.coord --gfn2 --bhess vtight --chrg 0 --enso --norestart -I rrho-xcontrol-inp --parallel 1 --alpb water
          hostname                   : k068
          coordinate file            : xtb_rrho.coord
          omp threads                :                     1


           -------------------------------------------------
          |                 G F N 2 - x T B                 |
           -------------------------------------------------

        Reference                      10.1021/acs.jctc.8b01176
      * Hamiltonian:
        H0-scaling (s, p, d)           1.850000    2.230000    2.230000
        zeta-weighting                 0.500000
      * Dispersion:
        s8                             2.700000
        a1                             0.520000
        a2                             5.000000
        s9                             5.000000
      * Repulsion:
        kExp                           1.500000    1.000000
        rExp                           1.000000
      * Coulomb:
        alpha                          2.000000
        third order                    shell-resolved
        anisotropic                    true
        a3                             3.000000
        a5                             4.000000
        cn-shift                       1.200000
        cn-exp                         4.000000
        max-rad                        5.000000

      * Solvation model:               ALPB
        Solvent                        water
        Parameter file                 internal GFN2-xTB/ALPB
        Dielectric constant                8.0200E+01
        Reference state                gsolv [1 M gas/solution]
        Free energy shift                  1.0808E-03 Eh       6.7819E-01 kcal/mol
        Temperature                        2.9815E+02 K
        Density                            1.0000E+00 kg/L
        Solvent mass                       1.8000E+01 g/mol
        Interaction kernel             P16
        Born radius scaling (c1)           1.4744E+00
        Born radii integrator          GBOBC
        Born offset                        0.0000E+00 a0       0.0000E+00 AA
        H-bond correction              true
        Ion screening                  false
        Surface tension                    1.0000E-05 Eh       1.5569E+01 dyn/cm
        Grid points                               974 per atom

          ...................................................
          :                      SETUP                      :
          :.................................................:
          :  # basis functions                  42          :
          :  # atomic orbitals                  42          :
          :  # shells                           28          :
          :  # electrons                        44          :
          :  max. iterations                   250          :
          :  Hamiltonian                  GFN2-xTB          :
          :  restarted?                      false          :
          :  GBSA solvation                   true          :
          :  PC potential                    false          :
          :  electronic temp.          300.0000000     K    :
          :  accuracy                    1.0000000          :
          :  -> integral cutoff          0.2500000E+02      :
          :  -> integral neglect         0.1000000E-07      :
          :  -> SCF convergence          0.1000000E-05 Eh   :
          :  -> wf. convergence          0.1000000E-03 e    :
          :  Broyden damping             0.4000000          :
          :  net charge                          0          :
          :  unpaired electrons                  0          :
          ...................................................

 iter      E             dE          RMSdq      gap      omega  full diag
   1    -24.3174751 -0.243175E+02  0.290E+00   11.58       0.0  T
   2    -24.3535973 -0.361223E-01  0.155E+00   11.41       1.0  T
   3    -24.3546530 -0.105563E-02  0.620E-01   11.43       1.0  T
   4    -24.3549424 -0.289404E-03  0.144E-01   11.39       1.0  T
   5    -24.3550313 -0.889014E-04  0.638E-02   11.41       1.0  T
   6    -24.3550331 -0.184134E-05  0.107E-02   11.42       2.0  T
   7    -24.3550335 -0.344064E-06  0.458E-03   11.42       4.8  T
   8    -24.3550335 -0.519888E-07  0.178E-03   11.42      12.3  T
   9    -24.3550335 -0.352327E-08  0.675E-04   11.42      32.3  T
  10    -24.3550335 -0.182758E-08  0.140E-04   11.42     155.8  T

   *** convergence criteria satisfied after 10 iterations ***

         #    Occupation            Energy/Eh            Energy/eV
      -------------------------------------------------------------
         1        2.0000           -0.6807905             -18.5253
       ...           ...                  ...                  ...
        16        2.0000           -0.4575386             -12.4503
        17        2.0000           -0.4537782             -12.3479
        18        2.0000           -0.4436738             -12.0730
        19        2.0000           -0.4305335             -11.7154
        20        2.0000           -0.4276100             -11.6359
        21        2.0000           -0.4215871             -11.4720
        22        2.0000           -0.4039165             -10.9911 (HOMO)
        23                          0.0156107               0.4248 (LUMO)
        24                          0.0497872               1.3548
        25                          0.0917043               2.4954
        26                          0.1010122               2.7487
        27                          0.1179987               3.2109
       ...                                ...                  ...
        42                          0.3040715               8.2742
      -------------------------------------------------------------
                  HL-Gap            0.4195272 Eh           11.4159 eV
             Fermi-level           -0.1941529 Eh           -5.2832 eV

 SCC (total)                   0 d,  0 h,  0 min,  0.041 sec
 SCC setup                      ...        0 min,  0.001 sec (  3.238%)
 Dispersion                     ...        0 min,  0.000 sec (  0.288%)
 classical contributions        ...        0 min,  0.000 sec (  0.066%)
 integral evaluation            ...        0 min,  0.002 sec (  3.660%)
 iterations                     ...        0 min,  0.033 sec ( 80.599%)
 molecular gradient             ...        0 min,  0.005 sec ( 11.724%)
 printout                       ...        0 min,  0.000 sec (  0.390%)

         :::::::::::::::::::::::::::::::::::::::::::::::::::::
         ::                     SUMMARY                     ::
         :::::::::::::::::::::::::::::::::::::::::::::::::::::
         :: total energy             -24.057947308622 Eh    ::
         :: total w/o Gsasa/hb       -24.055727333449 Eh    ::
         :: gradient norm              0.032910032476 Eh/a0 ::
         :: HOMO-LUMO gap             11.415915571861 eV    ::
         ::.................................................::
         :: SCC energy               -24.354980143595 Eh    ::
         :: -> isotropic ES            0.037213717783 Eh    ::
         :: -> anisotropic ES          0.005929554840 Eh    ::
         :: -> anisotropic XC          0.010432801403 Eh    ::
         :: -> dispersion             -0.012491039840 Eh    ::
         :: -> Gsolv                  -0.006432660595 Eh    ::
         ::    -> Gelec               -0.004212685422 Eh    ::
         ::    -> Gsasa                0.000260649685 Eh    ::
         ::    -> Ghb                 -0.003561384557 Eh    ::
         ::    -> Gshift               0.001080759698 Eh    ::
         :: repulsion energy           0.297032834973 Eh    ::
         :: add. restraining           0.000000000000 Eh    ::
         :: total charge               0.000000000000 e     ::
         :::::::::::::::::::::::::::::::::::::::::::::::::::::

metadynamics with 1 initial structures loaded
           -------------------------------------------------
          |           Optimal kpush determination           |
           -------------------------------------------------
      ----------------------------------------------------------- 
     |                   =====================                   |
     |                        A N C O P T                        |
     |                   =====================                   |
     |               Approximate Normal Coordinate               |
     |                Rational Function Optimizer                |
      ----------------------------------------------------------- 
target rmsd / Å         0.100000
unbiased initial rmsd   0.048254
 
iter. min.        max.        rmsd       kpush
final kpush:  0.000000
           -------------------------------------------------
          |            Biased Numerical Hessian             |
           -------------------------------------------------
kpush                :   0.00000
alpha                :   1.00000
step length          :   0.00500
SCC accuracy         :   0.30000
Hessian scale factor :   1.00000
frozen atoms in %    :   0.00000    0
RMS gradient         :   0.00006
estimated CPU  time      0.02 min
estimated wall time      0.02 min

writing file <hessian>.

 projected vibrational frequencies (cm⁻¹)
eigval :       -0.00    -0.00    -0.00     0.00     0.00     0.00
eigval :       62.91    75.35   173.81   187.56   215.00   252.28
eigval :      280.36   308.32   342.13   393.62   433.71   475.31
eigval :      498.49   852.04   894.63   907.66   949.57   955.87
eigval :      988.51  1000.07  1033.58  1055.40  1121.31  1155.34
eigval :     1170.85  1189.20  1218.42  1235.71  1280.79  1324.62
eigval :     1327.18  1341.30  1363.74  1397.61  1406.58  1420.66
eigval :     1466.87  1472.58  1492.07  1493.54  1498.56  1505.02
eigval :     1509.75  2825.75  2902.92  2981.73  2992.17  3021.97
eigval :     3025.23  3027.15  3029.89  3037.93  3041.25  3046.74
eigval :     3048.07  3051.50  3519.43
           -------------------------------------------------
          |                Property Printout                |
           -------------------------------------------------

    * Orbital Energies and Occupations

         #    Occupation            Energy/Eh            Energy/eV
      -------------------------------------------------------------
         1        2.0000           -0.6840821             -18.6148
       ...           ...                  ...                  ...
        10        2.0000           -0.5126512             -13.9499
        11        2.0000           -0.4977481             -13.5444
        12        2.0000           -0.4833495             -13.1526
        13        2.0000           -0.4771327             -12.9834
        14        2.0000           -0.4649425             -12.6517
        15        2.0000           -0.4604122             -12.5285
        16        2.0000           -0.4587538             -12.4833
        17        2.0000           -0.4532255             -12.3329
        18        2.0000           -0.4435624             -12.0699
        19        2.0000           -0.4290455             -11.6749
        20        2.0000           -0.4274984             -11.6328
        21        2.0000           -0.4207543             -11.4493
        22        2.0000           -0.4013657             -10.9217 (HOMO)
        23                          0.0394662               1.0739 (LUMO)
        24                          0.0564956               1.5373
        25                          0.0965335               2.6268
        26                          0.1087186               2.9584
        27                          0.1258033               3.4233
        28                          0.1275426               3.4706
        29                          0.1504731               4.0946
        30                          0.1604377               4.3657
        31                          0.1652187               4.4958
        32                          0.1811554               4.9295
        33                          0.1953596               5.3160
       ...                                ...                  ...
        42                          0.3182322               8.6595
      -------------------------------------------------------------
                  HL-Gap            0.4408318 Eh           11.9956 eV
             Fermi-level           -0.1809498 Eh           -4.9239 eV

     #   Z          covCN         q      C6AA      α(0)
     1   6 C        3.754    -0.123    22.923     6.827
     2   6 C        3.722     0.120    18.724     6.180
     3   1 H        0.923     0.008     2.916     2.670
     4   6 C        3.805    -0.086    22.133     6.697
     5   6 C        3.848    -0.011    20.732     6.477
     6   6 C        3.756    -0.116    22.768     6.804
     7   6 C        3.756    -0.116    22.776     6.805
     8   8 O        1.655    -0.509    23.086     6.486
     9   1 H        0.925     0.052     2.292     2.368
    10   1 H        0.925     0.051     2.302     2.373
    11   1 H        0.925     0.048     2.344     2.394
    12   1 H        0.924     0.047     2.356     2.400
    13   1 H        0.924     0.042     2.421     2.433
    14   1 H        0.924     0.024     2.673     2.557
    15   1 H        0.925     0.038     2.476     2.461
    16   1 H        0.925     0.045     2.387     2.416
    17   1 H        0.925     0.035     2.512     2.478
    18   1 H        0.925     0.036     2.502     2.474
    19   1 H        0.925     0.040     2.448     2.447
    20   1 H        0.925     0.039     2.459     2.452
    21   1 H        0.805     0.333     0.629     1.245

 Mol. C6AA /au·bohr⁶  :       2896.196071
 Mol. C8AA /au·bohr⁸  :      60026.948359
 Mol. α(0) /au        :         79.443074


Wiberg/Mayer (AO) data.
largest (>0.10) Wiberg bond orders for each atom

 ---------------------------------------------------------------------------
     #   Z sym  total        # sym  WBO       # sym  WBO       # sym  WBO
 ---------------------------------------------------------------------------
     1   6 C    3.994 --     2 C    1.006    11 H    0.985     9 H    0.985
                            10 H    0.985
     2   6 C    3.951 --     1 C    1.006     4 C    0.987     8 O    0.978
                             3 H    0.964
     3   1 H    1.000 --     2 C    0.964
     4   6 C    3.995 --     5 C    0.994     2 C    0.987    12 H    0.975
                            13 H    0.974
     5   6 C    3.996 --     6 C    1.010     7 C    1.009     4 C    0.994
                            14 H    0.968
     6   6 C    3.996 --     5 C    1.010    17 H    0.987    15 H    0.986
                            16 H    0.983
     7   6 C    3.996 --     5 C    1.009    20 H    0.987    18 H    0.987
                            19 H    0.986
     8   8 O    1.920 --     2 C    0.978    21 H    0.871
     9   1 H    0.997 --     1 C    0.985
    10   1 H    0.997 --     1 C    0.985
    11   1 H    0.998 --     1 C    0.985
    12   1 H    0.998 --     4 C    0.975
    13   1 H    0.998 --     4 C    0.974
    14   1 H    0.999 --     5 C    0.968
    15   1 H    0.999 --     6 C    0.986
    16   1 H    0.998 --     6 C    0.983
    17   1 H    0.999 --     6 C    0.987
    18   1 H    0.999 --     7 C    0.987
    19   1 H    0.998 --     7 C    0.986
    20   1 H    0.998 --     7 C    0.987
    21   1 H    0.889 --     8 O    0.871
 ---------------------------------------------------------------------------

Topologies differ in total number of bonds
Writing topology from bond orders to xtbtopo.mol

molecular dipole:
                 x           y           z       tot (Debye)
 q only:       -0.415      -0.417      -0.009
   full:       -0.539      -0.548       0.078       1.963
molecular quadrupole (traceless):
                xx          xy          yy          xz          yz          zz
 q only:       -1.150      -2.693      -1.352      -1.979       0.199       2.502
  q+dip:       -2.340      -3.713      -1.610      -1.778      -1.232       3.949
   full:       -2.108      -3.578      -1.619      -2.079      -0.576       3.728

           -------------------------------------------------
          |                Geometry Summary                 |
           -------------------------------------------------

      molecular mass/u    :      102.1749908
   center of mass at/Å    :        0.0005728       0.0002843      -0.0002950
  moments of inertia/u·Å² :        0.1153748E+03   0.3401712E+03   0.4109662E+03
rotational constants/cm⁻¹ :        0.1461119E+00   0.4955631E-01   0.4101951E-01

 * 20 selected distances

     #   Z          #   Z                                           value/Å
     1   6 C        2   6 C                                       1.5263474
     2   6 C        3   1 H                                       1.1023608
     2   6 C        4   6 C                                       1.5364774
     4   6 C        5   6 C                                       1.5380107 (max)
     5   6 C        6   6 C                                       1.5293307
     5   6 C        7   6 C                                       1.5285381
     2   6 C        8   8 O                                       1.4203200
     1   6 C        9   1 H                                       1.0866479
     1   6 C       10   1 H                                       1.0865534
     1   6 C       11   1 H                                       1.0852980
     4   6 C       12   1 H                                       1.0912265
     4   6 C       13   1 H                                       1.0908216
     5   6 C       14   1 H                                       1.0970317
     6   6 C       15   1 H                                       1.0882546
     6   6 C       16   1 H                                       1.0866643
     6   6 C       17   1 H                                       1.0878223
     7   6 C       18   1 H                                       1.0874996
     7   6 C       19   1 H                                       1.0875798
     7   6 C       20   1 H                                       1.0877199
     8   8 O       21   1 H                                       0.9654615 (min)

 * 4 distinct bonds (by element types)

   Z      Z             #   av. dist./Å        max./Å        min./Å
   1 H    6 C          13     1.0896523     1.1023608     1.0852980
   6 C    6 C           5     1.5317409     1.5380107     1.5263474
   1 H    8 O           1     0.9654615     0.9654615     0.9654615
   6 C    8 O           1     1.4203200     1.4203200     1.4203200

           -------------------------------------------------
          |               Frequency Printout                |
           -------------------------------------------------
 projected vibrational frequencies (cm⁻¹)
eigval :       -0.00    -0.00    -0.00     0.00     0.00     0.00
eigval :       62.91    75.35   173.81   187.56   215.00   252.28
eigval :      280.36   308.32   342.13   393.62   433.71   475.31
eigval :      498.49   852.04   894.63   907.66   949.57   955.87
eigval :      988.51  1000.07  1033.58  1055.40  1121.31  1155.34
eigval :     1170.85  1189.20  1218.42  1235.71  1280.79  1324.62
eigval :     1327.18  1341.30  1363.74  1397.61  1406.58  1420.66
eigval :     1466.87  1472.58  1492.07  1493.54  1498.56  1505.02
eigval :     1509.75  2825.75  2902.92  2981.73  2992.17  3021.97
eigval :     3025.23  3027.15  3029.89  3037.93  3041.25  3046.74
eigval :     3048.07  3051.50  3519.43
 reduced masses (amu)
   1:  9.99   2:  9.86   3: 10.75   4: 11.64   5:  9.09   6: 11.69   7:  9.61   8:  9.28
   9:  8.14  10:  1.62  11:  1.56  12:  3.33  13:  5.39  14:  7.72  15:  7.29  16:  8.74
  17:  7.16  18:  8.76  19:  8.45  20:  8.66  21:  7.62  22:  5.88  23:  3.53  24:  5.89
  25:  4.29  26:  5.42  27:  4.92  28:  7.30  29:  7.16  30:  7.02  31:  7.94  32:  6.47
  33:  4.20  34:  4.38  35:  3.18  36:  4.93  37:  4.12  38:  2.98  39:  5.25  40:  3.41
  41:  3.29  42:  3.08  43:  1.77  44:  1.65  45:  1.57  46:  1.55  47:  1.61  48:  1.53
  49:  1.60  50:  1.72  51:  1.75  52:  1.99  53:  1.49  54:  1.94  55:  1.90  56:  1.94
  57:  1.70  58:  1.26  59:  1.95  60:  1.52  61:  1.53  62:  1.67  63:  1.88
 IR intensities (km·mol⁻¹)
   1:  0.31   2:  0.22   3:  0.19   4:  0.08   5:  0.12   6:  0.38   7:  0.93   8: 11.68
   9:  0.30  10:  1.71  11:  5.40  12:  6.19  13:104.65  14: 34.43  15: 77.46  16:  4.71
  17:  2.46  18: 12.23  19:  2.84  20: 10.85  21:  6.43  22:  1.96  23: 11.93  24: 16.57
  25:  1.21  26: 10.90  27: 24.62  28: 57.56  29:  5.40  30: 24.24  31: 66.12  32: 11.95
  33: 49.58  34: 61.54  35: 18.15  36: 13.63  37:  7.87  38: 17.67  39: 28.94  40:  6.69
  41:  1.47  42:  0.48  43:  0.55  44:  0.35  45:  1.55  46:  0.08  47:  0.27  48:  1.28
  49:  0.68  50:143.17  51:102.22  52: 63.61  53: 41.48  54: 55.25  55: 30.01  56:104.95
  57:104.72  58: 57.27  59: 55.82  60: 34.38  61: 40.06  62: 44.83  63: 55.01
 Raman intensities (Ä⁴*amu⁻¹)
   1:  0.00   2:  0.00   3:  0.00   4:  0.00   5:  0.00   6:  0.00   7:  0.00   8:  0.00
   9:  0.00  10:  0.00  11:  0.00  12:  0.00  13:  0.00  14:  0.00  15:  0.00  16:  0.00
  17:  0.00  18:  0.00  19:  0.00  20:  0.00  21:  0.00  22:  0.00  23:  0.00  24:  0.00
  25:  0.00  26:  0.00  27:  0.00  28:  0.00  29:  0.00  30:  0.00  31:  0.00  32:  0.00
  33:  0.00  34:  0.00  35:  0.00  36:  0.00  37:  0.00  38:  0.00  39:  0.00  40:  0.00
  41:  0.00  42:  0.00  43:  0.00  44:  0.00  45:  0.00  46:  0.00  47:  0.00  48:  0.00
  49:  0.00  50:  0.00  51:  0.00  52:  0.00  53:  0.00  54:  0.00  55:  0.00  56:  0.00
  57:  0.00  58:  0.00  59:  0.00  60:  0.00  61:  0.00  62:  0.00  63:  0.00
 output can be read by thermo (or use thermo option).
 writing <g98.out> molden fake output.
 recommended (thermochemical) frequency scaling factor: 1.0
           -------------------------------------------------
          |             Thermodynamic Functions             |
           -------------------------------------------------

Molecule has no symmetry elements
It seems to be the C1 point group
c1  symmetry found (for desy threshold:  0.10E+00) used in thermo

          ...................................................
          :                      SETUP                      :
          :.................................................:
          :  # frequencies                          57      :
          :  # imaginary freq.                       0      :
          :  linear?                             false      :
          :  only rotor calc.                    false      :
          :  symmetry                               c1      :
          :  rotational number                       1      :
          :  scaling factor                  1.0000000      :
          :  rotor cutoff                    0.0000000 cm⁻¹ :
          :  imag. cutoff                 -100.0000000 cm⁻¹ :
          :.................................................:

    mode    ω/cm⁻¹     T·S(HO)/kcal·mol⁻¹    T·S(FR)/kcal·mol⁻¹   T·S(vib)
   ------------------------------------------------------------------------
       1     62.91    -1.30105 (100.00%)    -0.98823 (  0.00%)    -1.30105
       2     75.35    -1.19512 (100.00%)    -0.93482 (  0.00%)    -1.19512
       3    173.81    -0.71374 (100.00%)    -0.68736 (  0.00%)    -0.71374
       4    187.56    -0.67138 (100.00%)    -0.66481 (  0.00%)    -0.67138
       5    215.00    -0.59653 (100.00%)    -0.62436 (  0.00%)    -0.59653
       6    252.28    -0.51121 (100.00%)    -0.57701 (  0.00%)    -0.51121
       7    280.36    -0.45661 (100.00%)    -0.54575 (  0.00%)    -0.45661
   ------------------------------------------------------------------------

   temp. (K)  partition function   enthalpy   heat capacity  entropy
                                   cal/mol     cal/K/mol   cal/K/mol   J/K/mol
 298.15  VIB   328.                 4202.818     28.346     25.609
         ROT  0.307E+06              888.752      2.981     28.088
         INT  0.101E+09             5091.570     31.327     53.697
         TR   0.999E+27             1481.254      4.968     39.764
         TOT                        6572.8239    36.2947    93.4610   391.0408

       T/K    H(0)-H(T)+PV         H(T)/Eh          T*S/Eh         G(T)/Eh
   ------------------------------------------------------------------------
    298.15    0.104745E-01    0.200199E+00    0.444063E-01    0.155793E+00
   ------------------------------------------------------------------------

         :::::::::::::::::::::::::::::::::::::::::::::::::::::
         ::                  THERMODYNAMIC                  ::
         :::::::::::::::::::::::::::::::::::::::::::::::::::::
         :: total free energy         -23.903521341046 Eh   ::
         ::.................................................::
         :: total energy              -24.059314398868 Eh   ::
         :: zero point energy           0.189724928406 Eh   ::
         :: G(RRHO) w/o ZPVE           -0.033931870584 Eh   ::
         :: G(RRHO) contrib.            0.155793057822 Eh   ::
         :::::::::::::::::::::::::::::::::::::::::::::::::::::

optimized geometry written to: xtbopt.coord


           -------------------------------------------------
          | TOTAL ENERGY              -24.059314398868 Eh   |
          | TOTAL ENTHALPY            -23.859115008789 Eh   |
          | TOTAL FREE ENERGY         -23.903521341046 Eh   |
          | GRADIENT NORM               0.000058955850 Eh/α |
          | HOMO-LUMO GAP              11.995644635308 eV   |
           -------------------------------------------------

------------------------------------------------------------------------
 * finished run on 2025/04/11 at 12:14:12.352     
------------------------------------------------------------------------
 total:
 * wall-time:     0 d,  0 h,  0 min,  1.521 sec
 *  cpu-time:     0 d,  0 h,  0 min,  1.393 sec
 * ratio c/w:     0.915 speedup
 SCF:
 * wall-time:     0 d,  0 h,  0 min,  0.041 sec
 *  cpu-time:     0 d,  0 h,  0 min,  0.015 sec
 * ratio c/w:     0.355 speedup
 analytical hessian:
 * wall-time:     0 d,  0 h,  0 min,  1.224 sec
 *  cpu-time:     0 d,  0 h,  0 min,  1.210 sec
 * ratio c/w:     0.989 speedup

