17
 energy: -346.938673493077 gnorm: 0.002973927178 xtb: 6.7.1 (edcfbbe)
C           -3.25536775218026        0.51361259953266       -0.02629124217778
C           -1.97352997667164       -0.27758473039713        0.21288185531149
C           -0.73564179918218        0.56117169377321       -0.08593674780967
C            0.55416572539970       -0.18220137877582        0.10595321249413
O            0.66914834179081       -1.39253418914076        0.20662644951186
O            1.61113084338214        0.65992478255413        0.13594620954207
C            2.91323614193328        0.03780715781193        0.25308320194591
H           -4.13815045787280       -0.09380053491133        0.19758171152947
H           -3.29258749718413        1.40739189812659        0.60685554731283
H           -3.32655762633052        0.83942272693147       -1.07029284011951
H           -1.96617882422668       -1.17390954391095       -0.41689360929139
H           -1.93331918834812       -0.62091327633007        1.25345416201733
H           -0.70863089014136        1.46794175662073        0.52907934634224
H           -0.74687142386537        0.90498624460531       -1.13032512959942
H            3.62994230008042        0.85702538830832        0.21510521510554
H            3.08099561281906       -0.65207834373302       -0.57779158056955
H            2.99621078716317       -0.49537281167921        1.20327879395628
17
 energy: -346.938686462467 gnorm: 0.001531195916 xtb: 6.7.1 (edcfbbe)
C           -3.25487404325715        0.51379478148831       -0.02576700973282
C           -1.97341342827456       -0.27818180251836        0.21256025555900
C           -0.73595342337101        0.56071099734255       -0.08603560841977
C            0.55426347772500       -0.18157451360615        0.10653073669440
O            0.67016857828096       -1.39097535895247        0.21078030102233
O            1.61047351479051        0.66017840697343        0.13168399278796
C            2.91336438698837        0.03737051521347        0.25222403129096
H           -4.13786719698361       -0.09307792764301        0.19684329189734
H           -3.29187339519747        1.40655796045837        0.60820098644500
H           -3.32555938188928        0.84091583130771       -1.06900513982429
H           -1.96635999860897       -1.17396484141658       -0.41769952985352
H           -1.93326797734635       -0.62216544214204        1.25266793634150
H           -0.71018027781350        1.46775079728366        0.52832028054276
H           -0.74686737307984        0.90414070416970       -1.13025009482890
H            3.63043510728337        0.85674168011478        0.21690320801311
H            3.08283550989511       -0.65185138903577       -0.57871274543551
H            2.99267032703993       -0.49548083350825        1.20306978457167
17
 energy: -346.938703676079 gnorm: 0.002448327950 xtb: 6.7.1 (edcfbbe)
C           -3.25354287549684        0.51444559110121       -0.02367138787188
C           -1.97304020413146       -0.28014263641573        0.21082551323176
C           -0.73672587733493        0.55928727341163       -0.08727618383698
C            0.55480353378638       -0.17990644009797        0.10764199950571
O            0.67152175536894       -1.38700998842382        0.23064526739472
O            1.60933408629494        0.66081096669729        0.11418521640724
C            2.91419522109854        0.03635134104130        0.24942726256723
H           -4.13751103682772       -0.09156348837382        0.19435737277217
H           -3.28909776216825        1.40318227707451        0.61507162935335
H           -3.32247539192837        0.84777466240163       -1.06449287312867
H           -1.96777223879475       -1.17385726851052       -0.42195572484984
H           -1.93232796589995       -0.62729811288957        1.24943388325424
H           -0.71431749243887        1.46731173408312        0.52535742795628
H           -0.74682251384477        0.90150435474178       -1.13131079942984
H            3.63099408065004        0.85693520714010        0.22421220455283
H            3.09116366210674       -0.65041859884734       -0.58152274017142
H            2.97961586763753       -0.49651672079072        1.20138720192920
17
 energy: -346.938710530784 gnorm: 0.001891156054 xtb: 6.7.1 (edcfbbe)
C           -3.25363746512790        0.51470480942216       -0.02323694416615
C           -1.97319094211948       -0.28054476698049        0.20964770161281
C           -0.73674914447131        0.55899012575273       -0.08793214090231
C            0.55473374415043       -0.17977567905309        0.10973645148677
O            0.67056830294137       -1.38676508921288        0.23816759603902
O            1.60992878673209        0.66046097737421        0.10994124199432
C            2.91461373914240        0.03650876433004        0.24848980798706
H           -4.13776028760242       -0.09181398156303        0.19359034310750
H           -3.28903862547341        1.40219901726718        0.61755236374224
H           -3.32246084411391        0.85033952940376       -1.06350311466823
H           -1.96833298052631       -1.17366702829892       -0.42415451259910
H           -1.93207841252649       -0.62886712572738        1.24797611103934
H           -0.71469103347805        1.46705459370988        0.52489080585500
H           -0.74612874859602        0.90135662857453       -1.13206363968024
H            3.63073856451983        0.85743502285817        0.22497783274714
H            3.09377731685198       -0.65019422168757       -0.58201653106338
H            2.97770296437929       -0.49653133229430        1.20025203959236
17
 energy: -346.938698596450 gnorm: 0.006575369665 xtb: 6.7.1 (edcfbbe)
C           -3.25465341727959        0.51673341937437       -0.01935721994362
C           -1.97438659106563       -0.28320499233992        0.20049285478503
C           -0.73660042887214        0.55659502224460       -0.09310826465629
C            0.55472525844167       -0.17956686385405        0.11912437161759
O            0.66350231801076       -1.38382108169077        0.30111511586586
O            1.61436320572702        0.65692456695912        0.07521255097207
C            2.91699038100871        0.03794298963621        0.24178462439501
H           -4.13965123655714       -0.09408703473877        0.18723753769691
H           -3.28951260598279        1.39356397027819        0.63809276109592
H           -3.32338448115338        0.87143421073218       -1.05459098755059
H           -1.97318715886185       -1.17080585024517       -0.44226997204210
H           -1.92993662989743       -0.64206061667442        1.23587440229936
H           -0.71704150854174        1.46497394209840        0.52103273742581
H           -0.74077712858442        0.90028555904127       -1.13745145572696
H            3.62904982713230        0.86103148262536        0.23103893475483
H            3.11515347077210       -0.64903754810564       -0.58461662237203
H            2.96334251826525       -0.49601002482029        1.19270547612056
17
 energy: -346.938723178805 gnorm: 0.002321066642 xtb: 6.7.1 (edcfbbe)
C           -3.25447564118179        0.51601097277039       -0.02099387239990
C           -1.97409382947582       -0.28210928607334        0.20339363201057
C           -0.73647222434443        0.55748019561242       -0.09102801135271
C            0.55450483284052       -0.18001664069680        0.11669696211106
O            0.66584362471307       -1.38463515691965        0.27866460418881
O            1.61292760794156        0.65748745145347        0.08865591722668
C            2.91586508479715        0.03758565880219        0.24404672911904
H           -4.13897858937790       -0.09348910675860        0.18938752293724
H           -3.28975253542958        1.39652944479999        0.63054761275311
H           -3.32364597732203        0.86391569103673       -1.05792473338981
H           -1.97158299374410       -1.17154747443491       -0.43629948885100
H           -1.93094750319130       -0.63736112097104        1.23974207921926
H           -0.71603856109931        1.46546928076216        0.52310652618309
H           -0.74176510380585        0.90126537827109       -1.13510718688086
H            3.62941484587164        0.85987450250129        0.22702070092164
H            3.10700706645654       -0.65023018489187       -0.58318443953256
H            2.97018532803140       -0.49533887519824        1.19559175525028
17
 energy: -346.938726834675 gnorm: 0.000743798039 xtb: 6.7.1 (edcfbbe)
C           -3.25426504803555        0.51588497989139       -0.02150383059287
C           -1.97396502182439       -0.28194400282271        0.20377937592749
C           -0.73642693004554        0.55774282882101       -0.09010352752592
C            0.55432066675617       -0.18037798526669        0.11634947597014
O            0.66688676671537       -1.38468915146052        0.27408320496080
O            1.61228043651188        0.65765002749132        0.09202609589732
C            2.91516682452507        0.03749204245884        0.24431762422338
H           -4.13852218568641       -0.09328683129266        0.18947254357061
H           -3.28979399097668        1.39694653388168        0.62879710832004
H           -3.32359349848120        0.86242570528700       -1.05857469023571
H           -1.97102255508609       -1.17139806885190       -0.43562000565118
H           -1.93143196229108       -0.63683499456240        1.24007178346606
H           -0.71612028046782        1.46538754865559        0.52428227069471
H           -0.74154520642235        0.90197402392027       -1.13383163779897
H            3.62967228534288        0.85935843938449        0.22420581770869
H            3.10396006066759       -0.65160289324315       -0.58246475371645
H            2.97239495641628       -0.49383764076346        1.19702936207318
17
 energy: -346.938726834675 gnorm: 0.000743798039 xtb: 6.7.1 (edcfbbe)
C           -3.25426504803555        0.51588497989139       -0.02150383059287
C           -1.97396502182439       -0.28194400282271        0.20377937592749
C           -0.73642693004554        0.55774282882101       -0.09010352752592
C            0.55432066675617       -0.18037798526669        0.11634947597014
O            0.66688676671537       -1.38468915146052        0.27408320496080
O            1.61228043651188        0.65765002749132        0.09202609589732
C            2.91516682452507        0.03749204245884        0.24431762422338
H           -4.13852218568641       -0.09328683129266        0.18947254357061
H           -3.28979399097668        1.39694653388168        0.62879710832004
H           -3.32359349848120        0.86242570528700       -1.05857469023571
H           -1.97102255508609       -1.17139806885190       -0.43562000565118
H           -1.93143196229108       -0.63683499456240        1.24007178346606
H           -0.71612028046782        1.46538754865559        0.52428227069471
H           -0.74154520642235        0.90197402392027       -1.13383163779897
H            3.62967228534288        0.85935843938449        0.22420581770869
H            3.10396006066759       -0.65160289324315       -0.58246475371645
H            2.97239495641628       -0.49383764076346        1.19702936207318
