
                                 *****************
                                 * O   R   C   A *
                                 *****************

                                            #,                                       
                                            ###                                      
                                            ####                                     
                                            #####                                    
                                            ######                                   
                                           ########,                                 
                                     ,,################,,,,,                         
                               ,,#################################,,                 
                          ,,##########################################,,             
                       ,#########################################, ''#####,          
                    ,#############################################,,   '####,        
                  ,##################################################,,,,####,       
                ,###########''''           ''''###############################       
              ,#####''   ,,,,##########,,,,          '''####'''          '####       
            ,##' ,,,,###########################,,,                        '##       
           ' ,,###''''                  '''############,,,                           
         ,,##''                                '''############,,,,        ,,,,,,###''
      ,#''                                            '''#######################'''  
     '                                                          ''''####''''         
             ,#######,   #######,   ,#######,      ##                                
            ,#'     '#,  ##    ##  ,#'     '#,    #''#        ,####,   ,####,        
            ##       ##  ##   ,#'  ##            #'  '#       #'       #'  '#        
            ##       ##  #######   ##           ,######,      #####,   #    #        
            '#,     ,#'  ##    ##  '#,     ,#' ,#      #,     #,   #   #,  ,#        
             '#######'   ##     ##  '#######'  #'      '#     '####' # '####'        



                #########################################################
                #                        -***-                          #
                #          Department of theory and spectroscopy        #
                #                                                       #
                #                      Frank Neese                      #
                #                                                       #
                #     Directorship, Architecture, Infrastructure        #
                #                    SHARK, DRIVERS                     #
                #        Core code/Algorithms in most modules           #
                #                                                       #
                #        Max Planck Institute fuer Kohlenforschung      #
                #                Kaiser Wilhelm Platz 1                 #
                #                 D-45470 Muelheim/Ruhr                 #
                #                      Germany                          #
                #                                                       #
                #                  All rights reserved                  #
                #                        -***-                          #
                #########################################################


                         Program Version 6.0.0  -   RELEASE  -


 With contributions from (in alphabetic order):
   Daniel Aravena         : Magnetic Suceptibility
   Michael Atanasov       : Ab Initio Ligand Field Theory (pilot matlab implementation)
   Alexander A. Auer      : GIAO ZORA, VPT2 properties, NMR spectrum
   Ute Becker             : All parallelization in ORCA, NUMFREQ, NUMCALC
   Giovanni Bistoni       : ED, misc. LED, open-shell LED, HFLD
   Martin Brehm           : Molecular dynamics
   Dmytro Bykov           : pre 5.0 version of the SCF Hessian
   Marcos Casanova-Páez   : Triplet and SCS-CIS(D). UHF-(DLPNO)-IP/EA/STEOM-CCSD. UHF-CVS-IP/STEOM-CCSD
   Vijay G. Chilkuri      : MRCI spin determinant printing, contributions to CSF-ICE
   Pauline Colinet        : FMM embedding
   Dipayan Datta          : RHF DLPNO-CCSD density
   Achintya Kumar Dutta   : EOM-CC, STEOM-CC
   Nicolas Foglia         : Exact transition moments, OPA infrastructure, MCD improvements
   Dmitry Ganyushin       : Spin-Orbit,Spin-Spin,Magnetic field MRCI
   Miquel Garcia          : C-PCM and meta-GGA Hessian, CCSD/C-PCM, Gaussian charge scheme
   Tiago L. C. Gouveia    : GS-ROHF, GS-ROCIS
   Yang Guo               : DLPNO-NEVPT2, F12-NEVPT2, CIM, IAO-localization
   Andreas Hansen         : Spin unrestricted coupled pair/coupled cluster methods
   Ingolf Harden          : AUTO-CI MPn and infrastructure 
   Benjamin Helmich-Paris : MC-RPA, TRAH-(SCF,CASSCF), AVAS, COSX integrals, SCF dyn. polar.
   Lee Huntington         : MR-EOM, pCC
   Robert Izsak           : Overlap fitted RIJCOSX, COSX-SCS-MP3, EOM
   Riya Kayal             : Wick's Theorem for AUTO-CI, AUTO-CI UHF-CCSDT
   Emily Kempfer          : AUTO-CI, RHF CISDT and CCSDT
   Christian Kollmar      : KDIIS, OOCD, Brueckner-CCSD(T), CCSD density, CASPT2, CASPT2-K, improved NEVPT2
   Axel Koslowski         : Symmetry handling
   Simone Kossmann        : Meta GGA functionals, TD-DFT gradient, OOMP2, (MP2 Hessian; deprecated post 5.0)
   Lucas Lang             : DCDCAS
   Marvin Lechner         : AUTO-CI (C++ implementation), FIC-MRCC
   Spencer Leger          : CASSCF response
   Dagmar Lenk            : GEPOL surface, SMD, ORCA-2-JSON
   Dimitrios Liakos       : Extrapolation schemes; Compound Job, initial MDCI parallelization
   Dimitrios Manganas     : Further ROCIS development; embedding schemes. LFT, Crystal Embedding
   Dimitrios Pantazis     : SARC Basis sets
   Anastasios Papadopoulos: AUTO-CI, single reference methods and gradients
   Taras Petrenko         : pre 6.0 DFT Hessian and TD-DFT gradient, (ASA, deprecated), ECA, 1-Electron XAS/XES, NRVS
   Peter Pinski           : DLPNO-MP2, DLPNO-MP2 Gradient
   Christoph Reimann      : Effective Core Potentials
   Marius Retegan         : Local ZFS, SOC
   Christoph Riplinger    : Optimizer, TS searches, QM/MM, DLPNO-CCSD(T), (RO)-DLPNO pert. Triples
   Michael Roemelt        : Original ROCIS implementation
   Masaaki Saitow         : Open-shell DLPNO-CCSD energy and density
   Barbara Sandhoefer     : DKH picture change effects
   Kantharuban Sivalingam : CASSCF convergence/infrastructure, NEVPT2 and variants, FIC-MRCI
   Bernardo de Souza      : ESD, SOC TD-DFT
   Georgi Stoychev        : AutoAux, RI-MP2 NMR, DLPNO-MP2 response, X2C
   Van Anh Tran           : RI-MP2 g-tensors
   Willem Van den Heuvel  : Paramagnetic NMR
   Zikuan Wang            : NOTCH, Electric field optimization 
   Frank Wennmohs         : Technical directorship and infrastructure
   Hang Xu                : AUTO-CI-Response properties 


 We gratefully acknowledge several colleagues who have allowed us to
 interface, adapt or use parts of their codes:
   Stefan Grimme, W. Hujo, H. Kruse, P. Pracht,  : VdW corrections, initial TS optimization,
                  C. Bannwarth, S. Ehlert,         DFT functionals, gCP, sTDA/sTD-DF
                  L. Wittmann, M. Mueller
   Ed Valeev, F. Pavosevic, A. Kumar             : LibInt (2-el integral package), F12 methods
   Garnet Chan, S. Sharma, J. Yang, R. Olivares  : DMRG
   Ulf Ekstrom                                   : XCFun DFT Library
   Mihaly Kallay                                 : mrcc  (arbitrary order and MRCC methods)
   Frank Weinhold                                : gennbo (NPA and NBO analysis)
   Simon Mueller                                 : openCOSMO-RS
   Christopher J. Cramer and Donald G. Truhlar   : smd solvation model
   Lars Goerigk                                  : TD-DFT with DH, B97 family of functionals
   V. Asgeirsson, H. Jonsson                     : NEB implementation
   FAccTs GmbH                                   : IRC, NEB, NEB-TS, DLPNO-Multilevel, CI-OPT
                                                   MM, QMMM, 2- and 3-layer-ONIOM, Crystal-QMMM,
                                                   LR-CPCM, SF, NACMEs, symmetry and pop. for TD-DFT,
                                                   nearIR, NL-DFT gradient (VV10), updates on ESD,
                                                   ML-optimized integration grids, MBIS, APM,
                                                   GOAT, DOCKER, SOLVATOR, interface openCOSMO-RS
   S Lehtola, MJT Oliveira, MAL Marques          : LibXC Library
   Liviu Ungur et al                             : ANISO software


 Your calculation uses the libint2 library for the computation of 2-el integrals
 For citations please refer to: http://libint.valeyev.net

 Your ORCA version has been built with support for libXC version: 6.2.2
 For citations please refer to: https://libxc.gitlab.io

 This ORCA versions uses:
   CBLAS   interface :  Fast vector & matrix operations
   LAPACKE interface :  Fast linear algebra routines
   SCALAPACK package :  Parallel linear algebra routines
   Shared memory     :  Shared parallel matrices
   BLAS/LAPACK       :  OpenBLAS 0.3.27  USE64BITINT DYNAMIC_ARCH NO_AFFINITY SkylakeX SINGLE_THREADED
        Core in use  :  SkylakeX
   Copyright (c) 2011-2014, The OpenBLAS Project


Your calculation utilizes the geometrical counterpoise correction gCP
Please cite in your paper:
H.Kruse, S. Grimme J.Chem.Phys., 136, (2012), 154101 
   

Your calculation utilizes the atom-pairwise dispersion correction
based on EEQ partial charges (D4)


================================================================================

----- Orbital basis set information -----
Your calculation utilizes the basis: def2-SV(P)
   F. Weigend and R. Ahlrichs, Phys. Chem. Chem. Phys. 7, 3297 (2005).

----- AuxJ basis set information -----
Your calculation utilizes the auxiliary basis: def2/J
   F. Weigend, Phys. Chem. Chem. Phys. 8, 1057 (2006).

================================================================================
                                        WARNINGS
                       Please study these warnings very carefully!
================================================================================


================================================================================
                                       INPUT FILE
================================================================================
NAME = sp.inp
|  1> ! pbe def2-sv(p) def2/J RI DEFGRID1 loosescf d4 GCP(DFT/SV(P)) printgap
|  2> %output
|  3>     printlevel normal
|  4> end
|  5> * xyz 0 1
|  6> C -2.7010956829 -1.1120487735 -0.0037647435
|  7> C -2.3770571705 0.3706589873 -0.1430499151
|  8> C -0.9117959611 0.6543546536 -0.4806751342
|  9> C 0.0697846312 0.2467653692 0.6286107066
| 10> C 0.7288059125 -1.1137898101 0.367400634
| 11> C 1.9352050395 -0.8214177069 -0.542283754
| 12> C 2.1671402167 0.6973802994 -0.4677702968
| 13> C 1.287811737 1.1734384197 0.687842612
| 14> H -3.7656271197 -1.2483662538 0.1737360742
| 15> H -2.435796661 -1.6471073706 -0.913113457
| 16> H -2.1587897409 -1.5510470228 0.8294103661
| 17> H -3.000703107 0.7941594035 -0.9343398191
| 18> H -2.6345580055 0.8837600449 0.7868604421
| 19> H -0.6522141641 0.1426300052 -1.4085631982
| 20> H -0.8171393585 1.7276610472 -0.6621152757
| 21> H -0.4608860911 0.2511831747 1.5846387547
| 22> H 1.070481502 -1.5357606744 1.3139115466
| 23> H 0.0441600916 -1.8251881612 -0.0883364714
| 24> H 2.8127147409 -1.3706046171 -0.2025274468
| 25> H 1.7350034492 -1.1295370127 -1.5681484735
| 26> H 3.2159722241 0.9446723353 -0.3097760125
| 27> H 1.8468267902 1.1749107214 -1.394014023
| 28> H 1.8084308928 1.025732194 1.6358085724
| 29> H 1.0230686444 2.2267319095 0.6046974812
| 30> *
| 31> 
| 32>                          ****END OF INPUT****
================================================================================

                       ****************************
                       * Single Point Calculation *
                       ****************************

---------------------------------
CARTESIAN COORDINATES (ANGSTROEM)
---------------------------------
  C     -2.701096   -1.112049   -0.003765
  C     -2.377057    0.370659   -0.143050
  C     -0.911796    0.654355   -0.480675
  C      0.069785    0.246765    0.628611
  C      0.728806   -1.113790    0.367401
  C      1.935205   -0.821418   -0.542284
  C      2.167140    0.697380   -0.467770
  C      1.287812    1.173438    0.687843
  H     -3.765627   -1.248366    0.173736
  H     -2.435797   -1.647107   -0.913113
  H     -2.158790   -1.551047    0.829410
  H     -3.000703    0.794159   -0.934340
  H     -2.634558    0.883760    0.786860
  H     -0.652214    0.142630   -1.408563
  H     -0.817139    1.727661   -0.662115
  H     -0.460886    0.251183    1.584639
  H      1.070482   -1.535761    1.313912
  H      0.044160   -1.825188   -0.088336
  H      2.812715   -1.370605   -0.202527
  H      1.735003   -1.129537   -1.568148
  H      3.215972    0.944672   -0.309776
  H      1.846827    1.174911   -1.394014
  H      1.808431    1.025732    1.635809
  H      1.023069    2.226732    0.604697

----------------------------
CARTESIAN COORDINATES (A.U.)
----------------------------
  NO LB      ZA    FRAG     MASS         X           Y           Z
   0 C     6.0000    0    12.011   -5.104331   -2.101468   -0.007114
   1 C     6.0000    0    12.011   -4.491987    0.700444   -0.270325
   2 C     6.0000    0    12.011   -1.723045    1.236551   -0.908344
   3 C     6.0000    0    12.011    0.131874    0.466319    1.187902
   4 C     6.0000    0    12.011    1.377244   -2.104758    0.694287
   5 C     6.0000    0    12.011    3.657008   -1.552255   -1.024768
   6 C     6.0000    0    12.011    4.095302    1.317858   -0.883958
   7 C     6.0000    0    12.011    2.433611    2.217477    1.299834
   8 H     1.0000    0     1.008   -7.116004   -2.359070    0.328314
   9 H     1.0000    0     1.008   -4.602989   -3.112582   -1.725534
  10 H     1.0000    0     1.008   -4.079521   -2.931054    1.567358
  11 H     1.0000    0     1.008   -5.670507    1.500744   -1.765646
  12 H     1.0000    0     1.008   -4.978593    1.670064    1.486951
  13 H     1.0000    0     1.008   -1.232506    0.269532   -2.661799
  14 H     1.0000    0     1.008   -1.544170    3.264806   -1.251217
  15 H     1.0000    0     1.008   -0.870948    0.474667    2.994533
  16 H     1.0000    0     1.008    2.022917   -2.902167    2.482933
  17 H     1.0000    0     1.008    0.083450   -3.449106   -0.166932
  18 H     1.0000    0     1.008    5.315261   -2.590067   -0.382721
  19 H     1.0000    0     1.008    3.278681   -2.134516   -2.963371
  20 H     1.0000    0     1.008    6.077307    1.785172   -0.585392
  21 H     1.0000    0     1.008    3.489997    2.220259   -2.634305
  22 H     1.0000    0     1.008    3.417439    1.938353    3.091230
  23 H     1.0000    0     1.008    1.933320    4.207913    1.142713

--------------------------------
INTERNAL COORDINATES (ANGSTROEM)
--------------------------------
 C      0   0   0     0.000000000000     0.00000000     0.00000000
 C      1   0   0     1.524081238151     0.00000000     0.00000000
 C      2   1   0     1.530184443596   113.83616809     0.00000000
 C      3   2   1     1.536276199300   113.78586027   294.81180287
 C      4   3   2     1.534161056459   112.75623179    98.75766541
 C      5   4   3     1.538962633116   105.59871251    84.80871119
 C      6   5   4     1.538211157698   106.09002090    15.06122093
 C      7   6   5     1.528165928196   104.91943534    11.36304613
 H      1   2   3     1.087803371780   110.17500840   183.53853643
 H      1   2   3     1.087927550941   110.50126526   303.13232731
 H      1   2   3     1.086736380579   110.91373774    63.73956288
 H      2   1   3     1.092898242659   108.77347938   120.91071017
 H      2   1   3     1.092846122637   109.20219420   237.88318357
 H      3   2   1     1.090972540639   109.18012351    57.76813465
 H      3   2   1     1.092642215872   107.56053734   174.00120988
 H      4   3   2     1.093444356730   108.67247379   335.05436287
 H      5   4   3     1.091184918540   109.25464757   202.98920734
 H      5   4   3     1.087439112439   112.40005167   322.75714850
 H      6   5   4     1.089524614990   110.56506316   135.70368342
 H      6   5   4     1.089686471459   111.02292221   254.80372754
 H      7   6   5     1.089111621753   112.11247824   133.07832048
 H      7   6   5     1.090212564345   110.30581143   253.30178309
 H      8   7   6     1.091558929501   109.88496168    83.22514530
 H      8   7   6     1.089233305362   112.54299149   203.92885797

---------------------------
INTERNAL COORDINATES (A.U.)
---------------------------
 C      0   0   0     0.000000000000     0.00000000     0.00000000
 C      1   0   0     2.880096145952     0.00000000     0.00000000
 C      2   1   0     2.891629532782   113.83616809     0.00000000
 C      3   2   1     2.903141282739   113.78586027   294.81180287
 C      4   3   2     2.899144242034   112.75623179    98.75766541
 C      5   4   3     2.908217906927   105.59871251    84.80871119
 C      6   5   4     2.906797824192   106.09002090    15.06122093
 C      7   6   5     2.887815091481   104.91943534    11.36304613
 H      1   2   3     2.055650460219   110.17500840   183.53853643
 H      1   2   3     2.055885124826   110.50126526   303.13232731
 H      1   2   3     2.053634139063   110.91373774    63.73956288
 H      2   1   3     2.065278370869   108.77347938   120.91071017
 H      2   1   3     2.065179878303   109.20219420   237.88318357
 H      3   2   1     2.061639321435   109.18012351    57.76813465
 H      3   2   1     2.064794550359   107.56053734   174.00120988
 H      4   3   2     2.066310376902   108.67247379   335.05436287
 H      5   4   3     2.062040657506   109.25464757   202.98920734
 H      5   4   3     2.054962109824   112.40005167   322.75714850
 H      6   5   4     2.058903138496   110.56506316   135.70368342
 H      6   5   4     2.059209002896   111.02292221   254.80372754
 H      7   6   5     2.058122694384   112.11247824   133.07832048
 H      7   6   5     2.060203174373   110.30581143   253.30178309
 H      8   7   6     2.062747435793   109.88496168    83.22514530
 H      8   7   6     2.058352643080   112.54299149   203.92885797

---------------------
BASIS SET INFORMATION
---------------------
There are 2 groups of distinct atoms

 Group   1 Type C   : 7s4p1d contracted to 3s2p1d pattern {511/31/1}
 Group   2 Type H   : 4s contracted to 2s pattern {31}

Atom   0C    basis set group =>   1
Atom   1C    basis set group =>   1
Atom   2C    basis set group =>   1
Atom   3C    basis set group =>   1
Atom   4C    basis set group =>   1
Atom   5C    basis set group =>   1
Atom   6C    basis set group =>   1
Atom   7C    basis set group =>   1
Atom   8H    basis set group =>   2
Atom   9H    basis set group =>   2
Atom  10H    basis set group =>   2
Atom  11H    basis set group =>   2
Atom  12H    basis set group =>   2
Atom  13H    basis set group =>   2
Atom  14H    basis set group =>   2
Atom  15H    basis set group =>   2
Atom  16H    basis set group =>   2
Atom  17H    basis set group =>   2
Atom  18H    basis set group =>   2
Atom  19H    basis set group =>   2
Atom  20H    basis set group =>   2
Atom  21H    basis set group =>   2
Atom  22H    basis set group =>   2
Atom  23H    basis set group =>   2
---------------------------------
AUXILIARY/J BASIS SET INFORMATION
---------------------------------
There are 2 groups of distinct atoms

 Group   1 Type C   : 12s5p4d2f1g contracted to 6s4p3d1f1g pattern {711111/2111/211/2/1}
 Group   2 Type H   : 5s2p1d contracted to 3s1p1d pattern {311/2/1}

Atom   0C    basis set group =>   1
Atom   1C    basis set group =>   1
Atom   2C    basis set group =>   1
Atom   3C    basis set group =>   1
Atom   4C    basis set group =>   1
Atom   5C    basis set group =>   1
Atom   6C    basis set group =>   1
Atom   7C    basis set group =>   1
Atom   8H    basis set group =>   2
Atom   9H    basis set group =>   2
Atom  10H    basis set group =>   2
Atom  11H    basis set group =>   2
Atom  12H    basis set group =>   2
Atom  13H    basis set group =>   2
Atom  14H    basis set group =>   2
Atom  15H    basis set group =>   2
Atom  16H    basis set group =>   2
Atom  17H    basis set group =>   2
Atom  18H    basis set group =>   2
Atom  19H    basis set group =>   2
Atom  20H    basis set group =>   2
Atom  21H    basis set group =>   2
Atom  22H    basis set group =>   2
Atom  23H    basis set group =>   2
------------------------------------------------------------------------------
                             ORCA STARTUP CALCULATIONS
                           -- RI-GTO INTEGRALS CHOSEN --
------------------------------------------------------------------------------
------------------------------------------------------------------------------
                   ___                                                        
                  /   \      - P O W E R E D   B Y -                         
                 /     \                                                     
                 |  |  |   _    _      __       _____    __    __             
                 |  |  |  | |  | |    /  \     |  _  \  |  |  /  |          
                  \  \/   | |  | |   /    \    | | | |  |  | /  /          
                 / \  \   | |__| |  /  /\  \   | |_| |  |  |/  /          
                |  |  |   |  __  | /  /__\  \  |    /   |      \           
                |  |  |   | |  | | |   __   |  |    \   |  |\   \          
                \     /   | |  | | |  |  |  |  | |\  \  |  | \   \       
                 \___/    |_|  |_| |__|  |__|  |_| \__\ |__|  \__/        
                                                                              
                      - O R C A' S   B I G   F R I E N D -                    
                                      &                                       
                       - I N T E G R A L  F E E D E R -                       
                                                                              
 v1 FN, 2020, v2 2021, v3 2022-2024                                           
------------------------------------------------------------------------------


----------------------
SHARK INTEGRAL PACKAGE
----------------------

Number of atoms                             ...     24
Number of basis functions                   ...    144
Number of shells                            ...     80
Maximum angular momentum                    ...      2
Integral batch strategy                     ... SHARK/LIBINT Hybrid
RI-J (if used) integral strategy            ... SPLIT-RIJ (Revised 2003 algorithm where possible)
Printlevel                                  ...      1
Contraction scheme used                     ... SEGMENTED contraction
Prescreening option                         ... SCHWARTZ
   Thresh                                   ... 1.000e-09
   Tcut                                     ... 1.000e-10
   Tpresel                                  ... 1.000e-10 
Coulomb Range Separation                    ... NOT USED
Exchange Range Separation                   ... NOT USED
Multipole approximations                    ... NOT USED
Finite Nucleus Model                        ... NOT USED
CABS basis                                  ... NOT available
Auxiliary Coulomb fitting basis             ... AVAILABLE
   # of basis functions in Aux-J            ...    568
   # of shells in Aux-J                     ...    200
   Maximum angular momentum in Aux-J        ...      4
Auxiliary J/K fitting basis                 ... NOT available
Auxiliary Correlation fitting basis         ... NOT available
Auxiliary 'external' fitting basis          ... NOT available

Checking pre-screening integrals            ... done (  0.0 sec) Dimension = 80
Check shell pair data                       ... done (  0.0 sec)
Shell pair information
Shell pair cut-off parameter TPreSel        ...   1.0e-10
Total number of shell pairs                 ...      3240
Shell pairs after pre-screening             ...      3091
Total number of primitive shell pairs       ...     13032
Primitive shell pairs kept                  ...      8826
          la=0 lb=0:   1508 shell pairs
          la=1 lb=0:    875 shell pairs
          la=1 lb=1:    135 shell pairs
          la=2 lb=0:    415 shell pairs
          la=2 lb=1:    126 shell pairs
          la=2 lb=2:     32 shell pairs

Calculating one electron integrals          ... done (  0.0 sec)
Calculating RI/J V-Matrix + Cholesky decomp.... done (  0.1 sec)
Calculating Nuclear repulsion               ... done (  0.0 sec) ENN=    404.539655516208 Eh

Diagonalization of the overlap matrix:
Smallest eigenvalue                        ... 1.043e-03
Time for diagonalization                   ...    0.002 sec
Threshold for overlap eigenvalues          ... 1.000e-07
Number of eigenvalues below threshold      ... 0
Time for construction of square roots      ...    0.013 sec
Total time needed                          ...    0.026 sec

-------------------
DFT GRID GENERATION
-------------------

General Integration Accuracy     IntAcc      ... 4.159
Radial Grid Type                 RadialGrid  ... OptM3 with GC (2021)
Angular Grid (max. ang.)         AngularGrid ... 3 (Lebedev-194)
Angular grid pruning method      GridPruning ... 4 (adaptive)
Weight generation scheme         WeightScheme... mBecke (2022)
Basis function cutoff            BFCut       ... 1.0000e-10
Integration weight cutoff        WCut        ... 1.0000e-14
Partially contracted basis set               ... off
Rotationally invariant grid construction     ... off
Angular grids for H and He will be reduced by one unit

Total number of grid points                  ...    47877
Total number of batches                      ...      758
Average number of points per batch           ...       63
Average number of grid points per atom       ...     1995
Initializing property integral containers    ... done (  0.0 sec)

SHARK setup successfully completed in   0.8 seconds

Maximum memory used throughout the entire STARTUP-calculation: 22.4 MB
-------------------------------------------------------------------------------
                                 ORCA GUESS
                   Start orbitals & Density for SCF / CASSCF
-------------------------------------------------------------------------------

------------
SCF SETTINGS
------------
Hamiltonian:
 Density Functional     Method          .... DFT(GTOs)
 Exchange Functional    Exchange        .... PBE
   PBE kappa parameter   XKappa         ....  0.804000
   PBE mue parameter    XMuePBE         ....  0.219520
 Correlation Functional Correlation     .... PBE
   PBE beta parameter  CBetaPBE         ....  0.066725
 LDA part of GGA corr.  LDAOpt          .... PW91-LDA
 Gradients option       PostSCFGGA      .... off
   NL short-range parameter             ....  6.400000
 RI-approximation to the Coulomb term is turned on
   Number of AuxJ basis functions       .... 568


General Settings:
 Integral files         IntName         .... sp
 Hartree-Fock type      HFTyp           .... RHF
 Total Charge           Charge          ....    0
 Multiplicity           Mult            ....    1
 Number of Electrons    NEL             ....   64
 Basis Dimension        Dim             ....  144
 Nuclear Repulsion      ENuc            ....    404.5396555162 Eh

Convergence Acceleration:
 AO-DIIS                CNVDIIS         .... on
   Start iteration      DIISMaxIt       ....    12
   Startup error        DIISStart       ....  0.200000
   # of expansion vecs  DIISMaxEq       ....     5
   Bias factor          DIISBfac        ....   1.050
   Max. coefficient     DIISMaxC        ....  10.000
 MO-DIIS                CNVKDIIS        .... off
 Trust-Rad. Augm. Hess. CNVTRAH         .... auto
   Auto Start mean grad. ratio tolernc. ....  1.125000
   Auto Start start iteration           ....    50
   Auto Start num. interpolation iter.  ....    10
   Max. Number of Micro iterations      ....    24
   Max. Number of Macro iterations      .... Maxiter - #DIIS iter
   Number of Davidson start vectors     ....     2
   Converg. threshold    (grad. norm)   ....   1.000e-04
   Grad. Scal. Fac. for Micro threshold ....   0.100
   Minimum threshold for Micro iter.    ....   1.000e-02
   NR start threshold (gradient norm)   ....   1.000e-04
   Initial trust radius                 ....   0.400
   Minimum AH scaling param. (alpha)    ....   1.000
   Maximum AH scaling param. (alpha)    .... 1000.000
   Quad. conv. algorithm                .... NR
   White noise on init. David. guess    .... on
   Maximum white noise                  ....   0.010
   Pseudo random numbers                .... off
   Inactive MOs                         .... canonical
   Orbital update algorithm             .... Taylor
   Preconditioner                       .... Diag
   Full preconditioner red. dimension   ....   250
 SOSCF                  CNVSOSCF        .... on
   Start iteration      SOSCFMaxIt      ....   150
   Startup grad/error   SOSCFStart      ....  0.003300
   Hessian update       SOSCFHessUp     .... L-BFGS
 Level Shifting         CNVShift        .... on
   Level shift para.    LevelShift      ....    0.2500
   Turn off err/grad.   ShiftErr        ....    0.0010
 Zerner damping         CNVZerner       .... off
 Static damping         CNVDamp         .... on
   Fraction old density DampFac         ....    0.7000
   Max. Damping (<1)    DampMax         ....    0.9800
   Min. Damping (>=0)   DampMin         ....    0.0000
   Turn off err/grad.   DampErr         ....    0.1000

SCF Procedure:
 Maximum # iterations   MaxIter         ....   125
 SCF integral mode      SCFMode         .... Direct
   Integral package                     .... SHARK and LIBINT hybrid scheme
 Reset frequency        DirectResetFreq ....    20
 Integral Threshold     Thresh          ....  1.000e-09 Eh
 Primitive CutOff       TCut            ....  1.000e-10 Eh

Convergence Tolerance:
 Convergence Check Mode ConvCheckMode   .... Total+1el-Energy
 Convergence forced     ConvForced      .... 0
 Energy Change          TolE            ....  1.000e-05 Eh
 1-El. energy change                    ....  1.000e-02 Eh
 Orbital Gradient       TolG            ....  1.000e-04
 Orbital Rotation angle TolX            ....  1.000e-04
 DIIS Error             TolErr          ....  5.000e-04

------------------------------
INITIAL GUESS: MODEL POTENTIAL
------------------------------
Loading Hartree-Fock densities                     ... done
Calculating cut-offs                               ... done
Initializing the effective Hamiltonian             ... done
Setting up the integral package (SHARK)            ... done
Starting the Coulomb interaction                   ... done (   0.2 sec)
Making the grid                                    ... done (   0.2 sec)
Mapping shells                                     ... done
Starting the XC term evaluation                    ... done (   0.2 sec)
  promolecular density results
     # of electrons  =     63.998108593
     EX              =    -45.685575006
     EC              =     -2.101035738
     EX+EC           =    -47.786610744
Transforming the Hamiltonian                       ... done (   0.0 sec)
Diagonalizing the Hamiltonian                      ... done (   0.0 sec)
Back transforming the eigenvectors                 ... done (   0.0 sec)
Now organizing SCF variables                       ... done
                      ------------------
                      INITIAL GUESS DONE (   0.7 sec)
                      ------------------
             **** ENERGY FILE WAS UPDATED (sp.en.tmp) ****
Finished Guess after   0.9 sec
Maximum memory used throughout the entire GUESS-calculation: 17.2 MB

-------------------------------------------------------------------------------------------
                                      ORCA LEAN-SCF
                              memory conserving SCF solver
-------------------------------------------------------------------------------------------

----------------------------------------D-I-I-S--------------------------------------------
Iteration    Energy (Eh)           Delta-E    RMSDP     MaxDP     DIISErr   Damp  Time(sec)
-------------------------------------------------------------------------------------------
               ***  Starting incremental Fock matrix formation  ***
    1    -313.5286422785768536     0.00e+00  4.48e-03  8.16e-02  1.63e-01  0.700   1.0
    2    -313.6495947891695550    -1.21e-01  3.20e-03  4.69e-02  7.73e-02  0.700   1.0
                               ***Turning on AO-DIIS***
    3    -313.6901416284817969    -4.05e-02  1.32e-03  1.45e-02  2.16e-02  0.700   1.0
    4    -313.7139910841692654    -2.38e-02  2.00e-03  2.23e-02  8.52e-03  0.000   1.0
    5    -313.7694556135156745    -5.55e-02  5.80e-04  6.25e-03  8.83e-03  0.000   1.0
                              *** Initializing SOSCF ***
---------------------------------------S-O-S-C-F--------------------------------------
Iteration    Energy (Eh)           Delta-E    RMSDP     MaxDP     MaxGrad    Time(sec)
--------------------------------------------------------------------------------------
    6    -313.7702748207212835    -8.19e-04  2.14e-04  2.23e-03  2.22e-03     1.0
               *** Restarting incremental Fock matrix formation ***
    7    -313.7703369855638584    -6.22e-05  1.62e-04  1.62e-03  2.88e-04     1.0
    8    -313.7703350506304787     1.93e-06  5.20e-05  7.41e-04  3.50e-04     0.9
                 **** Energy Check signals convergence ****

               *****************************************************
               *                     SUCCESS                       *
               *           SCF CONVERGED AFTER   8 CYCLES          *
               *****************************************************

             **** ENERGY FILE WAS UPDATED (sp.en.tmp) ****

----------------
TOTAL SCF ENERGY
----------------

Total Energy       :       -313.77033505063048 Eh           -8538.12489 eV

Components:
Nuclear Repulsion  :        404.53965551620752 Eh           11008.08367 eV
Electronic Energy  :       -718.30999056683800 Eh          -19546.20855 eV
One Electron Energy:      -1223.43103786586880 Eh          -33291.25103 eV
Two Electron Energy:        505.12104729903075 Eh           13745.04248 eV

Virial components:
Potential Energy   :       -624.51184483653560 Eh          -16993.83125 eV
Kinetic Energy     :        310.74150978590518 Eh            8455.70636 eV
Virial Ratio       :          2.00974708936316

DFT components:
N(Alpha)           :       32.000066715679 electrons
N(Beta)            :       32.000066715679 electrons
N(Total)           :       64.000133431359 electrons
E(X)               :      -46.879439049938 Eh       
E(C)               :       -2.106995410565 Eh       
E(XC)              :      -48.986434460504 Eh       

---------------
SCF CONVERGENCE
---------------

  Last Energy change         ...   -1.9349e-06  Tolerance :   1.0000e-05
  Last MAX-Density change    ...    7.4127e-04  Tolerance :   1.0000e-03
  Last RMS-Density change    ...    5.2030e-05  Tolerance :   1.0000e-04
  Last DIIS Error            ...    2.2159e-03  Tolerance :   5.0000e-04
  Last Orbital Gradient      ...    3.5041e-04  Tolerance :   1.0000e-04
  Last Orbital Rotation      ...    3.0005e-04  Tolerance :   1.0000e-04


----------------
ORBITAL ENERGIES
----------------

  NO   OCC          E(Eh)            E(eV) 
   0   2.0000      -9.883231      -268.9364 
   1   2.0000      -9.880513      -268.8624 
   2   2.0000      -9.876227      -268.7458 
   3   2.0000      -9.874450      -268.6974 
   4   2.0000      -9.874093      -268.6877 
   5   2.0000      -9.873690      -268.6768 
   6   2.0000      -9.873356      -268.6677 
   7   2.0000      -9.869781      -268.5704 
   8   2.0000      -0.759536       -20.6680 
   9   2.0000      -0.702095       -19.1050 
  10   2.0000      -0.639611       -17.4047 
  11   2.0000      -0.628764       -17.1095 
  12   2.0000      -0.591717       -16.1014 
  13   2.0000      -0.520796       -14.1716 
  14   2.0000      -0.493673       -13.4335 
  15   2.0000      -0.479950       -13.0601 
  16   2.0000      -0.434511       -11.8236 
  17   2.0000      -0.421660       -11.4739 
  18   2.0000      -0.400536       -10.8991 
  19   2.0000      -0.390982       -10.6392 
  20   2.0000      -0.361300        -9.8315 
  21   2.0000      -0.356333        -9.6963 
  22   2.0000      -0.343138        -9.3373 
  23   2.0000      -0.313759        -8.5378 
  24   2.0000      -0.302399        -8.2287 
  25   2.0000      -0.293897        -7.9973 
  26   2.0000      -0.290932        -7.9167 
  27   2.0000      -0.288371        -7.8470 
  28   2.0000      -0.277428        -7.5492 
  29   2.0000      -0.270294        -7.3551 
  30   2.0000      -0.261858        -7.1255 
  31   2.0000      -0.258930        -7.0458 
  32   0.0000       0.028865         0.7855 
  33   0.0000       0.041125         1.1191 
  34   0.0000       0.055716         1.5161 
  35   0.0000       0.070338         1.9140 
  36   0.0000       0.083185         2.2636 
  37   0.0000       0.094618         2.5747 
  38   0.0000       0.097753         2.6600 
  39   0.0000       0.105794         2.8788 
  40   0.0000       0.113148         3.0789 
  41   0.0000       0.121568         3.3080 
  42   0.0000       0.128260         3.4901 
*Only the first 10 virtual orbitals were printed.

                    ********************************
                    * MULLIKEN POPULATION ANALYSIS *
                    ********************************

-----------------------
MULLIKEN ATOMIC CHARGES
-----------------------
   0 C :   -0.291320
   1 C :   -0.180176
   2 C :   -0.118555
   3 C :   -0.202885
   4 C :   -0.122248
   5 C :   -0.152996
   6 C :   -0.161035
   7 C :   -0.126303
   8 H :    0.101256
   9 H :    0.099279
  10 H :    0.115366
  11 H :    0.081933
  12 H :    0.085158
  13 H :    0.078338
  14 H :    0.076896
  15 H :    0.068646
  16 H :    0.073904
  17 H :    0.086251
  18 H :    0.080545
  19 H :    0.080642
  20 H :    0.083985
  21 H :    0.082734
  22 H :    0.075748
  23 H :    0.084836
Sum of atomic charges:    0.0000000

--------------------------------
MULLIKEN REDUCED ORBITAL CHARGES
--------------------------------
  0 C s       :     3.100425  s :     3.100425
      pz      :     1.068243  p :     3.161480
      px      :     1.056811
      py      :     1.036427
      dz2     :     0.004721  d :     0.029415
      dxz     :     0.003750
      dyz     :     0.008910
      dx2y2   :     0.007591
      dxy     :     0.004442

  1 C s       :     3.054347  s :     3.054347
      pz      :     1.027724  p :     3.088569
      px      :     1.026064
      py      :     1.034781
      dz2     :     0.005268  d :     0.037261
      dxz     :     0.007802
      dyz     :     0.008667
      dx2y2   :     0.007439
      dxy     :     0.008085

  2 C s       :     3.035962  s :     3.035962
      pz      :     1.032376  p :     3.046964
      px      :     0.994498
      py      :     1.020090
      dz2     :     0.008035  d :     0.035629
      dxz     :     0.007577
      dyz     :     0.005319
      dx2y2   :     0.010026
      dxy     :     0.004672

  3 C s       :     3.139128  s :     3.139128
      pz      :     1.027641  p :     3.021447
      px      :     0.992818
      py      :     1.000988
      dz2     :     0.008430  d :     0.042310
      dxz     :     0.010829
      dyz     :     0.005510
      dx2y2   :     0.008145
      dxy     :     0.009395

  4 C s       :     3.014003  s :     3.014003
      pz      :     1.035477  p :     3.072620
      px      :     1.009655
      py      :     1.027487
      dz2     :     0.006782  d :     0.035625
      dxz     :     0.007298
      dyz     :     0.007115
      dx2y2   :     0.005403
      dxy     :     0.009027

  5 C s       :     3.023907  s :     3.023907
      pz      :     1.043018  p :     3.094131
      px      :     1.031120
      py      :     1.019993
      dz2     :     0.008791  d :     0.034959
      dxz     :     0.004957
      dyz     :     0.006182
      dx2y2   :     0.006444
      dxy     :     0.008584

  6 C s       :     3.031789  s :     3.031789
      pz      :     1.040368  p :     3.093490
      px      :     1.034247
      py      :     1.018875
      dz2     :     0.008169  d :     0.035756
      dxz     :     0.004691
      dyz     :     0.007982
      dx2y2   :     0.008994
      dxy     :     0.005920

  7 C s       :     3.041426  s :     3.041426
      pz      :     1.035874  p :     3.048272
      px      :     0.994756
      py      :     1.017643
      dz2     :     0.008985  d :     0.036605
      dxz     :     0.009258
      dyz     :     0.003132
      dx2y2   :     0.009112
      dxy     :     0.006117

  8 H s       :     0.898744  s :     0.898744

  9 H s       :     0.900721  s :     0.900721

 10 H s       :     0.884634  s :     0.884634

 11 H s       :     0.918067  s :     0.918067

 12 H s       :     0.914842  s :     0.914842

 13 H s       :     0.921662  s :     0.921662

 14 H s       :     0.923104  s :     0.923104

 15 H s       :     0.931354  s :     0.931354

 16 H s       :     0.926096  s :     0.926096

 17 H s       :     0.913749  s :     0.913749

 18 H s       :     0.919455  s :     0.919455

 19 H s       :     0.919358  s :     0.919358

 20 H s       :     0.916015  s :     0.916015

 21 H s       :     0.917266  s :     0.917266

 22 H s       :     0.924252  s :     0.924252

 23 H s       :     0.915164  s :     0.915164


------------------------
MULLIKEN OVERLAP CHARGES
------------------------
B(  0-C ,  1-C ) :   0.8960 B(  0-C ,  2-C ) :  -0.1249 B(  0-C ,  8-H ) :   0.7213 
B(  0-C ,  9-H ) :   0.7495 B(  0-C , 10-H ) :   0.7570 B(  0-C , 11-H ) :  -0.0505 
B(  0-C , 12-H ) :  -0.0590 B(  1-C ,  2-C ) :   0.8981 B(  1-C ,  3-C ) :  -0.0861 
B(  1-C , 11-H ) :   0.7025 B(  1-C , 12-H ) :   0.7231 B(  2-C ,  3-C ) :   0.7716 
B(  2-C ,  4-C ) :  -0.0828 B(  2-C ,  7-C ) :  -0.1019 B(  2-C , 13-H ) :   0.6977 
B(  2-C , 14-H ) :   0.6765 B(  2-C , 15-H ) :  -0.1047 B(  3-C ,  4-C ) :   0.8734 
B(  3-C ,  5-C ) :  -0.1172 B(  3-C ,  6-C ) :  -0.1432 B(  3-C ,  7-C ) :   0.8595 
B(  3-C , 13-H ) :  -0.0634 B(  3-C , 14-H ) :  -0.0539 B(  3-C , 15-H ) :   0.6963 
B(  3-C , 22-H ) :  -0.0550 B(  4-C ,  5-C ) :   0.8324 B(  4-C ,  6-C ) :  -0.1519 
B(  4-C ,  7-C ) :  -0.1965 B(  4-C , 15-H ) :  -0.0532 B(  4-C , 16-H ) :   0.6401 
B(  4-C , 17-H ) :   0.6792 B(  5-C ,  6-C ) :   0.8332 B(  5-C ,  7-C ) :  -0.1781 
B(  5-C , 18-H ) :   0.6515 B(  5-C , 19-H ) :   0.6596 B(  6-C ,  7-C ) :   0.8696 
B(  6-C , 20-H ) :   0.6649 B(  6-C , 21-H ) :   0.6774 B(  7-C , 15-H ) :  -0.0512 
B(  7-C , 22-H ) :   0.6851 B(  7-C , 23-H ) :   0.6866 B(  9-H , 10-H ) :  -0.0593 
B( 11-H , 12-H ) :  -0.0654 B( 13-H , 14-H ) :  -0.0593 B( 16-H , 17-H ) :  -0.0648 
B( 18-H , 19-H ) :  -0.0673 B( 20-H , 21-H ) :  -0.0694 B( 22-H , 23-H ) :  -0.0648 



                     *******************************
                     * LOEWDIN POPULATION ANALYSIS *
                     *******************************

----------------------
LOEWDIN ATOMIC CHARGES
----------------------
   0 C :   -0.344393
   1 C :   -0.229994
   2 C :   -0.217695
   3 C :   -0.147881
   4 C :   -0.222118
   5 C :   -0.231659
   6 C :   -0.230645
   7 C :   -0.218009
   8 H :    0.118561
   9 H :    0.115752
  10 H :    0.118055
  11 H :    0.114015
  12 H :    0.113171
  13 H :    0.113898
  14 H :    0.114215
  15 H :    0.111657
  16 H :    0.115460
  17 H :    0.115127
  18 H :    0.118250
  19 H :    0.116310
  20 H :    0.116437
  21 H :    0.115798
  22 H :    0.113374
  23 H :    0.112315

-------------------------------
LOEWDIN REDUCED ORBITAL CHARGES
-------------------------------
  0 C s       :     2.945073  s :     2.945073
      pz      :     1.124084  p :     3.328200
      px      :     1.117727
      py      :     1.086389
      dz2     :     0.012531  d :     0.071120
      dxz     :     0.009235
      dyz     :     0.019468
      dx2y2   :     0.019752
      dxy     :     0.010133

  1 C s       :     2.906619  s :     2.906619
      pz      :     1.097938  p :     3.233571
      px      :     1.062506
      py      :     1.073127
      dz2     :     0.013747  d :     0.089804
      dxz     :     0.017824
      dyz     :     0.019211
      dx2y2   :     0.021711
      dxy     :     0.017311

  2 C s       :     2.910329  s :     2.910329
      pz      :     1.081850  p :     3.220305
      px      :     1.050533
      py      :     1.087922
      dz2     :     0.018760  d :     0.087060
      dxz     :     0.019269
      dyz     :     0.013361
      dx2y2   :     0.025632
      dxy     :     0.010038

  3 C s       :     2.882316  s :     2.882316
      pz      :     1.069607  p :     3.162429
      px      :     1.043392
      py      :     1.049431
      dz2     :     0.020626  d :     0.103136
      dxz     :     0.027321
      dyz     :     0.011353
      dx2y2   :     0.017711
      dxy     :     0.026125

  4 C s       :     2.913583  s :     2.913583
      pz      :     1.091992  p :     3.221833
      px      :     1.067307
      py      :     1.062535
      dz2     :     0.015155  d :     0.086702
      dxz     :     0.018358
      dyz     :     0.017107
      dx2y2   :     0.013576
      dxy     :     0.022505

  5 C s       :     2.911262  s :     2.911262
      pz      :     1.095360  p :     3.235794
      px      :     1.078261
      py      :     1.062173
      dz2     :     0.021009  d :     0.084603
      dxz     :     0.013225
      dyz     :     0.012856
      dx2y2   :     0.018710
      dxy     :     0.018804

  6 C s       :     2.909819  s :     2.909819
      pz      :     1.088102  p :     3.234234
      px      :     1.087723
      py      :     1.058409
      dz2     :     0.019760  d :     0.086593
      dxz     :     0.012305
      dyz     :     0.017993
      dx2y2   :     0.023928
      dxy     :     0.012607

  7 C s       :     2.913416  s :     2.913416
      pz      :     1.083872  p :     3.215733
      px      :     1.058356
      py      :     1.073505
      dz2     :     0.021861  d :     0.088860
      dxz     :     0.022904
      dyz     :     0.006619
      dx2y2   :     0.020043
      dxy     :     0.017434

  8 H s       :     0.881439  s :     0.881439

  9 H s       :     0.884248  s :     0.884248

 10 H s       :     0.881945  s :     0.881945

 11 H s       :     0.885985  s :     0.885985

 12 H s       :     0.886829  s :     0.886829

 13 H s       :     0.886102  s :     0.886102

 14 H s       :     0.885785  s :     0.885785

 15 H s       :     0.888343  s :     0.888343

 16 H s       :     0.884540  s :     0.884540

 17 H s       :     0.884873  s :     0.884873

 18 H s       :     0.881750  s :     0.881750

 19 H s       :     0.883690  s :     0.883690

 20 H s       :     0.883563  s :     0.883563

 21 H s       :     0.884202  s :     0.884202

 22 H s       :     0.886626  s :     0.886626

 23 H s       :     0.887685  s :     0.887685


---------------------------------
LOEWDIN BOND ORDERS (THRESH 0.050000)
---------------------------------
B(  0-C ,  1-C ) :   1.1327 B(  0-C ,  2-C ) :   0.0511 B(  0-C ,  8-H ) :   0.9377 
B(  0-C ,  9-H ) :   0.9392 B(  0-C , 10-H ) :   0.9375 B(  1-C ,  2-C ) :   1.0995 
B(  1-C ,  3-C ) :   0.0536 B(  1-C , 11-H ) :   0.9056 B(  1-C , 12-H ) :   0.9058 
B(  2-C ,  3-C ) :   1.0477 B(  2-C ,  4-C ) :   0.0508 B(  2-C ,  7-C ) :   0.0533 
B(  2-C , 13-H ) :   0.9014 B(  2-C , 14-H ) :   0.8975 B(  3-C ,  4-C ) :   1.0535 
B(  3-C ,  5-C ) :   0.0580 B(  3-C ,  6-C ) :   0.0632 B(  3-C ,  7-C ) :   1.0546 
B(  3-C , 15-H ) :   0.8762 B(  4-C ,  5-C ) :   1.0732 B(  4-C ,  6-C ) :   0.0564 
B(  4-C ,  7-C ) :   0.0663 B(  4-C , 16-H ) :   0.9073 B(  4-C , 17-H ) :   0.9078 
B(  5-C ,  6-C ) :   1.0768 B(  5-C ,  7-C ) :   0.0592 B(  5-C , 18-H ) :   0.9158 
B(  5-C , 19-H ) :   0.9161 B(  6-C ,  7-C ) :   1.0852 B(  6-C , 20-H ) :   0.9150 
B(  6-C , 21-H ) :   0.9112 B(  7-C , 22-H ) :   0.9046 B(  7-C , 23-H ) :   0.9082 


------------------------------------------
LOEWDIN REDUCED ORBITAL POPULATIONS PER MO
-------------------------------------------
THRESHOLD FOR PRINTING IS 0.1%%
                      0         1         2         3         4         5   
                  -9.88323  -9.88051  -9.87623  -9.87445  -9.87409  -9.87369
                   2.00000   2.00000   2.00000   2.00000   2.00000   2.00000
                  --------  --------  --------  --------  --------  --------
 0 C  py              0.0       0.1       0.0       0.0       0.0       0.0
 1 C  s               0.0      99.6       0.0       0.0       0.0       0.0
 2 C  s               0.0       0.0      99.6       0.0       0.0       0.0
 3 C  s              99.6       0.0       0.0       0.0       0.0       0.0
 4 C  s               0.0       0.0       0.0       0.1       0.0       0.0
 5 C  s               0.0       0.0       0.0      98.4       1.1       0.0
 5 C  py              0.0       0.0       0.0       0.0       0.1       0.0
 6 C  s               0.0       0.0       0.0       1.1      98.4       0.2
 7 C  s               0.0       0.0       0.0       0.0       0.2      99.5

                      6         7         8         9        10        11   
                  -9.87336  -9.86978  -0.75954  -0.70210  -0.63961  -0.62876
                   2.00000   2.00000   2.00000   2.00000   2.00000   2.00000
                  --------  --------  --------  --------  --------  --------
 0 C  s               0.0      99.7       0.5      13.3      12.4       0.4
 0 C  px              0.0       0.0       0.1       0.2       0.0       0.0
 0 C  py              0.0       0.0       0.2       2.3       0.1       0.0
 1 C  s               0.0       0.0       1.9      23.2       3.2       0.3
 1 C  px              0.0       0.0       0.6       0.6       2.4       0.1
 1 C  py              0.0       0.1       0.0       0.6       2.3       0.0
 1 C  dx2y2           0.0       0.0       0.0       0.0       0.1       0.0
 2 C  s               0.0       0.0       6.1      13.0       4.8       0.0
 2 C  pz              0.0       0.0       0.8       0.2       0.6       0.0
 2 C  px              0.0       0.0       0.4       2.7       2.9       0.1
 2 C  py              0.0       0.0       0.2       0.2       0.0       0.4
 3 C  s               0.0       0.0      16.2       0.6      11.2       0.6
 3 C  pz              0.0       0.0       0.7       0.5       0.0       0.1
 3 C  px              0.0       0.0       1.2       3.7       0.3       0.4
 3 C  py              0.1       0.0       0.0       0.1       0.7       8.1
 3 C  dxy             0.0       0.0       0.0       0.0       0.0       0.2
 4 C  s              99.5       0.0      11.3       0.8       0.0      19.6
 4 C  pz              0.0       0.0       0.1       0.1       1.2       0.1
 4 C  px              0.0       0.0       0.1       1.0       3.2       0.0
 4 C  py              0.0       0.0       2.5       0.0       1.0       0.3
 5 C  s               0.1       0.0       9.1       4.1      12.1       4.0
 5 C  pz              0.0       0.0       0.7       0.1       0.1       0.6
 5 C  px              0.1       0.0       0.8       0.0       0.3       2.3
 5 C  py              0.0       0.0       0.9       0.4       0.2       4.4
 5 C  dx2y2           0.0       0.0       0.0       0.0       0.0       0.2
 6 C  s               0.0       0.0       9.5       4.4       6.2      10.4
 6 C  pz              0.0       0.0       0.7       0.1       0.5       0.9
 6 C  px              0.0       0.0       1.2       0.1       0.4       0.1
 6 C  py              0.0       0.0       0.5       0.3       2.0       3.3
 7 C  s               0.0       0.0      11.8       1.4       1.8      14.7
 7 C  pz              0.0       0.0       0.7       0.2       0.7       0.5
 7 C  px              0.0       0.0       0.2       0.7       3.6       1.2
 7 C  py              0.0       0.0       1.9       0.1       0.0       0.5
 8 H  s               0.0       0.1       0.1       2.4       3.1       0.1
 9 H  s               0.0       0.1       0.1       2.6       2.8       0.1
10 H  s               0.0       0.1       0.2       2.5       2.6       0.0
11 H  s               0.0       0.0       0.3       4.4       0.9       0.1
12 H  s               0.0       0.0       0.3       4.4       0.6       0.1
13 H  s               0.0       0.0       1.2       2.4       0.8       0.1
14 H  s               0.0       0.0       1.1       2.3       1.4       0.0
15 H  s               0.0       0.0       2.5       0.3       2.7       0.1
16 H  s               0.1       0.0       1.8       0.2       0.0       4.8
17 H  s               0.1       0.0       1.8       0.0       0.0       5.4
18 H  s               0.0       0.0       1.3       0.8       3.1       1.0
19 H  s               0.0       0.0       1.4       0.7       2.9       1.1
20 H  s               0.0       0.0       1.3       0.8       1.6       2.8
21 H  s               0.0       0.0       1.6       0.7       1.3       2.7
22 H  s               0.0       0.0       1.9       0.3       0.4       3.3
23 H  s               0.0       0.0       1.7       0.2       0.6       4.1

                     12        13        14        15        16        17   
                  -0.59172  -0.52080  -0.49367  -0.47995  -0.43451  -0.42166
                   2.00000   2.00000   2.00000   2.00000   2.00000   2.00000
                  --------  --------  --------  --------  --------  --------
 0 C  s              13.0       6.2       0.3       0.3       0.0       0.0
 0 C  pz              0.1       0.0       0.0       0.6       0.9       1.2
 0 C  px              0.2       0.0       0.1       0.0       1.2       0.1
 0 C  py              0.9       7.6       0.2       1.1       0.7       0.5
 0 C  dx2y2           0.0       0.1       0.0       0.0       0.0       0.0
 1 C  s               1.1      13.2       0.2       0.7       0.4       0.2
 1 C  pz              0.6       0.0       0.0       3.5       1.5       3.2
 1 C  px              3.3       2.4       0.0       0.7       3.6       1.5
 1 C  py              5.3       4.6       0.0       0.1       0.0       0.1
 1 C  dz2             0.0       0.1       0.0       0.0       0.0       0.0
 1 C  dx2y2           0.2       0.0       0.0       0.0       0.0       0.0
 2 C  s              11.9       3.2       0.1       3.0       0.3       1.0
 2 C  pz              0.9       0.2       0.0      10.4       2.1       2.2
 2 C  px              0.6       8.0       0.2       0.0       0.7       1.2
 2 C  py              0.5       0.2       0.9       0.4       0.2       0.0
 2 C  dx2y2           0.0       0.1       0.0       0.1       0.0       0.0
 3 C  s               2.2       1.0       0.0       9.3       0.1       0.0
 3 C  pz              2.9       2.5       0.2       4.8       5.2       1.6
 3 C  px              3.3       2.4       0.1       2.2       9.2       0.5
 3 C  py              0.4       0.1       7.2       0.0       0.1       0.8
 4 C  s               2.2       1.7       4.4       3.1       0.3       0.3
 4 C  pz              1.5       0.7       1.9       0.4       1.8       6.7
 4 C  px              0.8       0.7       4.8       0.3       0.5       2.7
 4 C  py              0.1       0.6       0.4       5.3      10.1       2.4
 4 C  dxz             0.0       0.0       0.1       0.1       0.0       0.0
 5 C  s               4.3       0.0      10.1       0.5       0.2       0.0
 5 C  pz              0.9       1.2       1.0       1.1       0.2       9.3
 5 C  px              0.8       0.2       1.2       2.1       5.6       5.5
 5 C  py              0.2       0.7       4.9       1.6       4.1       1.0
 6 C  s               2.6       0.8       9.3       0.7       0.3       0.0
 6 C  pz              1.5       2.0       1.1       2.1       0.1       6.6
 6 C  px              0.4       0.0       1.1       0.7      10.3       4.8
 6 C  py              0.9       0.1       4.9       1.9       1.9       3.3
 6 C  dx2y2           0.0       0.0       0.1       0.0       0.0       0.0
 7 C  s               4.1       2.8       2.9       3.5       0.3       0.3
 7 C  pz              1.3       1.7       4.0       0.0       3.2       3.1
 7 C  px              0.4       0.5       2.8       2.2       0.9       2.7
 7 C  py              0.1       0.1       0.5       3.6       7.4       8.5
 7 C  dxz             0.0       0.0       0.1       0.0       0.0       0.0
 7 C  dxy             0.0       0.0       0.0       0.1       0.1       0.0
 8 H  s               4.2       2.4       0.2       0.1       0.2       0.0
 9 H  s               3.6       3.8       0.1       0.9       0.0       0.8
10 H  s               4.1       3.7       0.0       0.0       1.2       0.0
11 H  s               0.4       7.2       0.1       0.0       2.1       0.0
12 H  s               0.3       6.9       0.0       2.3       0.0       2.0
13 H  s               3.5       2.5       0.0       5.1       0.4       1.1
14 H  s               4.0       0.9       0.4       2.9       0.2       0.2
15 H  s               0.9       0.1       0.0       9.8       3.8       0.1
16 H  s               0.9       1.6       2.3       1.7       2.7       1.0
17 H  s               0.6       0.2       3.0       3.5       2.3       4.2
18 H  s               1.3       0.0       6.7       0.2       3.3       1.7
19 H  s               1.6       0.2       5.9       0.3       0.3       4.7
20 H  s               0.9       0.2       5.6       0.4       5.0       1.7
21 H  s               1.1       1.0       5.8       0.3       0.1       4.1
22 H  s               1.6       2.4       1.8       2.0       1.7       1.6
23 H  s               0.8       0.9       2.0       3.6       2.6       5.2

                     18        19        20        21        22        23   
                  -0.40054  -0.39098  -0.36130  -0.35633  -0.34314  -0.31376
                   2.00000   2.00000   2.00000   2.00000   2.00000   2.00000
                  --------  --------  --------  --------  --------  --------
 0 C  s               0.3       0.0       0.0       0.0       0.0       0.0
 0 C  pz              3.8      14.8       1.7       3.6      10.7       6.0
 0 C  px              7.9       5.1      18.9       0.0       0.1      12.6
 0 C  py              1.6       0.1       1.4       5.5       7.1       2.2
 0 C  dz2             0.0       0.0       0.1       0.0       0.1       0.1
 0 C  dxz             0.0       0.1       0.0       0.0       0.0       0.2
 0 C  dyz             0.0       0.0       0.0       0.0       0.1       0.1
 0 C  dx2y2           0.1       0.0       0.1       0.1       0.0       0.1
 0 C  dxy             0.0       0.0       0.0       0.0       0.0       0.2
 1 C  s               0.3       0.0       0.1       0.1       0.0       0.0
 1 C  pz              3.2      17.9       0.5       0.0       0.5       2.3
 1 C  px              1.7       4.7       8.0       0.7       0.3       5.7
 1 C  py              5.1       0.2       0.1       5.8       5.3       2.5
 1 C  dz2             0.0       0.0       0.0       0.0       0.0       0.1
 1 C  dxz             0.0       0.1       0.0       0.0       0.1       0.1
 1 C  dyz             0.0       0.0       0.0       0.0       0.0       0.1
 1 C  dxy             0.1       0.0       0.0       0.0       0.0       0.2
 2 C  s               0.3       0.2       0.2       0.1       0.1       0.9
 2 C  pz              0.4       2.0       0.7       2.5      11.0       3.5
 2 C  px              0.9       0.0       6.8       3.3       0.6       1.3
 2 C  py             21.8       1.1       0.8       4.5       3.7       0.5
 2 C  dxy             0.0       0.0       0.1       0.0       0.0       0.0
 3 C  s               0.1       1.0       0.3       0.4       0.1       0.4
 3 C  pz              0.0       4.6       2.2       5.7       1.0       0.3
 3 C  px              0.3       0.1       0.5       1.0       1.1       4.2
 3 C  py              2.4       0.2       0.8       1.0       0.4       0.0
 3 C  dyz             0.1       0.0       0.0       0.0       0.0       0.0
 3 C  dx2y2           0.0       0.1       0.0       0.0       0.0       0.1
 4 C  s               0.4       0.0       0.0       0.0       0.1       0.0
 4 C  pz              3.5       2.0       3.4       0.0      10.2       0.0
 4 C  px              4.3       0.3       4.4       1.3       1.2       5.7
 4 C  py              0.6       0.3       0.1       0.1       0.1       0.2
 5 C  pz              4.6       2.6       0.3       9.9       0.4       0.0
 5 C  px              0.2       0.5       0.4       4.4       1.1       6.0
 5 C  py              0.0       0.3       0.3       2.7       0.1       0.1
 6 C  pz              0.0       6.1       2.7       1.5       6.0       0.1
 6 C  px              0.1       0.4       8.7       0.1       1.2       2.0
 6 C  py              0.0       0.5       0.0       1.2       0.2       0.1
 7 C  s               0.5       0.1       0.0       0.0       0.0       0.0
 7 C  pz              2.8       0.2       2.6       9.6       0.5       0.8
 7 C  px              1.6       3.4       2.2       1.7       0.7       4.2
 7 C  py              0.1       0.5       0.0       3.4       0.3       0.0
 7 C  dz2             0.0       0.0       0.0       0.1       0.0       0.1
 8 H  s               5.4       1.1       8.9       0.3       0.2       6.0
 9 H  s               0.6       3.2       3.8       0.1       9.2       0.2
10 H  s               0.4       5.7       1.4       3.2       0.7      12.3
11 H  s               0.0       8.0       0.4       0.0       0.6       7.3
12 H  s               2.2       3.5       0.6       0.3       0.0       0.0
13 H  s               1.9       0.1       2.1       0.1       8.8       0.2
14 H  s              10.2       0.4       0.0       2.6       0.5       0.2
15 H  s               0.1       2.4       0.2       0.8       0.1       0.5
16 H  s               3.7       0.9       2.4       0.2       4.8       1.1
17 H  s               0.6       0.0       1.3       0.3       3.6       1.6
18 H  s               0.2       0.1       0.1       6.7       0.4       2.7
19 H  s               2.3       1.0       0.1       4.3       0.2       0.1
20 H  s               0.0       0.2       4.6       0.3       1.2       1.0
21 H  s               0.1       2.6       2.5       0.4       3.6       0.6
22 H  s               2.6       0.3       2.1       6.5       0.1       1.8
23 H  s               0.0       0.3       0.2       2.5       0.3       0.2

                     24        25        26        27        28        29   
                  -0.30240  -0.29390  -0.29093  -0.28837  -0.27743  -0.27029
                   2.00000   2.00000   2.00000   2.00000   2.00000   2.00000
                  --------  --------  --------  --------  --------  --------
 0 C  s               0.3       0.1       0.0       0.0       0.2       0.0
 0 C  pz              2.8       8.1       0.0       0.0       0.0       1.3
 0 C  px              4.5       0.1       0.3       0.5       0.0       1.3
 0 C  py             10.7       6.1       0.2       0.3       1.5       0.5
 0 C  dyz             0.0       0.5       0.0       0.0       0.0       0.1
 0 C  dx2y2           0.3       0.0       0.0       0.0       0.0       0.1
 1 C  s               0.1       0.0       0.0       0.0       0.1       0.3
 1 C  pz              3.1      12.8       0.0       0.1       0.3       2.7
 1 C  px              1.8       0.5       0.0       0.0       0.8       4.9
 1 C  py             10.4       6.6       0.1       0.1       1.5       0.4
 1 C  dz2             0.0       0.1       0.0       0.0       0.1       0.1
 1 C  dyz             0.0       0.6       0.0       0.0       0.0       0.0
 1 C  dx2y2           0.3       0.0       0.0       0.0       0.0       0.1
 2 C  s               0.0       0.0       0.0       0.0       0.1       0.4
 2 C  pz              0.0       0.3       0.2       0.1       2.1       8.5
 2 C  px              4.8       2.2       0.0       0.0       0.6       2.5
 2 C  py              5.0       1.5       0.0       0.0       3.2       1.2
 2 C  dz2             0.0       0.0       0.0       0.0       0.3       0.2
 2 C  dyz             0.0       0.0       0.0       0.0       0.2       0.0
 2 C  dx2y2           0.1       0.0       0.0       0.0       0.0       0.4
 2 C  dxy             0.1       0.1       0.0       0.0       0.0       0.0
 3 C  s               0.0       0.0       0.5       0.0       0.1       0.2
 3 C  pz              0.3       3.0       0.2       0.0       3.0       9.2
 3 C  px              2.2       0.9       0.8       0.6       1.3       2.9
 3 C  py              7.1       2.0       0.6       0.9       6.9       1.0
 3 C  dz2             0.0       0.0       0.0       0.0       0.2       0.3
 3 C  dxz             0.1       0.1       0.0       0.0       0.0       0.6
 3 C  dx2y2           0.0       0.0       0.1       0.0       0.1       0.0
 3 C  dxy             0.0       0.0       0.0       0.2       0.2       0.0
 4 C  s               0.0       0.0       0.1       1.1       0.2       0.1
 4 C  pz              0.0       4.5       0.9       2.7       9.0       0.0
 4 C  px              0.0       0.8       3.5       8.5       1.6       0.4
 4 C  py              3.7       1.2       0.0      11.6       6.5       0.0
 4 C  dxz             0.1       0.1       0.1       0.2       0.0       0.1
 4 C  dx2y2           0.0       0.0       0.0       0.0       0.1       0.0
 4 C  dxy             0.1       0.1       0.1       0.1       0.3       0.0
 5 C  s               0.2       0.1       0.3       0.2       0.0       0.3
 5 C  pz              0.7       0.9       0.1       3.0      13.2       0.1
 5 C  px              0.2       3.8       2.0      10.4       0.1       2.4
 5 C  py              0.5       0.1      28.5       0.1       0.4       0.3
 5 C  dz2             0.0       0.0       0.1       0.0       0.3       0.0
 5 C  dxz             0.0       0.0       0.0       0.3       0.0       0.0
 5 C  dyz             0.0       0.0       0.0       0.0       0.2       0.1
 5 C  dx2y2           0.0       0.0       0.2       0.2       0.0       0.0
 5 C  dxy             0.1       0.1       0.1       0.1       0.0       0.0
 6 C  s               0.0       0.2       0.1       0.4       0.2       0.2
 6 C  pz              0.8       1.4       0.7       4.1       3.1       9.9
 6 C  px              3.5       0.1       0.0      13.2       1.2       0.3
 6 C  py              1.2       0.0      28.2       0.5       0.6       0.0
 6 C  dz2             0.0       0.0       0.2       0.1       0.0       0.1
 6 C  dxz             0.0       0.0       0.0       0.1       0.0       0.0
 6 C  dyz             0.0       0.0       0.0       0.1       0.3       0.2
 6 C  dx2y2           0.1       0.0       0.4       0.0       0.0       0.0
 6 C  dxy             0.1       0.0       0.0       0.2       0.0       0.0
 7 C  s               0.0       0.0       0.0       0.9       0.0       0.1
 7 C  pz              4.2       0.7       1.1       4.6       2.5       6.2
 7 C  px              2.5       0.1       1.3       2.8       0.9       3.0
 7 C  py              4.9       0.1      10.2       7.9       0.6       2.1
 7 C  dz2             0.0       0.0       0.1       0.2       0.1       0.0
 7 C  dxz             0.1       0.1       0.0       0.0       0.0       0.3
 7 C  dx2y2           0.1       0.0       0.3       0.1       0.1       0.0
 7 C  dxy             0.0       0.0       0.2       0.0       0.0       0.1
 8 H  s               4.4       0.4       0.2       0.3       0.0       1.8
 9 H  s               0.4      10.4       0.1       0.2       0.3       1.2
10 H  s               1.3       1.5       0.2       0.2       0.1       0.1
11 H  s               2.2       1.4       0.0       0.0       0.2       0.2
12 H  s               0.1      15.4       0.1       0.2       1.7       2.4
13 H  s               0.1       1.9       0.2       0.0       4.9       4.4
14 H  s               3.6       0.7       0.1       0.0       2.5       1.8
15 H  s               1.3       2.6       0.2       0.1       4.0      11.5
16 H  s               0.4       1.1       0.3       1.0       1.7       0.0
17 H  s               1.6       0.7       0.9       5.8       3.5       0.3
18 H  s               1.2       1.3       1.0       2.2       0.4       1.5
19 H  s               0.1       0.2       2.4       0.5       9.7       0.7
20 H  s               1.8       0.3       1.3       7.4       1.1       0.0
21 H  s               0.0       0.7       1.8       0.2       3.3       4.2
22 H  s               1.3       0.9       0.0       0.0       0.8       3.1
23 H  s               2.6       0.0       9.1       5.0       0.8       0.9

                     30        31        32        33        34        35   
                  -0.26186  -0.25893   0.02887   0.04112   0.05572   0.07034
                   2.00000   2.00000   0.00000   0.00000   0.00000   0.00000
                  --------  --------  --------  --------  --------  --------
 0 C  s               0.1       0.0       2.7       0.5       7.1       6.2
 0 C  pz              0.1       0.6       0.0       1.0       0.5       0.5
 0 C  px              1.0       1.6       0.0       0.2       0.6       0.4
 0 C  py              2.3       1.1       0.7       0.1       1.0       2.3
 0 C  dx2y2           0.0       0.0       0.1       0.0       0.3       0.1
 0 C  dxy             0.0       0.1       0.0       0.0       0.0       0.1
 1 C  s               0.1       0.1       1.1       0.8       7.6       0.7
 1 C  pz              0.0       2.5       0.0       1.0       0.3       0.3
 1 C  px              2.3       6.6       0.9       0.2       1.1       0.6
 1 C  py              1.8       0.7       0.3       0.1       2.1       0.2
 1 C  dz2             0.0       0.0       0.0       0.0       0.1       0.0
 1 C  dxz             0.1       0.4       0.1       0.0       0.0       0.0
 1 C  dx2y2           0.1       0.0       0.0       0.1       0.0       0.2
 1 C  dxy             0.0       0.2       0.0       0.0       0.1       0.3
 2 C  s               0.0       0.2       3.6       0.4       0.1       1.6
 2 C  pz              0.2       5.2       2.1       2.4       0.2       0.1
 2 C  px              1.5      10.9       0.3       0.4       0.2       0.1
 2 C  py              6.9       1.2       0.2       0.2       0.8       5.9
 2 C  dz2             0.1       0.1       0.0       0.2       0.0       0.0
 2 C  dxz             0.0       0.2       0.0       0.0       0.1       0.0
 2 C  dyz             0.2       0.0       0.0       0.0       0.0       0.0
 2 C  dx2y2           0.3       0.0       0.0       0.3       0.2       0.0
 3 C  s               0.0       0.0       1.9       0.9       0.6       0.1
 3 C  pz              0.1       5.2       0.7       2.5       1.5       0.0
 3 C  px              2.2      10.6       0.2       0.6       0.4       0.0
 3 C  py             10.0       1.4       0.0       0.0       0.1       0.2
 3 C  dz2             0.0       0.1       0.0       0.5       0.0       0.0
 3 C  dxz             0.0       0.2       0.1       0.4       0.0       0.0
 3 C  dxy             0.3       0.1       0.0       0.0       0.1       0.1
 4 C  s               0.1       0.2       3.1       0.5       0.0       1.6
 4 C  pz              1.0       2.7       0.2       2.9       0.0       0.1
 4 C  px              1.5       5.7       0.0       1.4       0.2       0.3
 4 C  py              4.7       1.1       1.8       0.1       0.1       2.9
 4 C  dz2             0.1       0.1       0.0       0.2       0.0       0.0
 4 C  dxz             0.0       0.0       0.2       0.0       0.1       0.0
 4 C  dyz             0.0       0.4       0.0       0.4       0.0       0.0
 4 C  dxy             0.0       0.1       0.1       0.0       0.0       0.0
 5 C  s               0.1       0.0       3.8       0.0       3.3       0.2
 5 C  pz              3.5       0.5       0.8       2.6       0.5       0.3
 5 C  px              1.3       2.3       0.5       1.7       0.2       0.2
 5 C  py              0.5       0.6       0.8       0.1       1.1       0.3
 5 C  dz2             0.1       0.1       0.1       0.5       0.0       0.0
 5 C  dxz             0.0       0.0       0.2       0.0       0.1       0.0
 5 C  dyz             0.1       0.0       0.1       0.1       0.0       0.0
 5 C  dxy             0.2       0.0       0.2       0.2       0.0       0.0
 6 C  s               0.1       0.0       3.3       0.0       2.4       0.7
 6 C  pz              2.4       0.0       0.9       1.0       0.8       1.0
 6 C  px              4.1       0.1       0.3       2.3       0.4       0.0
 6 C  py              0.9       0.2       0.3       0.0       0.4       0.5
 6 C  dz2             0.2       0.0       0.0       0.4       0.0       0.0
 6 C  dyz             0.1       0.0       0.2       0.2       0.0       0.0
 6 C  dx2y2           0.2       0.0       0.1       0.2       0.0       0.0
 7 C  s               0.4       0.2       3.1       1.0       0.5       1.4
 7 C  pz              2.1       1.0       0.6       1.5       0.1       0.0
 7 C  px              8.8       4.3       0.3       0.6       0.1       0.1
 7 C  py              0.7       0.2       1.0       0.9       0.1       3.8
 7 C  dz2             0.3       0.1       0.0       0.4       0.1       0.0
 7 C  dxz             0.1       0.1       0.1       0.1       0.0       0.0
 7 C  dxy             0.0       0.0       0.1       0.1       0.0       0.1
 8 H  s               1.0       1.3       1.9       0.6       9.7       1.1
 9 H  s               0.0       0.0       3.4       2.6       1.7      13.9
10 H  s               0.0       2.6       1.4       0.6       5.3       4.5
11 H  s               0.2       8.4       1.9       2.5       8.1       0.9
12 H  s               0.6       0.4       1.5       0.4      13.4       3.3
13 H  s               2.2       0.1       6.6       4.2       1.7       1.3
14 H  s               7.0       1.1       4.7       1.9       1.3      15.5
15 H  s               0.2       0.1       2.8      10.1       5.2       0.0
16 H  s               3.4       6.3       5.4       9.4       0.0       1.5
17 H  s               0.1       2.8       3.7       2.5       0.2       7.4
18 H  s               4.1       2.6       4.9       6.1       4.2       0.8
19 H  s               2.5       0.8       6.7       6.4       5.6       1.2
20 H  s               4.5       0.1       3.8       5.2       3.0       0.5
21 H  s               5.4       0.0       4.7       4.7       4.1       4.0
22 H  s               5.0       2.9       4.3       9.2       0.6       0.3
23 H  s               0.1       0.4       4.4       0.9       0.1       9.7

                     36        37        38        39        40        41   
                   0.08318   0.09462   0.09775   0.10579   0.11315   0.12157
                   0.00000   0.00000   0.00000   0.00000   0.00000   0.00000
                  --------  --------  --------  --------  --------  --------
 0 C  s               0.9       0.1       5.4       0.4       0.1       0.1
 0 C  pz              1.7       1.5       0.1       4.7       1.1       1.1
 0 C  px              1.0       1.1       1.1       1.4       4.5       9.3
 0 C  py              0.4       0.3       0.3       0.4       0.1       0.6
 0 C  dz2             0.1       0.3       0.1       0.2       0.1       0.4
 0 C  dxz             0.0       0.0       0.0       0.0       0.3       0.0
 0 C  dyz             0.2       0.2       0.0       0.1       0.0       0.0
 0 C  dx2y2           0.1       0.0       0.0       0.0       0.1       0.3
 1 C  s               4.3       0.5       1.1       0.1       1.0       0.3
 1 C  pz              2.3       5.0       0.9       0.4       3.7       1.0
 1 C  px              1.8       0.7       0.0       0.3       0.6       0.8
 1 C  py              0.3       0.2       0.3       0.0       0.3       0.2
 1 C  dz2             0.0       0.1       0.0       0.0       0.0       0.0
 1 C  dxz             0.1       0.0       0.0       0.0       0.3       0.1
 1 C  dyz             0.2       0.2       0.0       0.1       0.0       0.0
 1 C  dx2y2           0.1       0.1       0.1       0.0       0.0       0.1
 1 C  dxy             0.0       0.3       0.1       0.2       0.1       0.3
 2 C  s               2.4       0.1       0.5       0.7       2.5       0.1
 2 C  pz              0.5       0.1       0.6       1.1       0.9       0.0
 2 C  px              0.5       0.0       0.6       0.2       0.1       1.1
 2 C  py              0.6       3.8       0.1       1.1       0.4       0.8
 2 C  dz2             0.3       0.0       0.0       0.1       0.0       0.1
 2 C  dxz             0.0       0.1       0.0       0.0       0.2       0.2
 2 C  dyz             0.0       0.1       0.1       0.3       0.1       0.0
 2 C  dx2y2           0.0       0.5       0.1       0.1       0.1       0.0
 2 C  dxy             0.0       0.0       0.2       0.0       0.0       0.1
 3 C  s               0.9       0.3       0.4       0.2       0.2       1.2
 3 C  pz              0.4       2.2       1.1       0.5       0.5       0.1
 3 C  px              0.7       0.2       0.1       0.2       0.4       0.0
 3 C  py              0.1       1.6       0.6       1.7       0.9       0.1
 3 C  dz2             0.1       0.1       0.0       0.0       0.0       0.0
 3 C  dxz             0.2       0.2       0.0       0.1       0.0       0.0
 3 C  dyz             0.1       0.0       0.3       0.0       0.0       0.0
 3 C  dx2y2           0.1       0.2       0.0       0.2       0.0       0.3
 3 C  dxy             0.0       0.3       0.0       0.6       0.7       0.0
 4 C  s               1.7       5.5       0.8       1.7       0.7       0.0
 4 C  pz              0.5       0.5       2.0       0.6       1.6       0.3
 4 C  px              0.4       0.1       0.3       0.3       2.4       0.8
 4 C  py              0.3       0.1       1.3       0.7       0.4       0.5
 4 C  dxz             0.0       0.0       0.3       0.0       0.4       0.0
 4 C  dyz             0.1       0.1       0.0       0.0       0.3       0.0
 4 C  dx2y2           0.0       0.0       0.0       0.0       0.1       0.2
 4 C  dxy             0.2       0.1       0.0       0.1       0.0       0.0
 5 C  s               1.4       0.4       2.5       4.1       2.9       0.1
 5 C  pz              1.1       1.4       0.2       0.1       0.1       2.5
 5 C  px              1.2       0.8       0.1       3.2       0.6       0.8
 5 C  py              0.6       0.6       0.1       0.6       0.9       0.1
 5 C  dz2             0.2       0.1       0.1       0.0       0.1       0.1
 5 C  dxz             0.0       0.1       0.0       0.0       0.2       0.1
 5 C  dyz             0.3       0.0       0.0       0.0       0.0       0.1
 5 C  dx2y2           0.0       0.2       0.0       0.1       0.0       0.0
 5 C  dxy             0.1       0.0       0.0       0.0       0.0       0.1
 6 C  s               0.0       2.9       8.8       0.1       0.6       0.1
[...]
 0 C  py              0.0       2.2       0.1       0.0       0.4       0.1
 0 C  dz2             0.0       3.8       0.2       0.1       0.2       0.1
 0 C  dyz             0.0       0.4       0.1       0.4       0.0       0.0
 0 C  dx2y2           0.0      11.3       0.1       0.1       2.0       0.1
 0 C  dxy             0.0       1.9       0.7       1.4       0.6       0.1
 1 C  s               0.0       0.8       0.0       0.4       0.4       0.1
 1 C  pz              0.0       0.0       0.0       0.2       0.0       0.0
 1 C  px              0.0       0.1       0.2       0.8       2.1       0.2
 1 C  py              0.0       1.7       0.2       0.2       0.5       0.0
 1 C  dz2             0.0       5.0       0.1       0.2       1.0       0.2
 1 C  dxz             0.1       0.0       0.2       5.3       0.6       0.0
 1 C  dyz             0.0       0.4       0.2       0.4       0.2       0.0
 1 C  dx2y2           0.0      13.5       3.0       5.2      13.1       1.2
 1 C  dxy             0.1       3.9       0.5       3.4       0.1       0.1
 2 C  s               0.0       0.5       0.4       1.5       0.0       0.0
 2 C  pz              0.0       0.6       0.3       0.2       0.5       0.0
 2 C  px              0.0       0.0       0.2       0.2       4.4       0.3
 2 C  py              0.0       0.4       0.1       0.0       0.0       0.0
 2 C  dz2             0.0       2.9       1.1       3.8       4.9       0.4
 2 C  dxz             0.2       3.6       0.0       1.1      15.8       1.1
 2 C  dyz             0.6       0.6       2.8       0.1       1.2       0.4
 2 C  dx2y2           0.1       1.3       2.3      19.5       1.7       0.0
 2 C  dxy             0.1       1.3       0.3       0.1       6.6       0.4
 3 C  s               0.1       0.5       0.1       0.5       0.1       0.0
 3 C  pz              0.0       0.3       0.0       0.1       0.4       0.1
 3 C  px              0.1       0.2       0.1       1.6       2.5       0.6
 3 C  py              0.8       0.0       0.7       0.0       0.4       2.6
 3 C  dz2             0.0       1.9       4.3      13.5       3.3       0.5
 3 C  dxz             0.7       5.7       1.2       0.0      13.5       0.0
 3 C  dyz             2.4       2.6       0.4       5.6       1.3       0.2
 3 C  dx2y2           0.5       2.3       6.6       1.1       5.0       3.3
 3 C  dxy            10.9       3.6       3.6       2.1       0.9      19.0
 4 C  s               1.4       0.1       0.9       0.1       0.0       0.0
 4 C  pz              0.0       0.1       0.1       0.2       0.1       0.5
 4 C  px              0.1       0.2       0.0       0.6       0.5       1.3
 4 C  py              1.6       0.0       0.6       0.0       0.4       0.6
 4 C  dz2             1.6       0.2       0.6       1.3       1.0       1.1
 4 C  dxz             0.7       0.7       8.9       3.6       0.1       1.4
 4 C  dyz             1.2       5.7       2.8       0.4       0.0       1.3
 4 C  dx2y2           6.0       2.1       0.2       2.5       1.3       5.4
 4 C  dxy             0.0       0.3       6.1       0.2       3.6       4.9
 5 C  s               0.8       0.2       0.3       0.1       0.0       0.0
 5 C  pz              0.0       0.3       0.0       0.2       0.1       0.3
 5 C  px              0.0       0.1       0.1       0.3       0.2       0.7
 5 C  py              1.6       0.0       0.6       0.1       0.2       1.0
 5 C  dz2             4.2       0.3       0.1       0.0       0.3       1.3
 5 C  dxz             0.5       0.7       2.5       2.4       0.9       2.8
 5 C  dyz             0.6       0.2       6.7       0.9       0.0       0.2
 5 C  dx2y2          11.2       1.2       1.7       2.2       1.8       7.3
 5 C  dxy            11.2       0.4       6.3       0.7       0.0       0.0
 6 C  s               0.3       0.3       0.3       0.1       0.1       0.0
 6 C  pz              0.3       0.2       0.2       0.0       0.0       0.7
 6 C  px              0.0       0.3       0.2       0.1       0.2       0.4
 6 C  py              1.9       0.0       0.6       0.1       0.2       1.3
 6 C  dz2             5.0       0.5       0.4       0.0       0.1       3.1
 6 C  dxz             0.7       1.2       1.7       0.1       0.0       4.0
 6 C  dyz             1.3       0.6       8.9       0.5       0.0       0.2
 6 C  dx2y2          21.6       0.1       0.1       0.0       1.0       4.6
 6 C  dxy             0.1       0.5       6.3       0.2       0.0       1.5
 7 C  s               1.3       0.1       0.4       0.4       0.2       0.1
 7 C  pz              0.2       0.3       0.3       0.0       0.1       0.5
 7 C  px              0.1       0.1       0.1       0.6       0.1       2.6
 7 C  py              1.2       0.0       0.2       0.3       0.1       0.2
 7 C  dz2             0.2       0.5       1.1       3.2       0.0       4.5
 7 C  dxz             0.0       2.3       6.2       0.9       0.4       3.4
 7 C  dyz             3.5       0.9       0.0       0.2       0.7       0.6
 7 C  dx2y2           0.2       2.1       0.9       0.0       1.4       0.2
 7 C  dxy             0.3       0.1       1.1       6.1       0.2      10.6
 8 H  s               0.0       0.2       0.0       0.0       0.1       0.0
10 H  s               0.0       0.1       0.0       0.0       0.0       0.0
11 H  s               0.0       0.2       0.0       0.1       0.1       0.0
12 H  s               0.0       0.2       0.0       0.0       0.0       0.0
13 H  s               0.0       0.0       0.3       0.2       0.0       0.0
14 H  s               0.0       0.3       0.0       0.5       0.0       0.0
15 H  s               0.0       0.6       0.1       0.4       0.0       0.0
16 H  s               0.1       0.1       0.4       0.0       0.0       0.0
17 H  s               0.1       0.4       0.4       0.1       0.0       0.0
18 H  s               0.7       0.1       0.1       0.0       0.0       0.0
19 H  s               0.2       0.1       0.3       0.1       0.0       0.0
20 H  s               0.5       0.1       0.1       0.0       0.1       0.0
21 H  s               0.1       0.0       0.3       0.0       0.0       0.0
22 H  s               0.0       0.0       0.1       0.3       0.0       0.0
23 H  s               0.1       0.1       0.3       0.0       0.1       0.0



                      *****************************
                      * MAYER POPULATION ANALYSIS *
                      *****************************

  NA   - Mulliken gross atomic population
  ZA   - Total nuclear charge
  QA   - Mulliken gross atomic charge
  VA   - Mayer's total valence
  BVA  - Mayer's bonded valence
  FA   - Mayer's free valence

  ATOM       NA         ZA         QA         VA         BVA        FA
  0 C      6.2913     6.0000    -0.2913     4.0160     4.0160    -0.0000
  1 C      6.1802     6.0000    -0.1802     4.1926     4.1926    -0.0000
  2 C      6.1186     6.0000    -0.1186     4.0280     4.0280     0.0000
  3 C      6.2029     6.0000    -0.2029     4.1934     4.1934     0.0000
  4 C      6.1222     6.0000    -0.1222     4.1081     4.1081     0.0000
  5 C      6.1530     6.0000    -0.1530     4.1676     4.1676     0.0000
  6 C      6.1610     6.0000    -0.1610     4.1678     4.1678     0.0000
  7 C      6.1263     6.0000    -0.1263     4.0715     4.0715     0.0000
  8 H      0.8987     1.0000     0.1013     0.9484     0.9484    -0.0000
  9 H      0.9007     1.0000     0.0993     0.9574     0.9574     0.0000
 10 H      0.8846     1.0000     0.1154     0.9534     0.9534    -0.0000
 11 H      0.9181     1.0000     0.0819     0.9425     0.9425    -0.0000
 12 H      0.9148     1.0000     0.0852     0.9463     0.9463     0.0000
 13 H      0.9217     1.0000     0.0783     0.9596     0.9596     0.0000
 14 H      0.9231     1.0000     0.0769     0.9565     0.9565    -0.0000
 15 H      0.9314     1.0000     0.0686     0.9532     0.9532     0.0000
 16 H      0.9261     1.0000     0.0739     0.9447     0.9447     0.0000
 17 H      0.9137     1.0000     0.0863     0.9631     0.9631    -0.0000
 18 H      0.9195     1.0000     0.0805     0.9440     0.9440     0.0000
 19 H      0.9194     1.0000     0.0806     0.9460     0.9460    -0.0000
 20 H      0.9160     1.0000     0.0840     0.9446     0.9446     0.0000
 21 H      0.9173     1.0000     0.0827     0.9461     0.9461     0.0000
 22 H      0.9243     1.0000     0.0757     0.9456     0.9456     0.0000
 23 H      0.9152     1.0000     0.0848     0.9537     0.9537     0.0000

  Mayer bond orders larger than 0.100000
B(  0-C ,  1-C ) :   1.1571 B(  0-C ,  8-H ) :   0.9498 B(  0-C ,  9-H ) :   0.9503 
B(  0-C , 10-H ) :   0.9463 B(  1-C ,  2-C ) :   1.1414 B(  1-C , 11-H ) :   0.9254 
B(  1-C , 12-H ) :   0.9252 B(  2-C ,  3-C ) :   1.0435 B(  2-C , 13-H ) :   0.9166 
B(  2-C , 14-H ) :   0.9184 B(  3-C ,  4-C ) :   1.0944 B(  3-C ,  7-C ) :   1.0757 
B(  3-C , 15-H ) :   0.9082 B(  4-C ,  5-C ) :   1.1555 B(  4-C , 16-H ) :   0.9141 
B(  4-C , 17-H ) :   0.9181 B(  5-C ,  6-C ) :   1.1598 B(  5-C , 18-H ) :   0.9228 
B(  5-C , 19-H ) :   0.9231 B(  6-C ,  7-C ) :   1.1435 B(  6-C , 20-H ) :   0.9268 
B(  6-C , 21-H ) :   0.9184 B(  7-C , 22-H ) :   0.9213 B(  7-C , 23-H ) :   0.9229 


-------
TIMINGS
-------

Total SCF time: 0 days 0 hours 0 min 8 sec 

Total time                  ....       8.231 sec
Sum of individual times     ....       7.795 sec  ( 94.7%)

SCF preparation             ....       0.172 sec  (  2.1%)
Fock matrix formation       ....       6.920 sec  ( 84.1%)
  Startup                   ....       0.054 sec  (  0.8% of F)
  Split-RI-J                ....       2.576 sec  ( 37.2% of F)
  XC integration            ....       3.863 sec  ( 55.8% of F)
    Basis function eval.    ....       1.414 sec  ( 36.6% of XC)
    Density eval.           ....       0.565 sec  ( 14.6% of XC)
    XC-Functional eval.     ....       0.315 sec  (  8.2% of XC)
    XC-Potential eval.      ....       0.934 sec  ( 24.2% of XC)
Diagonalization             ....       0.000 sec  (  0.0%)
Density matrix formation    ....       0.158 sec  (  1.9%)
Total Energy calculation    ....       0.024 sec  (  0.3%)
Population analysis         ....       0.078 sec  (  0.9%)
Orbital Transformation      ....       0.044 sec  (  0.5%)
Orbital Orthonormalization  ....       0.000 sec  (  0.0%)
DIIS solution               ....       0.323 sec  (  3.9%)
  MO trafo                  ....       0.000 sec  (  0.0 % of DIIS)
  Orb grad                  ....       0.000 sec  (  0.0 % of DIIS)
  Energy W gradient         ....       0.000 sec  (  0.0 % of DIIS)
  DIIS error                ....       0.003 sec  (  0.9 % of DIIS)
  DIIS work                 ....       0.283 sec  ( 87.5 % of DIIS)
  Form Q                    ....       0.000 sec  (  0.0 % of DIIS)
  Form QpQm                 ....       0.000 sec  (  0.0 % of DIIS)
  Exp/Cayley                ....       0.000 sec  (  0.0 % of DIIS)
  Orb update                ....       0.000 sec  (  0.0 % of DIIS)
  Wake-sleep                ....       0.013 sec  (  4.1 % of DIIS)
SOSCF solution              ....       0.075 sec  (  0.9%)
  MO trafo                  ....       0.041 sec  ( 54.9 % of SOSCF)
  Orb grad                  ....       0.001 sec  (  1.4 % of SOSCF)
  Rot update                ....       0.014 sec  ( 18.9 % of SOSCF)
  Step                      ....       0.019 sec  ( 24.7 % of SOSCF)
Finished LeanSCF after   8.3 sec

Maximum memory used throughout the entire LEANSCF-calculation: 14.5 MB


-------------------------------------------------------------------------------
                          DFT DISPERSION CORRECTION                            
                                                                               
                                DFTD4 V3.4.0                                   
-------------------------------------------------------------------------------
The PBE functional is recognized
Active option DFTDOPT                   ...         5   

-------------------------   ----------------
Dispersion correction           -0.021512341
-------------------------   ----------------

------------------   -----------------
gCP correction             0.102287656
------------------   -----------------

-------------------------   --------------------
FINAL SINGLE POINT ENERGY      -313.689559736038
-------------------------   --------------------


------------------------------------------------------------------------------
                              ORCA PROPERTY CALCULATIONS
------------------------------------------------------------------------------

GBWName                                 ... sp.gbw
Number of atoms                         ...     24
Number of basis functions               ...    144
Max core memory                         ...   1024 MB

Electric properties:
Dipole moment                           ... YES
Quadrupole moment                       ...  NO
Static polarizability (Dipole/Dipole)   ...  NO
Static polarizability (Dipole/Quad.)    ...  NO
Static polarizability (Quad./Quad.)     ...  NO
Static polarizability (Velocity)        ...  NO

Atomic electric properties:
Dipole moment                           ...  NO
Quadrupole moment                       ...  NO
Static polarizability                   ...  NO

Choice of electric origin               ... Center of mass
Position of electric origin             ...    -0.000004    -0.000002    -0.000001

General magnetic properties:
Magnetizability                         ...  NO

EPR properties:
g-Tensor (aka g-matrix)                 ...  NO
Zero-Field splitting spin-orbit         ...  NO
Zero-field splitting spin-spin          ...  NO
Hyperfine couplings                     ...  NO (   0 nuclei)
Quadrupole couplings                    ...  NO (   0 nuclei)
Contact density                         ...  NO (   0 nuclei)

NMR properties:
Chemical shifts                         ...  NO (   0 nuclei)
Spin-rotation constants                 ...  NO (   0 nuclei)
Spin-spin couplings                     ...  NO (   0 nuclei,    0 pairs)

Choice of magnetic origin               ... GIAO
Position of magnetic origin             ...     0.000000     0.000000     0.000000

Properties with geometric perturbations:
SCF Hessian                             ...  NO
IR spectrum                             ...  NO
VCD spectrum                            ...  NO
X-ray spectroscopy properties:
SCF XES/XAS/RIXS spectra                ...  NO


-------------
DIPOLE MOMENT
-------------

Method             : SCF
Type of density    : Electron Density
Multiplicity       :   1
Irrep              :   0
Energy             :  -313.7703350506304787 Eh
Relativity type    : 
Basis              : AO
                                X                 Y                 Z
Electronic contribution:      2.194594280       1.073447213       0.529657426
Nuclear contribution   :     -2.222560696      -1.065912960      -0.517744918
                        -----------------------------------------
Total Dipole Moment    :     -0.027966416       0.007534252       0.011912508
                        -----------------------------------------
Magnitude (a.u.)       :      0.031317618
Magnitude (Debye)      :      0.079603059



--------------------
Rotational spectrum 
--------------------
 
Rotational constants in cm-1:             0.128869             0.041274             0.036443 
Rotational constants in MHz :          3863.405079          1237.360170          1092.539149 

Dipole components along the rotational axes: 
x,y,z [a.u.] :    -0.026880     0.011762     0.010950 
x,y,z [Debye]:    -0.068324     0.029898     0.027832 

 

Dipole moment calculation done in   0.0 sec 

Maximum memory used throughout the entire PROP-calculation: 9.0 MB

--------------------------------
SUGGESTED CITATIONS FOR THIS RUN
--------------------------------

Below you find a list of papers that are relevant to this ORCA run
We neither can nor want to force you to cite these papers, but we appreciate if you do
You receive ORCA, which is the product of decades of hard work by many enthusiastic individuals, for free
The only thing we kindly ask in return is that you cite our papers,
We deeply appreciate it, if you show your appreciation for ORCA by not just citing the generic ORCA reference.

Please note that relegating all ORCA citations to the supporting information does *not* help us.
SI sections are not indexed - citations you put there will not count into any citation statistics
But we need these citations in order to attract the funding resources that allow us to do what we are doing

Therefore, if you are a happy ORCA user, please consider citing a few of the papers listed below in the main body of your paper

In addition to the list printed below, the program has created the file sp.bibtex that contains the list in bibtex format
You can import this file easily into all common literature databanks and citation aid programs


List of essential papers. We consider these as the minimum necessary citations

  1. Neese,F.
     Software update: the ORCA program system, version 5.0
     WIRES Comput. Molec. Sci., 2022 12(1)e1606
     doi.org/10.1002/wcms.1606

List of papers to cite with high priority. The work reported in these papers was absolutely
necessary for this run to complete.
Our perspective: the developers of density functionals and basis sets usually get cited in chemistry papers
Good! But without the algorithms to do something with them, the functionals or basis sets would not do anything.
Hence, in our opinion, the algorithm design and method developments papers are equally worthy of getting cited

  1. Neese,F.
     An improvement of the resolution of the identity approximation for the formation of the Coulomb matrix
     J. Comp. Chem., 2003 24(14)1740-1747
     doi.org/10.1002/jcc.10318
  2. Neese,F.
     The SHARK Integral Generation and Digestion System
     J. Comp. Chem., 2022  1-16
     doi.org/10.1002/jcc.26942
  3. Caldeweyher,E.; Bannwarth,C.; Grimme,S.
     Extension of the D3 dispersion coefficient model
     J. Chem. Phys., 2017 147 034112-XXXX
     doi.org/10.1063/1.4993215
  4. Caldeweyher,E.; Ehlert,S.; Hansen,A.; Neugebauer,H.; Spicher,S.; Bannwarth,C.; Grimme,S.
     A generally applicable atomic-charge dependent London dispersion correction
     J. Chem. Phys., 2019 150 154122-XXXX
     doi.org/10.1063/1.5090222
  5. Caldeweyher,E.; Mewes,J.; Ehlert,S.; Grimme,S.
     Extension and evaluation of the D4 London-dispersion model for periodic systems
     Phys. Chem. Chem. Phys., 2020 22(16)8499-8512
     doi.org/10.1039/D0CP00502A

List of suggested additional citations. These are papers that are important in the 'surrounding' of 
of this run, or papers that preceded the highly important papers. If you like your results we are grateful for a citation.

  1. Neese,F.
     The ORCA program system
     WIRES Comput. Molec. Sci., 2012 2(1)73-78
     doi.org/10.1002/wcms.81
  2. Neese,F.
     Software update: the ORCA program system, version 4.0
     WIRES Comput. Molec. Sci., 2018 8(1)1-6
     doi.org/10.1002/wcms.1327
  3. Neese,F.; Wennmohs,F.; Becker,U.; Riplinger,C.
     The ORCA quantum chemistry program package
     J. Chem. Phys., 2020 152 Art. No. L224108
     doi.org/10.1063/5.0004608

List of optional additional citations

  1. Neese,F.
     Approximate second-order SCF convergence for spin unrestricted wavefunctions
     Chem. Phys. Lett., 2000 325(1-3)93-98
     doi.org/10.1016/s0009-2614(00)00662-x

Timings for individual modules:

Sum of individual times          ...       10.179 sec (=   0.170 min)
Startup calculation              ...        0.823 sec (=   0.014 min)   8.1 %
SCF iterations                   ...        9.265 sec (=   0.154 min)  91.0 %
Property calculations            ...        0.091 sec (=   0.002 min)   0.9 %
                             ****ORCA TERMINATED NORMALLY****
TOTAL RUN TIME: 0 days 0 hours 0 minutes 10 seconds 872 msec
