
                                 *****************
                                 * O   R   C   A *
                                 *****************

                                            #,                                       
                                            ###                                      
                                            ####                                     
                                            #####                                    
                                            ######                                   
                                           ########,                                 
                                     ,,################,,,,,                         
                               ,,#################################,,                 
                          ,,##########################################,,             
                       ,#########################################, ''#####,          
                    ,#############################################,,   '####,        
                  ,##################################################,,,,####,       
                ,###########''''           ''''###############################       
              ,#####''   ,,,,##########,,,,          '''####'''          '####       
            ,##' ,,,,###########################,,,                        '##       
           ' ,,###''''                  '''############,,,                           
         ,,##''                                '''############,,,,        ,,,,,,###''
      ,#''                                            '''#######################'''  
     '                                                          ''''####''''         
             ,#######,   #######,   ,#######,      ##                                
            ,#'     '#,  ##    ##  ,#'     '#,    #''#        ,####,   ,####,        
            ##       ##  ##   ,#'  ##            #'  '#       #'       #'  '#        
            ##       ##  #######   ##           ,######,      #####,   #    #        
            '#,     ,#'  ##    ##  '#,     ,#' ,#      #,     #,   #   #,  ,#        
             '#######'   ##     ##  '#######'  #'      '#     '####' # '####'        



                #########################################################
                #                        -***-                          #
                #          Department of theory and spectroscopy        #
                #                                                       #
                #                      Frank Neese                      #
                #                                                       #
                #     Directorship, Architecture, Infrastructure        #
                #                    SHARK, DRIVERS                     #
                #        Core code/Algorithms in most modules           #
                #                                                       #
                #        Max Planck Institute fuer Kohlenforschung      #
                #                Kaiser Wilhelm Platz 1                 #
                #                 D-45470 Muelheim/Ruhr                 #
                #                      Germany                          #
                #                                                       #
                #                  All rights reserved                  #
                #                        -***-                          #
                #########################################################


                         Program Version 6.0.0  -   RELEASE  -


 With contributions from (in alphabetic order):
   Daniel Aravena         : Magnetic Suceptibility
   Michael Atanasov       : Ab Initio Ligand Field Theory (pilot matlab implementation)
   Alexander A. Auer      : GIAO ZORA, VPT2 properties, NMR spectrum
   Ute Becker             : All parallelization in ORCA, NUMFREQ, NUMCALC
   Giovanni Bistoni       : ED, misc. LED, open-shell LED, HFLD
   Martin Brehm           : Molecular dynamics
   Dmytro Bykov           : pre 5.0 version of the SCF Hessian
   Marcos Casanova-Páez   : Triplet and SCS-CIS(D). UHF-(DLPNO)-IP/EA/STEOM-CCSD. UHF-CVS-IP/STEOM-CCSD
   Vijay G. Chilkuri      : MRCI spin determinant printing, contributions to CSF-ICE
   Pauline Colinet        : FMM embedding
   Dipayan Datta          : RHF DLPNO-CCSD density
   Achintya Kumar Dutta   : EOM-CC, STEOM-CC
   Nicolas Foglia         : Exact transition moments, OPA infrastructure, MCD improvements
   Dmitry Ganyushin       : Spin-Orbit,Spin-Spin,Magnetic field MRCI
   Miquel Garcia          : C-PCM and meta-GGA Hessian, CCSD/C-PCM, Gaussian charge scheme
   Tiago L. C. Gouveia    : GS-ROHF, GS-ROCIS
   Yang Guo               : DLPNO-NEVPT2, F12-NEVPT2, CIM, IAO-localization
   Andreas Hansen         : Spin unrestricted coupled pair/coupled cluster methods
   Ingolf Harden          : AUTO-CI MPn and infrastructure 
   Benjamin Helmich-Paris : MC-RPA, TRAH-(SCF,CASSCF), AVAS, COSX integrals, SCF dyn. polar.
   Lee Huntington         : MR-EOM, pCC
   Robert Izsak           : Overlap fitted RIJCOSX, COSX-SCS-MP3, EOM
   Riya Kayal             : Wick's Theorem for AUTO-CI, AUTO-CI UHF-CCSDT
   Emily Kempfer          : AUTO-CI, RHF CISDT and CCSDT
   Christian Kollmar      : KDIIS, OOCD, Brueckner-CCSD(T), CCSD density, CASPT2, CASPT2-K, improved NEVPT2
   Axel Koslowski         : Symmetry handling
   Simone Kossmann        : Meta GGA functionals, TD-DFT gradient, OOMP2, (MP2 Hessian; deprecated post 5.0)
   Lucas Lang             : DCDCAS
   Marvin Lechner         : AUTO-CI (C++ implementation), FIC-MRCC
   Spencer Leger          : CASSCF response
   Dagmar Lenk            : GEPOL surface, SMD, ORCA-2-JSON
   Dimitrios Liakos       : Extrapolation schemes; Compound Job, initial MDCI parallelization
   Dimitrios Manganas     : Further ROCIS development; embedding schemes. LFT, Crystal Embedding
   Dimitrios Pantazis     : SARC Basis sets
   Anastasios Papadopoulos: AUTO-CI, single reference methods and gradients
   Taras Petrenko         : pre 6.0 DFT Hessian and TD-DFT gradient, (ASA, deprecated), ECA, 1-Electron XAS/XES, NRVS
   Peter Pinski           : DLPNO-MP2, DLPNO-MP2 Gradient
   Christoph Reimann      : Effective Core Potentials
   Marius Retegan         : Local ZFS, SOC
   Christoph Riplinger    : Optimizer, TS searches, QM/MM, DLPNO-CCSD(T), (RO)-DLPNO pert. Triples
   Michael Roemelt        : Original ROCIS implementation
   Masaaki Saitow         : Open-shell DLPNO-CCSD energy and density
   Barbara Sandhoefer     : DKH picture change effects
   Kantharuban Sivalingam : CASSCF convergence/infrastructure, NEVPT2 and variants, FIC-MRCI
   Bernardo de Souza      : ESD, SOC TD-DFT
   Georgi Stoychev        : AutoAux, RI-MP2 NMR, DLPNO-MP2 response, X2C
   Van Anh Tran           : RI-MP2 g-tensors
   Willem Van den Heuvel  : Paramagnetic NMR
   Zikuan Wang            : NOTCH, Electric field optimization 
   Frank Wennmohs         : Technical directorship and infrastructure
   Hang Xu                : AUTO-CI-Response properties 


 We gratefully acknowledge several colleagues who have allowed us to
 interface, adapt or use parts of their codes:
   Stefan Grimme, W. Hujo, H. Kruse, P. Pracht,  : VdW corrections, initial TS optimization,
                  C. Bannwarth, S. Ehlert,         DFT functionals, gCP, sTDA/sTD-DF
                  L. Wittmann, M. Mueller
   Ed Valeev, F. Pavosevic, A. Kumar             : LibInt (2-el integral package), F12 methods
   Garnet Chan, S. Sharma, J. Yang, R. Olivares  : DMRG
   Ulf Ekstrom                                   : XCFun DFT Library
   Mihaly Kallay                                 : mrcc  (arbitrary order and MRCC methods)
   Frank Weinhold                                : gennbo (NPA and NBO analysis)
   Simon Mueller                                 : openCOSMO-RS
   Christopher J. Cramer and Donald G. Truhlar   : smd solvation model
   Lars Goerigk                                  : TD-DFT with DH, B97 family of functionals
   V. Asgeirsson, H. Jonsson                     : NEB implementation
   FAccTs GmbH                                   : IRC, NEB, NEB-TS, DLPNO-Multilevel, CI-OPT
                                                   MM, QMMM, 2- and 3-layer-ONIOM, Crystal-QMMM,
                                                   LR-CPCM, SF, NACMEs, symmetry and pop. for TD-DFT,
                                                   nearIR, NL-DFT gradient (VV10), updates on ESD,
                                                   ML-optimized integration grids, MBIS, APM,
                                                   GOAT, DOCKER, SOLVATOR, interface openCOSMO-RS
   S Lehtola, MJT Oliveira, MAL Marques          : LibXC Library
   Liviu Ungur et al                             : ANISO software


 Your calculation uses the libint2 library for the computation of 2-el integrals
 For citations please refer to: http://libint.valeyev.net

 Your ORCA version has been built with support for libXC version: 6.2.2
 For citations please refer to: https://libxc.gitlab.io

 This ORCA versions uses:
   CBLAS   interface :  Fast vector & matrix operations
   LAPACKE interface :  Fast linear algebra routines
   SCALAPACK package :  Parallel linear algebra routines
   Shared memory     :  Shared parallel matrices
   BLAS/LAPACK       :  OpenBLAS 0.3.27  USE64BITINT DYNAMIC_ARCH NO_AFFINITY SkylakeX SINGLE_THREADED
        Core in use  :  SkylakeX
   Copyright (c) 2011-2014, The OpenBLAS Project


Your calculation utilizes the geometrical counterpoise correction gCP
Please cite in your paper:
H.Kruse, S. Grimme J.Chem.Phys., 136, (2012), 154101 
   

Your calculation utilizes the atom-pairwise dispersion correction
based on EEQ partial charges (D4)


Your calculation utilizes the SMD solvation module
Please cite in your paper:
A.V. Marenich, C.J. Cramer, D.G. Truhlar J. Phys. Chem. B, 113, (2009), 6378 

================================================================================

----- Orbital basis set information -----
Your calculation utilizes the basis: def2-mTZVPP
   Stefan Grimme, Andreas Hansen, Sebastian Ehlert, and Jan-Michael Mewes 
   J. Chem. Phys. 154, 064103 (2021). DOI: 10.1063/5.0040021

----- AuxJ basis set information -----
Your calculation utilizes the auxiliary basis: def2/J
   F. Weigend, Phys. Chem. Chem. Phys. 8, 1057 (2006).

================================================================================
                                        WARNINGS
                       Please study these warnings very carefully!
================================================================================

Using LibXC functional ID 497 : Re-regularized SCAN exchange by Furness et al
[ 1]  J. W. Furness, A. D. Kaplan, J. Ning, J. P. Perdew, and J. Sun.,  J. Phys. Chem. Lett. 11, 8208-8215 (2020)
[ 2]  J. W. Furness, A. D. Kaplan, J. Ning, J. P. Perdew, and J. Sun.,  J. Phys. Chem. Lett. 11, 9248-9248 (2020)
Using LibXC functional ID 498 : Re-regularized SCAN correlation by Furness et al
[ 1]  J. W. Furness, A. D. Kaplan, J. Ning, J. P. Perdew, and J. Sun.,  J. Phys. Chem. Lett. 11, 8208-8215 (2020)
[ 2]  J. W. Furness, A. D. Kaplan, J. Ning, J. P. Perdew, and J. Sun.,  J. Phys. Chem. Lett. 11, 9248-9248 (2020)
Using LibXC functional ID 497 : Re-regularized SCAN exchange by Furness et al
[ 1]  J. W. Furness, A. D. Kaplan, J. Ning, J. P. Perdew, and J. Sun.,  J. Phys. Chem. Lett. 11, 8208-8215 (2020)
[ 2]  J. W. Furness, A. D. Kaplan, J. Ning, J. P. Perdew, and J. Sun.,  J. Phys. Chem. Lett. 11, 9248-9248 (2020)
Using LibXC functional ID 498 : Re-regularized SCAN correlation by Furness et al
[ 1]  J. W. Furness, A. D. Kaplan, J. Ning, J. P. Perdew, and J. Sun.,  J. Phys. Chem. Lett. 11, 8208-8215 (2020)
[ 2]  J. W. Furness, A. D. Kaplan, J. Ning, J. P. Perdew, and J. Sun.,  J. Phys. Chem. Lett. 11, 9248-9248 (2020)

================================================================================
                                       INPUT FILE
================================================================================
NAME = sp_solv.inp
|  1> ! r2scan-3c def2/J RI DEFGRID2 scfconv6 printgap
|  2> %output
|  3>     printlevel normal
|  4> end
|  5> %cpcm
|  6>     smd true
|  7>     smdsolvent "water"
|  8> end
|  9> * xyz 0 1
| 10> C -1.178906924 0.1403438799 -0.4965225317
| 11> C -0.0507009974 0.4961392589 0.4887147606
| 12> C 0.9558736001 -0.6600939404 0.5913940143
| 13> O 1.6560418388 -0.8536564082 -0.6117230973
| 14> O 0.6748425029 1.6328458698 0.0689445889
| 15> O -2.0450402118 -0.8426475521 0.0145527536
| 16> H -0.7389765458 -0.2848844662 -1.4018914504
| 17> H -1.7364790316 1.0467250563 -0.7687050803
| 18> H -0.4800937735 0.6658854465 1.4884500695
| 19> H 0.4195655803 -1.5885845227 0.7947631786
| 20> H 1.6563078209 -0.4544645483 1.4115510196
| 21> H 2.0430412776 -0.0009156075 -0.863039902
| 22> H 0.084721408 2.3943874465 -0.0087599827
| 23> H -2.5235439856 -0.489506801 0.7782693142
| 24> *
| 25> 
| 26>                          ****END OF INPUT****
================================================================================

                       ****************************
                       * Single Point Calculation *
                       ****************************

---------------------------------
CARTESIAN COORDINATES (ANGSTROEM)
---------------------------------
  C     -1.178907    0.140344   -0.496523
  C     -0.050701    0.496139    0.488715
  C      0.955874   -0.660094    0.591394
  O      1.656042   -0.853656   -0.611723
  O      0.674843    1.632846    0.068945
  O     -2.045040   -0.842648    0.014553
  H     -0.738977   -0.284884   -1.401891
  H     -1.736479    1.046725   -0.768705
  H     -0.480094    0.665885    1.488450
  H      0.419566   -1.588585    0.794763
  H      1.656308   -0.454465    1.411551
  H      2.043041   -0.000916   -0.863040
  H      0.084721    2.394387   -0.008760
  H     -2.523544   -0.489507    0.778269

----------------------------
CARTESIAN COORDINATES (A.U.)
----------------------------
  NO LB      ZA    FRAG     MASS         X           Y           Z
   0 C     6.0000    0    12.011   -2.227811    0.265211   -0.938292
   1 C     6.0000    0    12.011   -0.095811    0.937567    0.923537
   2 C     6.0000    0    12.011    1.806339   -1.247397    1.117573
   3 O     8.0000    0    15.999    3.129466   -1.613177   -1.155989
   4 O     8.0000    0    15.999    1.275268    3.085632    0.130286
   5 O     8.0000    0    15.999   -3.864566   -1.592373    0.027501
   6 H     1.0000    0     1.008   -1.396463   -0.538354   -2.649191
   7 H     1.0000    0     1.008   -3.281470    1.978024   -1.452642
   8 H     1.0000    0     1.008   -0.907246    1.258341    2.812763
   9 H     1.0000    0     1.008    0.792864   -3.001990    1.501885
  10 H     1.0000    0     1.008    3.129968   -0.858814    2.667445
  11 H     1.0000    0     1.008    3.860788   -0.001730   -1.630909
  12 H     1.0000    0     1.008    0.160100    4.524737   -0.016554
  13 H     1.0000    0     1.008   -4.768807   -0.925034    1.470716

--------------------------------
INTERNAL COORDINATES (ANGSTROEM)
--------------------------------
 C      0   0   0     0.000000000000     0.00000000     0.00000000
 C      1   0   0     1.539523136127     0.00000000     0.00000000
 C      2   1   0     1.536427889826   110.42336079     0.00000000
 O      3   2   1     1.405415517080   111.88970280    66.64792883
 O      2   1   3     1.412346376474   111.85519078   118.78977760
 O      1   2   3     1.406291923772   112.35322172    71.18515006
 H      1   2   3     1.092726298273   108.97368837   313.91655316
 H      1   2   3     1.098406496643   109.86919172   194.95355325
 H      2   1   3     1.101209613213   109.32128739   241.18513120
 H      3   2   1     1.091366148691   109.31415961   308.69469636
 H      3   2   1     1.097974980546   109.08179853   189.00439209
 H      4   3   2     0.969585259343   107.43418212    53.27377759
 H      5   2   1     0.966553919932   110.14362553    59.29117690
 H      6   1   2     0.967955183138   109.64488535    65.95994657

---------------------------
INTERNAL COORDINATES (A.U.)
---------------------------
 C      0   0   0     0.000000000000     0.00000000     0.00000000
 C      1   0   0     2.909277104116     0.00000000     0.00000000
 C      2   1   0     2.903427936290   110.42336079     0.00000000
 O      3   2   1     2.655850431645   111.88970280    66.64792883
 O      2   1   3     2.668947857773   111.85519078   118.78977760
 O      1   2   3     2.657506600274   112.35322172    71.18515006
 H      1   2   3     2.064953443070   108.97368837   313.91655316
 H      1   2   3     2.075687462376   109.86919172   194.95355325
 H      2   1   3     2.080984585014   109.32128739   241.18513120
 H      3   2   1     2.062383132859   109.31415961   308.69469636
 H      3   2   1     2.074872015130   109.08179853   189.00439209
 H      4   3   2     1.832250603645   107.43418212    53.27377759
 H      5   2   1     1.826522202340   110.14362553    59.29117690
 H      6   1   2     1.829170206040   109.64488535    65.95994657

---------------------
BASIS SET INFORMATION
---------------------
There are 3 groups of distinct atoms

 Group   1 Type C   : 11s6p1d contracted to 5s3p1d pattern {62111/411/1}
 Group   2 Type O   : 11s6p2d contracted to 5s3p2d pattern {62111/411/11}
 Group   3 Type H   : 4s1p contracted to 2s1p pattern {31/1}

Atom   0C    basis set group =>   1
Atom   1C    basis set group =>   1
Atom   2C    basis set group =>   1
Atom   3O    basis set group =>   2
Atom   4O    basis set group =>   2
Atom   5O    basis set group =>   2
Atom   6H    basis set group =>   3
Atom   7H    basis set group =>   3
Atom   8H    basis set group =>   3
Atom   9H    basis set group =>   3
Atom  10H    basis set group =>   3
Atom  11H    basis set group =>   3
Atom  12H    basis set group =>   3
Atom  13H    basis set group =>   3
---------------------------------
AUXILIARY/J BASIS SET INFORMATION
---------------------------------
There are 3 groups of distinct atoms

 Group   1 Type C   : 12s5p4d2f1g contracted to 6s4p3d1f1g pattern {711111/2111/211/2/1}
 Group   2 Type O   : 12s5p4d2f1g contracted to 6s4p3d1f1g pattern {711111/2111/211/2/1}
 Group   3 Type H   : 5s2p1d contracted to 3s1p1d pattern {311/2/1}

Atom   0C    basis set group =>   1
Atom   1C    basis set group =>   1
Atom   2C    basis set group =>   1
Atom   3O    basis set group =>   2
Atom   4O    basis set group =>   2
Atom   5O    basis set group =>   2
Atom   6H    basis set group =>   3
Atom   7H    basis set group =>   3
Atom   8H    basis set group =>   3
Atom   9H    basis set group =>   3
Atom  10H    basis set group =>   3
Atom  11H    basis set group =>   3
Atom  12H    basis set group =>   3
Atom  13H    basis set group =>   3

Checking for AutoStart:
The File: sp_solv.gbw exists
Trying to determine its content:
     ... Fine, the file contains calculation information
     ... Fine, the calculation information was read
     ... Fine, the file contains a basis set
     ... Fine, the basis set was read
     ... Fine, the file contains a geometry
     ... Fine, the geometry was read
     ... Fine, the file contains a set of orbitals
     ... Fine, the orbitals can be read
     => possible old guess file was deleted
     => GBW file was renamed to GES file
     => GES file is set as startup file
     => Guess is set to MORead
     ... now leaving AutoStart

------------------------------------------------------------------------------
                             ORCA STARTUP CALCULATIONS
                           -- RI-GTO INTEGRALS CHOSEN --
------------------------------------------------------------------------------
------------------------------------------------------------------------------
                   ___                                                        
                  /   \      - P O W E R E D   B Y -                         
                 /     \                                                     
                 |  |  |   _    _      __       _____    __    __             
                 |  |  |  | |  | |    /  \     |  _  \  |  |  /  |          
                  \  \/   | |  | |   /    \    | | | |  |  | /  /          
                 / \  \   | |__| |  /  /\  \   | |_| |  |  |/  /          
                |  |  |   |  __  | /  /__\  \  |    /   |      \           
                |  |  |   | |  | | |   __   |  |    \   |  |\   \          
                \     /   | |  | | |  |  |  |  | |\  \  |  | \   \       
                 \___/    |_|  |_| |__|  |__|  |_| \__\ |__|  \__/        
                                                                              
                      - O R C A' S   B I G   F R I E N D -                    
                                      &                                       
                       - I N T E G R A L  F E E D E R -                       
                                                                              
 v1 FN, 2020, v2 2021, v3 2022-2024                                           
------------------------------------------------------------------------------


----------------------
SHARK INTEGRAL PACKAGE
----------------------

Number of atoms                             ...     14
Number of basis functions                   ...    169
Number of shells                            ...     81
Maximum angular momentum                    ...      2
Integral batch strategy                     ... SHARK/LIBINT Hybrid
RI-J (if used) integral strategy            ... SPLIT-RIJ (Revised 2003 algorithm where possible)
Printlevel                                  ...      1
Contraction scheme used                     ... SEGMENTED contraction
Prescreening option                         ... SCHWARTZ
   Thresh                                   ... 1.000e-10
   Tcut                                     ... 1.000e-11
   Tpresel                                  ... 1.000e-11 
Coulomb Range Separation                    ... NOT USED
Exchange Range Separation                   ... NOT USED
Multipole approximations                    ... NOT USED
Finite Nucleus Model                        ... NOT USED
CABS basis                                  ... NOT available
Auxiliary Coulomb fitting basis             ... AVAILABLE
   # of basis functions in Aux-J            ...    382
   # of shells in Aux-J                     ...    130
   Maximum angular momentum in Aux-J        ...      4
Auxiliary J/K fitting basis                 ... NOT available
Auxiliary Correlation fitting basis         ... NOT available
Auxiliary 'external' fitting basis          ... NOT available

Checking pre-screening integrals            ... done (  0.0 sec) Dimension = 81
Check shell pair data                       ... done (  0.0 sec)
Shell pair information
Shell pair cut-off parameter TPreSel        ...   1.0e-11
Total number of shell pairs                 ...      3321
Shell pairs after pre-screening             ...      3132
Total number of primitive shell pairs       ...     11632
Primitive shell pairs kept                  ...      8178
          la=0 lb=0:    993 shell pairs
          la=1 lb=0:   1130 shell pairs
          la=1 lb=1:    338 shell pairs
          la=2 lb=0:    399 shell pairs
          la=2 lb=1:    227 shell pairs
          la=2 lb=2:     45 shell pairs

Calculating one electron integrals          ... done (  0.0 sec)
Calculating RI/J V-Matrix + Cholesky decomp.... done (  0.1 sec)
Calculating Nuclear repulsion               ... done (  0.0 sec) ENN=    264.406178670075 Eh

Diagonalization of the overlap matrix:
Smallest eigenvalue                        ... 1.890e-04
Time for diagonalization                   ...    0.003 sec
Threshold for overlap eigenvalues          ... 1.000e-07
Number of eigenvalues below threshold      ... 0
Time for construction of square roots      ...    0.012 sec
Total time needed                          ...    0.025 sec

-------------------
DFT GRID GENERATION
-------------------

General Integration Accuracy     IntAcc      ... 4.388
Radial Grid Type                 RadialGrid  ... OptM3 with GC (2021)
Angular Grid (max. ang.)         AngularGrid ... 4 (Lebedev-302)
Angular grid pruning method      GridPruning ... 4 (adaptive)
Weight generation scheme         WeightScheme... mBecke (2022)
Basis function cutoff            BFCut       ... 1.0000e-10
Integration weight cutoff        WCut        ... 1.0000e-14
Partially contracted basis set               ... off
Rotationally invariant grid construction     ... off
Angular grids for H and He will be reduced by one unit
Diffuse basis detected: some atoms will have their outermost
                        angular grid increased by 1.

Total number of grid points                  ...    63037
Total number of batches                      ...      993
Average number of points per batch           ...       63
Average number of grid points per atom       ...     4503
Initializing property integral containers    ... done (  0.0 sec)

SHARK setup successfully completed in   1.0 seconds

Maximum memory used throughout the entire STARTUP-calculation: 27.8 MB
-------------------------------------------------------------------------------
                                 ORCA GUESS
                   Start orbitals & Density for SCF / CASSCF
-------------------------------------------------------------------------------

------------
SCF SETTINGS
------------
Hamiltonian:
 Density Functional     Method          .... DFT(GTOs)
  Functional kind                       .... Exchange
  Functional name                       .... Re-regularized SCAN exchange by Furness et al
  Functional family                     .... MGGA
  Functional refs                              
    [ 0] J. W. Furness, A. D. Kaplan, J. Ning, J. P. Perdew, and J. Sun.,  J. Phys. Chem. Lett. 11, 8208-8215 (2020), doi: 10.1021/acs.jpclett.0c02405
    [ 1] J. W. Furness, A. D. Kaplan, J. Ning, J. P. Perdew, and J. Sun.,  J. Phys. Chem. Lett. 11, 9248-9248 (2020), doi: 10.1021/acs.jpclett.0c03077
  Functional external parameters        .... 6
    Parameter  0 _c1        =  6.670000e-01 : c1 parameter        
    Parameter  1 _c2        =  8.000000e-01 : c2 parameter        
    Parameter  2 _d         =  1.240000e+00 : d parameter         
    Parameter  3 _k1        =  6.500000e-02 : k1 parameter        
    Parameter  4 _eta       =  1.000000e-03 : eta parameter       
    Parameter  5 _dp2       =  3.610000e-01 : dp2 parameter       
  Functional kind                       .... Correlation
  Functional name                       .... Re-regularized SCAN correlation by Furness et al
  Functional family                     .... MGGA
  Functional refs                              
    [ 0] J. W. Furness, A. D. Kaplan, J. Ning, J. P. Perdew, and J. Sun.,  J. Phys. Chem. Lett. 11, 8208-8215 (2020), doi: 10.1021/acs.jpclett.0c02405
    [ 1] J. W. Furness, A. D. Kaplan, J. Ning, J. P. Perdew, and J. Sun.,  J. Phys. Chem. Lett. 11, 9248-9248 (2020), doi: 10.1021/acs.jpclett.0c03077
  Functional external parameters        .... 1
    Parameter  0 _eta       =  1.000000e-03 : Regularization parameter
 Gradients option       PostSCFGGA      .... off
 RI-approximation to the Coulomb term is turned on
   Number of AuxJ basis functions       .... 382


General Settings:
 Integral files         IntName         .... sp_solv
 Hartree-Fock type      HFTyp           .... RHF
 Total Charge           Charge          ....    0
 Multiplicity           Mult            ....    1
 Number of Electrons    NEL             ....   50
 Basis Dimension        Dim             ....  169
 Nuclear Repulsion      ENuc            ....    264.4061786701 Eh

Convergence Acceleration:
 AO-DIIS                CNVDIIS         .... on
   Start iteration      DIISMaxIt       ....    12
   Startup error        DIISStart       ....  0.200000
   # of expansion vecs  DIISMaxEq       ....     5
   Bias factor          DIISBfac        ....   1.050
   Max. coefficient     DIISMaxC        ....  10.000
 MO-DIIS                CNVKDIIS        .... off
 Trust-Rad. Augm. Hess. CNVTRAH         .... auto
   Auto Start mean grad. ratio tolernc. ....  1.125000
   Auto Start start iteration           ....     1
   Auto Start num. interpolation iter.  ....    10
   Max. Number of Micro iterations      ....    24
   Max. Number of Macro iterations      .... Maxiter - #DIIS iter
   Number of Davidson start vectors     ....     2
   Converg. threshold    (grad. norm)   ....   3.330e-04
   Grad. Scal. Fac. for Micro threshold ....   0.100
   Minimum threshold for Micro iter.    ....   1.000e-02
   NR start threshold (gradient norm)   ....   1.000e-04
   Initial trust radius                 ....   0.400
   Minimum AH scaling param. (alpha)    ....   1.000
   Maximum AH scaling param. (alpha)    .... 1000.000
   Quad. conv. algorithm                .... NR
   White noise on init. David. guess    .... on
   Maximum white noise                  ....   0.010
   Pseudo random numbers                .... off
   Inactive MOs                         .... canonical
   Orbital update algorithm             .... Taylor
   Preconditioner                       .... Diag
   Full preconditioner red. dimension   ....   250
   COSX micro iterations for RIJONX calc.... off
 SOSCF                  CNVSOSCF        .... on
   Start iteration      SOSCFMaxIt      ....   150
   Startup grad/error   SOSCFStart      ....  0.003300
   Hessian update       SOSCFHessUp     .... L-BFGS
 Level Shifting         CNVShift        .... on
   Level shift para.    LevelShift      ....    0.2500
   Turn off err/grad.   ShiftErr        ....    0.0010
 Zerner damping         CNVZerner       .... off
 Static damping         CNVDamp         .... on
   Fraction old density DampFac         ....    0.7000
   Max. Damping (<1)    DampMax         ....    0.9800
   Min. Damping (>=0)   DampMin         ....    0.0000
   Turn off err/grad.   DampErr         ....    0.1000

SCF Procedure:
 Maximum # iterations   MaxIter         ....   125
 SCF integral mode      SCFMode         .... Direct
   Integral package                     .... SHARK and LIBINT hybrid scheme
 Reset frequency        DirectResetFreq ....    20
 Integral Threshold     Thresh          ....  1.000e-10 Eh
 Primitive CutOff       TCut            ....  1.000e-11 Eh

Convergence Tolerance:
 Convergence Check Mode ConvCheckMode   .... Total+1el-Energy
 Convergence forced     ConvForced      .... 0
 Energy Change          TolE            ....  1.000e-06 Eh
 1-El. energy change                    ....  1.000e-03 Eh
 Orbital Gradient       TolG            ....  3.330e-04
 Orbital Rotation angle TolX            ....  3.330e-04
 DIIS Error             TolErr          ....  1.000e-06

---------------------
INITIAL GUESS: MOREAD
---------------------
Guess MOs are being read from file: sp_solv.ges
Input Geometry matches current geometry (good)
Atom 0: N(Shells)= 9 and 6 - projection required
Input basis set needs projection
NBasis(read)= 100
NBasis(calc)= 169
Basis set overlap was calculated
Using GuessMode=FMatrix for the initial guess
C*T matrix was formed
Effective Fockian was calculated
Effective Fockian was diagonalized
Initial density was built
                      ------------------
                      INITIAL GUESS DONE (   0.0 sec)
                      ------------------
             **** ENERGY FILE WAS UPDATED (sp_solv.en.tmp) ****
Finished Guess after   0.3 sec
Maximum memory used throughout the entire GUESS-calculation: 11.5 MB

-------------------------------------------------------------------------------------------
                                      ORCA LEAN-SCF
                              memory conserving SCF solver
-------------------------------------------------------------------------------------------

--------------------
CPCM SOLVATION MODEL
--------------------
CPCM parameters:
  Epsilon                                         ...      78.3550
  Refrac                                          ...       1.3328
  Rsolv                                           ...       1.3000
  Surface type                                    ... GAUSSIAN VDW
  Discretization scheme                           ... Constant charge density
    Threshold for H atoms                         ...       5.0000 (charges/Ang^2)
    Threshold for non-H atoms                     ...       5.0000 (charges/Ang^2)
  Epsilon function type                           ...         CPCM
Solvent:                                          ... WATER
SMD-CDS solvent descriptors:
  Soln                                            ...       1.3328
  Soln25                                          ...       1.3323
  Sola                                            ...       0.0000
  Solb                                            ...       0.0000
  Solg                                            ...       0.0000
  Solc                                            ...       0.0000
  Solh                                            ...       0.0000
Radii:
  Scheme                                          ... Element-dependent radii
  Radius for C  used is    3.4960 Bohr (=   1.8500 Ang.)
  Radius for O  used is    2.8724 Bohr (=   1.5200 Ang.)
  Radius for H  used is    2.2677 Bohr (=   1.2000 Ang.)
Calculating surface                               ...        done! (  0.0s)
Cavity surface points                             ...         1021
Cavity Volume                                     ...     604.7405
Cavity Surface-area                               ...     426.4194
Calculating surface distance matrix               ...        done! (  0.0s)
Performing Cholesky decomposition & store         ...        done! (  0.1s)
Overall time for CPCM initialization              ...                 0.1s

----------------------------------------D-I-I-S--------------------------------------------
Iteration    Energy (Eh)           Delta-E    RMSDP     MaxDP     DIISErr   Damp  Time(sec)
-------------------------------------------------------------------------------------------
               ***  Starting incremental Fock matrix formation  ***
    1    -344.5415866490271242     0.00e+00  3.86e-03  7.96e-02  6.27e-01  0.700   2.3
    2    -344.6049339611076334    -6.33e-02  3.28e-03  5.84e-02  4.41e-01  0.700   2.4
    3    -344.6500352186055238    -4.51e-02  2.46e-03  4.53e-02  3.09e-01  0.700   2.1
    4    -344.6818244606344592    -3.18e-02  1.78e-03  3.33e-02  2.17e-01  0.700   2.1
                               ***Turning on AO-DIIS***
    5    -344.7041866152221132    -2.24e-02  1.30e-03  2.46e-02  1.52e-01  0.700   2.0
    6    -344.7198922293731016    -1.57e-02  9.26e-04  1.77e-02  1.06e-01  0.700   2.0
    7    -344.7309272670948417    -1.10e-02  6.54e-04  1.25e-02  7.41e-02  0.700   2.0
    8    -344.7386694687459681    -7.74e-03  1.54e-03  2.97e-02  5.20e-02  0.000   2.0
                              *** Initializing SOSCF ***
---------------------------------------S-O-S-C-F--------------------------------------
Iteration    Energy (Eh)           Delta-E    RMSDP     MaxDP     MaxGrad    Time(sec)
--------------------------------------------------------------------------------------
    9    -344.7567987036898671    -1.81e-02  1.77e-05  2.45e-04  1.66e-04     2.2
               *** Restarting incremental Fock matrix formation ***
   10    -344.7567990433072396    -3.40e-07  1.22e-05  3.36e-04  3.16e-05     2.2
                  *** Gradient check signals convergence ***

               *****************************************************
               *                     SUCCESS                       *
               *           SCF CONVERGED AFTER  10 CYCLES          *
               *****************************************************


SMD CDS free energy correction energy :                 3.08189     Kcal/mol
Total Energy after SMD CDS correction =              -344.751887735 Eh
             **** ENERGY FILE WAS UPDATED (sp_solv.en.tmp) ****

----------------
TOTAL SCF ENERGY
----------------

Total Energy       :       -344.75188773471012 Eh           -9381.17580 eV

Components:
Nuclear Repulsion  :        264.40617867007512 Eh            7194.85790 eV
Electronic Energy  :       -609.13107962637730 Eh          -16575.29935 eV
One Electron Energy:       -995.63171071661873 Eh          -27092.51621 eV
Two Electron Energy:        386.50063109024143 Eh           10517.21686 eV
CPCM Dielectric    :         -0.03189808700501 Eh              -0.86799 eV
SMD CDS (Gcds)     :          0.00491130859713 Eh               0.13364 eV

Virial components:
Potential Energy   :       -688.09990970140063 Eh          -18724.15046 eV
Kinetic Energy     :        343.34802196669051 Eh            9342.97467 eV
Virial Ratio       :          2.00408875449457

DFT components:
N(Alpha)           :       25.000005449837 electrons
N(Beta)            :       25.000005449837 electrons
N(Total)           :       50.000010899673 electrons
E(X)               :      -43.326232036695 Eh       
E(C)               :       -1.629124814064 Eh       
E(XC)              :      -44.955356850759 Eh       

CPCM Solvation Model Properties:
Surface-charge          :         -0.04043087356950
Corrected charge        :         -0.00000000000000
Outlying charge corr.   :          0.00014562595597 Eh               0.00396 eV
Free-energy (cav+disp)  :          0.00491130859713 Eh               0.13364 eV

---------------
SCF CONVERGENCE
---------------

  Last Energy change         ...    3.3962e-07  Tolerance :   1.0000e-06
  Last MAX-Density change    ...    3.3615e-04  Tolerance :   1.0000e-05
  Last RMS-Density change    ...    1.2244e-05  Tolerance :   1.0000e-06
  Last DIIS Error            ...    1.6604e-04  Tolerance :   1.0000e-06
  Last Orbital Gradient      ...    3.1648e-05  Tolerance :   3.3300e-04
  Last Orbital Rotation      ...    6.3006e-05  Tolerance :   3.3300e-04


----------------
ORBITAL ENERGIES
----------------

  NO   OCC          E(Eh)            E(eV) 
   0   2.0000     -18.958996      -515.9005 
   1   2.0000     -18.955922      -515.8168 
   2   2.0000     -18.953666      -515.7555 
   3   2.0000     -10.079625      -274.2805 
   4   2.0000     -10.071222      -274.0519 
   5   2.0000     -10.070475      -274.0316 
   6   2.0000      -1.007033       -27.4028 
   7   2.0000      -0.990216       -26.9451 
   8   2.0000      -0.981430       -26.7061 
   9   2.0000      -0.717617       -19.5273 
  10   2.0000      -0.640058       -17.4169 
  11   2.0000      -0.572049       -15.5662 
  12   2.0000      -0.498759       -13.5719 
  13   2.0000      -0.477459       -12.9923 
  14   2.0000      -0.455271       -12.3886 
  15   2.0000      -0.440953       -11.9989 
  16   2.0000      -0.393673       -10.7124 
  17   2.0000      -0.382308       -10.4031 
  18   2.0000      -0.371388       -10.1060 
  19   2.0000      -0.340087        -9.2542 
  20   2.0000      -0.307712        -8.3733 
  21   2.0000      -0.299979        -8.1628 
  22   2.0000      -0.262439        -7.1413 
  23   2.0000      -0.247643        -6.7387 
  24   2.0000      -0.229798        -6.2531 
  25   0.0000       0.054146         1.4734 
  26   0.0000       0.069332         1.8866 
  27   0.0000       0.108419         2.9502 
  28   0.0000       0.129832         3.5329 
  29   0.0000       0.141700         3.8558 
  30   0.0000       0.152369         4.1462 
  31   0.0000       0.160180         4.3587 
  32   0.0000       0.169577         4.6144 
  33   0.0000       0.184822         5.0293 
  34   0.0000       0.191801         5.2192 
  35   0.0000       0.198500         5.4015 
*Only the first 10 virtual orbitals were printed.

                    ********************************
                    * MULLIKEN POPULATION ANALYSIS *
                    ********************************

-----------------------
MULLIKEN ATOMIC CHARGES
-----------------------
   0 C :   -0.246990
   1 C :    0.130271
   2 C :   -0.196596
   3 O :   -0.507670
   4 O :   -0.514490
   5 O :   -0.495435
   6 H :    0.164007
   7 H :    0.150285
   8 H :    0.150900
   9 H :    0.159371
  10 H :    0.153182
  11 H :    0.353277
  12 H :    0.346159
  13 H :    0.353729
Sum of atomic charges:   -0.0000000

--------------------------------
MULLIKEN REDUCED ORBITAL CHARGES
--------------------------------
  0 C s       :     3.350227  s :     3.350227
      pz      :     0.983510  p :     2.838805
      px      :     0.914045
      py      :     0.941250
      dz2     :     0.008679  d :     0.057958
      dxz     :     0.012212
      dyz     :     0.010542
      dx2y2   :     0.011528
      dxy     :     0.014998

  1 C s       :     3.089944  s :     3.089944
      pz      :     1.019910  p :     2.713875
      px      :     0.900373
      py      :     0.793593
      dz2     :     0.012115  d :     0.065910
      dxz     :     0.013327
      dyz     :     0.010656
      dx2y2   :     0.011896
      dxy     :     0.017915

  2 C s       :     3.301306  s :     3.301306
      pz      :     0.820690  p :     2.837095
      px      :     0.978219
      py      :     1.038186
      dz2     :     0.016358  d :     0.058196
      dxz     :     0.017132
      dyz     :     0.007758
      dx2y2   :     0.005087
      dxy     :     0.011861

  3 O s       :     3.756614  s :     3.756614
      pz      :     1.468430  p :     4.730543
      px      :     1.701379
      py      :     1.560734
      dz2     :     0.003851  d :     0.020513
      dxz     :     0.002510
      dyz     :     0.002855
      dx2y2   :     0.005449
      dxy     :     0.005848

  4 O s       :     3.769585  s :     3.769585
      pz      :     1.860086  p :     4.725719
      px      :     1.610744
      py      :     1.254889
      dz2     :     0.005342  d :     0.019186
      dxz     :     0.004540
      dyz     :     0.001143
      dx2y2   :     0.002552
      dxy     :     0.005610

  5 O s       :     3.749107  s :     3.749107
      pz      :     1.539861  p :     4.724300
      px      :     1.587680
      py      :     1.596759
      dz2     :     0.004887  d :     0.022028
      dxz     :     0.005191
      dyz     :     0.005676
      dx2y2   :     0.003394
      dxy     :     0.002880

  6 H s       :     0.818471  s :     0.818471
      pz      :     0.009099  p :     0.017522
      px      :     0.004661
      py      :     0.003762

  7 H s       :     0.832418  s :     0.832418
      pz      :     0.003960  p :     0.017298
      px      :     0.004681
      py      :     0.008657

  8 H s       :     0.832108  s :     0.832108
      pz      :     0.010253  p :     0.016991
      px      :     0.004218
      py      :     0.002521

  9 H s       :     0.823105  s :     0.823105
      pz      :     0.002807  p :     0.017523
      px      :     0.005405
      py      :     0.009311

 10 H s       :     0.829615  s :     0.829615
      pz      :     0.007519  p :     0.017203
      px      :     0.006074
      py      :     0.003610

 11 H s       :     0.604127  s :     0.604127
      pz      :     0.009704  p :     0.042595
      px      :     0.012719
      py      :     0.020172

 12 H s       :     0.610687  s :     0.610687
      pz      :     0.011729  p :     0.043153
      px      :     0.013987
      py      :     0.017438

 13 H s       :     0.603573  s :     0.603573
      pz      :     0.018781  p :     0.042698
      px      :     0.013506
      py      :     0.010411


------------------------
MULLIKEN OVERLAP CHARGES
------------------------
B(  0-C ,  1-C ) :   0.2474 B(  0-C ,  2-C ) :  -0.0897 B(  0-C ,  3-O ) :   0.0666 
B(  0-C ,  4-O ) :  -0.0716 B(  0-C ,  5-O ) :   0.4915 B(  0-C ,  6-H ) :   0.8424 
B(  0-C ,  7-H ) :   0.8848 B(  0-C ,  8-H ) :  -0.0503 B(  0-C , 13-H ) :  -0.0873 
B(  1-C ,  2-C ) :   0.3837 B(  1-C ,  3-O ) :  -0.2314 B(  1-C ,  4-O ) :   0.2872 
B(  1-C ,  5-O ) :  -0.1948 B(  1-C ,  6-H ) :  -0.0735 B(  1-C ,  7-H ) :  -0.1527 
B(  1-C ,  8-H ) :   0.8089 B(  1-C , 10-H ) :  -0.1329 B(  1-C , 12-H ) :  -0.0966 
B(  2-C ,  3-O ) :   0.4851 B(  2-C ,  4-O ) :  -0.0792 B(  2-C ,  5-O ) :   0.0511 
B(  2-C ,  8-H ) :  -0.0610 B(  2-C ,  9-H ) :   0.8148 B(  2-C , 10-H ) :   0.8798 
B(  2-C , 11-H ) :  -0.0863 B(  3-O ,  9-H ) :  -0.0957 B(  3-O , 10-H ) :  -0.1013 
B(  3-O , 11-H ) :   0.6278 B(  4-O ,  8-H ) :  -0.0924 B(  4-O , 12-H ) :   0.6377 
B(  5-O ,  6-H ) :  -0.0928 B(  5-O ,  7-H ) :  -0.0852 B(  5-O , 13-H ) :   0.6341 
B(  6-H ,  7-H ) :  -0.0627 B(  9-H , 10-H ) :  -0.0531 


                     *******************************
                     * LOEWDIN POPULATION ANALYSIS *
                     *******************************

----------------------
LOEWDIN ATOMIC CHARGES
----------------------
   0 C :    0.023320
   1 C :    0.076145
   2 C :    0.026300
   3 O :   -0.635939
   4 O :   -0.620879
   5 O :   -0.638651
   6 H :    0.188718
   7 H :    0.170441
   8 H :    0.181046
   9 H :    0.191789
  10 H :    0.170555
  11 H :    0.288252
  12 H :    0.292339
  13 H :    0.286564

-------------------------------
LOEWDIN REDUCED ORBITAL CHARGES
-------------------------------
  0 C s       :     2.874521  s :     2.874521
      pz      :     1.030815  p :     2.972326
      px      :     0.958215
      py      :     0.983296
      dz2     :     0.018830  d :     0.129834
      dxz     :     0.028094
      dyz     :     0.023026
      dx2y2   :     0.024502
      dxy     :     0.035381

  1 C s       :     2.847523  s :     2.847523
      pz      :     1.045815  p :     2.935098
      px      :     0.985521
      py      :     0.903763
      dz2     :     0.026357  d :     0.141234
      dxz     :     0.030646
      dyz     :     0.020906
      dx2y2   :     0.022887
      dxy     :     0.040438

  2 C s       :     2.869086  s :     2.869086
      pz      :     0.909752  p :     2.974571
      px      :     1.013232
      py      :     1.051587
      dz2     :     0.036956  d :     0.130043
      dxz     :     0.039304
      dyz     :     0.015701
      dx2y2   :     0.009292
      dxy     :     0.028791

  3 O s       :     3.511242  s :     3.511242
      pz      :     1.559607  p :     4.842838
      px      :     1.704895
      py      :     1.578335
      dz2     :     0.078614  d :     0.281859
      dxz     :     0.072181
      dyz     :     0.058451
      dx2y2   :     0.029340
      dxy     :     0.043273

  4 O s       :     3.501060  s :     3.501060
      pz      :     1.842760  p :     4.830091
      px      :     1.635458
      py      :     1.351873
      dz2     :     0.041268  d :     0.289728
      dxz     :     0.039622
      dyz     :     0.052421
      dx2y2   :     0.065237
      dxy     :     0.091180

  5 O s       :     3.511638  s :     3.511638
      pz      :     1.579045  p :     4.847936
      px      :     1.614293
      py      :     1.654598
      dz2     :     0.045527  d :     0.279078
      dxz     :     0.062190
      dyz     :     0.047389
      dx2y2   :     0.063367
      dxy     :     0.060605

  6 H s       :     0.770422  s :     0.770422
      pz      :     0.021016  p :     0.040860
      px      :     0.010175
      py      :     0.009669

  7 H s       :     0.788829  s :     0.788829
      pz      :     0.009074  p :     0.040730
      px      :     0.011573
      py      :     0.020083

  8 H s       :     0.777858  s :     0.777858
      pz      :     0.024262  p :     0.041096
      px      :     0.009948
      py      :     0.006887

  9 H s       :     0.767531  s :     0.767531
      pz      :     0.005778  p :     0.040680
      px      :     0.012128
      py      :     0.022775

 10 H s       :     0.788756  s :     0.788756
      pz      :     0.017077  p :     0.040689
      px      :     0.015322
      py      :     0.008291

 11 H s       :     0.588899  s :     0.588899
      pz      :     0.025916  p :     0.122848
      px      :     0.034701
      py      :     0.062231

 12 H s       :     0.584266  s :     0.584266
      pz      :     0.030951  p :     0.123395
      px      :     0.042135
      py      :     0.050309

 13 H s       :     0.590754  s :     0.590754
      pz      :     0.055128  p :     0.122681
      px      :     0.037281
      py      :     0.030272


---------------------------------
LOEWDIN BOND ORDERS (THRESH 0.050000)
---------------------------------
B(  0-C ,  1-C ) :   0.9266 B(  0-C ,  2-C ) :   0.0643 B(  0-C ,  4-O ) :   0.1661 
B(  0-C ,  5-O ) :   1.4645 B(  0-C ,  6-H ) :   0.8128 B(  0-C ,  7-H ) :   0.8238 
B(  1-C ,  2-C ) :   0.9472 B(  1-C ,  3-O ) :   0.1535 B(  1-C ,  4-O ) :   1.4033 
B(  1-C ,  5-O ) :   0.1674 B(  1-C ,  8-H ) :   0.7903 B(  2-C ,  3-O ) :   1.4525 
B(  2-C ,  4-O ) :   0.1590 B(  2-C ,  9-H ) :   0.8126 B(  2-C , 10-H ) :   0.8248 
B(  3-O ,  4-O ) :   0.0832 B(  3-O ,  9-H ) :   0.0984 B(  3-O , 10-H ) :   0.1053 
B(  3-O , 11-H ) :   0.9478 B(  4-O ,  8-H ) :   0.0985 B(  4-O , 12-H ) :   0.9486 
B(  5-O ,  6-H ) :   0.0985 B(  5-O ,  7-H ) :   0.1045 B(  5-O , 13-H ) :   0.9590 


------------------------------------------
LOEWDIN REDUCED ORBITAL POPULATIONS PER MO
-------------------------------------------
THRESHOLD FOR PRINTING IS 0.1%%
                      0         1         2         3         4         5   
                 -18.95900 -18.95592 -18.95367 -10.07962 -10.07122 -10.07048
                   2.00000   2.00000   2.00000   2.00000   2.00000   2.00000
                  --------  --------  --------  --------  --------  --------
 0 C  s               0.0       0.0       0.0       0.0       0.0      99.4
 1 C  s               0.0       0.0       0.0      99.3       0.0       0.0
 2 C  s               0.0       0.0       0.0       0.0      99.4       0.0
 3 O  s               0.0       0.0      99.9       0.0       0.0       0.0
 3 O  dz2             0.0       0.0       0.0       0.0       0.1       0.0
 3 O  dxz             0.0       0.0       0.0       0.0       0.2       0.0
 4 O  s              99.9       0.0       0.0       0.0       0.0       0.0
 4 O  dxy             0.0       0.0       0.0       0.1       0.0       0.0
 5 O  s               0.0      99.9       0.0       0.0       0.0       0.0
 5 O  dxy             0.0       0.0       0.0       0.0       0.0       0.2

                      6         7         8         9        10        11   
                  -1.00703  -0.99022  -0.98143  -0.71762  -0.64006  -0.57205
                   2.00000   2.00000   2.00000   2.00000   2.00000   2.00000
                  --------  --------  --------  --------  --------  --------
 0 C  s               2.9       7.1       0.1       9.1      17.5       2.5
 0 C  pz              0.7       1.1       0.0       0.4       1.3       3.1
 0 C  px              0.4       3.8       0.5       3.6       0.1       0.8
 0 C  py              0.1       3.7       0.7       0.4       0.7       0.8
 0 C  dxz             0.0       0.1       0.0       0.1       0.0       0.0
 0 C  dyz             0.0       0.2       0.0       0.0       0.0       0.0
 0 C  dxy             0.1       0.4       0.0       0.0       0.0       0.0
 1 C  s               8.3       0.0       2.0      18.5       0.0       8.2
 1 C  pz              1.0       0.1       0.2       0.0       3.9       1.2
 1 C  px              1.4       2.1       0.4       0.2       7.4       0.1
 1 C  py              1.4       0.2       5.7       4.7       0.9       1.3
 1 C  dxy             0.1       0.0       0.3       0.1       0.1       0.0
 2 C  s               5.7       1.1       3.2      11.0      12.9       5.4
 2 C  pz              2.5       0.9       3.3       0.6       1.8       0.1
 2 C  px              0.2       0.7       1.8       3.6       0.1       0.7
 2 C  py              0.6       0.0       0.8       1.1       0.1       7.5
 2 C  dz2             0.1       0.0       0.2       0.1       0.0       0.0
 2 C  dxz             0.2       0.1       0.3       0.0       0.0       0.0
 3 O  s              19.8       8.4      32.7       2.9       1.7       0.3
 3 O  pz              0.5       0.1       0.4       2.2       5.5       7.4
 3 O  px              0.1       0.0       0.0       1.7       1.8       3.4
 3 O  py              0.6       0.2       0.6       0.1       0.5       4.1
 3 O  dz2             0.0       0.0       0.0       0.2       0.7       0.6
 3 O  dxz             0.1       0.0       0.0       0.6       0.6       0.1
 3 O  dyz             0.0       0.0       0.0       0.1       0.1       0.0
 3 O  dx2y2           0.0       0.0       0.0       0.2       0.0       0.2
 3 O  dxy             0.0       0.0       0.0       0.2       0.0       0.0
 4 O  s              30.7       1.0      29.0       4.2       0.1       0.9
 4 O  pz              0.1       0.0       0.1       0.5       0.3       1.7
 4 O  px              1.1       0.0       1.0       0.4       0.5       0.1
 4 O  py              0.3       0.0       0.0       6.6       0.2      16.0
 4 O  dz2             0.1       0.0       0.0       0.2       0.0       0.0
 4 O  dxz             0.0       0.0       0.0       0.0       0.0       0.3
 4 O  dyz             0.0       0.0       0.0       0.3       0.3       0.1
 4 O  dx2y2           0.1       0.0       0.0       0.2       0.3       0.0
 4 O  dxy             0.0       0.0       0.1       1.2       0.2       0.6
 5 O  s               6.6      52.4       2.4       2.6       2.3       0.1
 5 O  pz              0.0       0.1       0.0       0.8       4.8       5.0
 5 O  px              0.1       0.1       0.0       2.2       4.7       2.7
 5 O  py              0.3       1.8       0.1       0.7       2.2       0.3
 5 O  dz2             0.0       0.0       0.0       0.2       0.1       0.0
 5 O  dxz             0.0       0.1       0.0       0.0       0.2       0.1
 5 O  dyz             0.0       0.0       0.0       0.1       0.5       0.3
 5 O  dxy             0.1       0.1       0.0       0.8       0.9       0.0
 6 H  s               0.2       0.5       0.0       1.8       5.2       2.0
 6 H  pz              0.0       0.0       0.0       0.1       0.3       0.1
 7 H  s               0.2       0.5       0.0       1.4       5.1       0.9
 7 H  px              0.0       0.0       0.0       0.0       0.1       0.0
 7 H  py              0.0       0.0       0.0       0.1       0.3       0.1
 8 H  s               0.6       0.0       0.1       3.3       0.0       3.7
 8 H  pz              0.0       0.0       0.0       0.3       0.0       0.2
 9 H  s               0.4       0.1       0.2       2.3       3.6       4.1
 9 H  px              0.0       0.0       0.0       0.0       0.1       0.1
 9 H  py              0.0       0.0       0.0       0.2       0.2       0.2
10 H  s               0.4       0.1       0.2       1.9       3.9       1.6
10 H  pz              0.0       0.0       0.0       0.1       0.2       0.1
10 H  px              0.0       0.0       0.0       0.1       0.2       0.0
11 H  s               3.6       1.4       5.2       1.1       1.6       3.3
11 H  pz              0.1       0.0       0.1       0.0       0.0       0.0
11 H  px              0.1       0.1       0.2       0.0       0.0       0.0
11 H  py              0.5       0.2       0.9       0.2       0.3       0.3
12 H  s               4.9       0.1       4.9       2.2       0.1       4.0
12 H  px              0.3       0.0       0.4       0.3       0.0       0.3
12 H  py              0.8       0.0       0.8       0.2       0.0       0.1
13 H  s               1.1       8.7       0.4       1.1       2.5       1.8
13 H  pz              0.1       1.2       0.1       0.2       0.2       0.1
13 H  px              0.1       0.5       0.0       0.0       0.1       0.0
13 H  py              0.0       0.2       0.0       0.1       0.2       0.1

                     12        13        14        15        16        17   
                  -0.49876  -0.47746  -0.45527  -0.44095  -0.39367  -0.38231
                   2.00000   2.00000   2.00000   2.00000   2.00000   2.00000
                  --------  --------  --------  --------  --------  --------
 0 C  s               0.1       0.4       1.7       0.2       0.4       0.1
 0 C  pz              5.1       2.0       2.6       0.9      12.4       2.9
 0 C  px              0.9       0.7       4.9      10.1       1.2       5.5
 0 C  py              7.9       6.1      11.8       0.2       0.4       0.7
 0 C  dxz             0.1       0.0       0.0       0.0       0.0       0.0
 0 C  dyz             0.0       0.0       0.0       0.0       0.1       0.1
 0 C  dxy             0.1       0.1       0.2       0.1       0.0       0.0
 1 C  s               1.2       0.4       0.9       0.2       0.0       0.4
 1 C  pz              1.4      11.8       0.2       8.6       0.5       0.0
 1 C  px             16.1       0.7       0.3       0.4       0.2       0.6
 1 C  py              0.2       2.6       0.6      12.3       2.8       0.8
 1 C  dz2             0.1       0.0       0.0       0.0       0.0       0.1
 1 C  dx2y2           0.0       0.0       0.1       0.0       0.2       0.0
 1 C  dxy             0.1       0.1       0.0       0.1       0.0       0.1
 2 C  s               0.0       0.4       1.7       0.4       0.5       0.2
 2 C  pz              0.1       8.4      11.6       0.3       6.0       0.6
 2 C  px              0.7       1.1       7.1       6.6       2.1       9.2
 2 C  py              3.5       0.8       1.3       1.1       8.1       6.1
 2 C  dxz             0.0       0.0       0.1       0.1       0.0       0.0
 2 C  dyz             0.0       0.0       0.0       0.2       0.0       0.0
 2 C  dx2y2           0.0       0.0       0.0       0.0       0.1       0.1
 3 O  s               0.9       0.0       0.9       1.3       1.7       0.7
 3 O  pz              0.0       6.0       0.4       4.3      11.5      10.5
 3 O  px              0.1       7.4       7.2       0.2       2.6       0.1
 3 O  py              3.4       4.0       5.4      10.1       8.1       3.4
 3 O  dz2             0.0       0.1       0.7       0.2       0.0       0.1
 3 O  dxz             0.0       0.0       0.0       0.2       0.0       0.4
 3 O  dyz             0.2       0.0       0.0       0.0       0.4       0.3
 3 O  dx2y2           0.1       0.0       0.2       0.1       0.1       0.0
 3 O  dxy             0.1       0.2       0.1       0.0       0.1       0.1
 4 O  s               1.2       0.0       0.0       0.2       0.2       3.0
 4 O  pz              0.2       0.4       0.0       9.6       1.7       0.2
 4 O  px              7.3       0.0       0.3       1.6       2.9      13.8
 4 O  py             14.6      12.6       0.0       3.3       1.3       2.5
 4 O  dz2             0.1       0.0       0.0       0.2       0.2       0.1
 4 O  dxz             0.1       0.3       0.1       0.3       0.0       0.0
 4 O  dyz             0.0       0.3       0.0       0.4       0.0       0.0
 4 O  dx2y2           0.2       0.0       0.1       0.4       0.2       0.0
 4 O  dxy             0.2       0.3       0.2       0.1       0.1       0.1
 5 O  s               0.9       0.1       0.7       0.0       1.3       2.0
 5 O  pz             12.5       4.6       0.9       6.8       1.0       0.8
 5 O  px              3.0       8.4       6.6       1.9       3.8       0.5
 5 O  py              0.6       0.1       3.9       2.5      13.2      16.5
 5 O  dz2             0.1       0.0       0.0       0.0       0.2       0.1
 5 O  dxz             0.1       0.3       0.1       0.2       0.2       0.1
 5 O  dyz             0.3       0.1       0.2       0.0       0.2       0.0
 5 O  dx2y2           0.0       0.1       0.7       0.5       0.1       0.1
 6 H  s               1.3       0.5       0.1       2.2       5.3       2.7
 7 H  s               0.7       2.0      10.3       0.3       0.1       1.0
 7 H  px              0.0       0.1       0.1       0.0       0.0       0.0
 7 H  py              0.0       0.0       0.3       0.0       0.0       0.1
 8 H  s               4.0       4.0       0.1       4.2       0.2       0.8
 8 H  pz              0.2       0.1       0.0       0.2       0.0       0.0
 9 H  s               0.5       0.3       0.0       0.5       6.2       7.5
 9 H  py              0.0       0.0       0.0       0.1       0.1       0.2
10 H  s               0.4       1.5      10.6       0.1       0.2       1.4
10 H  pz              0.0       0.0       0.2       0.0       0.0       0.1
10 H  px              0.0       0.1       0.2       0.0       0.0       0.0
11 H  s               0.4       3.9       2.0       2.5       0.1       0.1
11 H  pz              0.0       0.0       0.0       0.0       0.2       0.2
11 H  py              0.0       0.3       0.0       0.0       0.1       0.0
12 H  s               4.7       2.5       0.0       0.7       0.1       2.0
12 H  pz              0.0       0.0       0.0       0.1       0.0       0.0
12 H  px              0.1       0.2       0.0       0.1       0.1       0.0
13 H  s               3.3       3.0       1.5       1.9       0.0       0.1
13 H  pz              0.0       0.1       0.1       0.0       0.0       0.0
13 H  py              0.0       0.1       0.0       0.1       0.2       0.2

                     18        19        20        21        22        23   
                  -0.37139  -0.34009  -0.30771  -0.29998  -0.26244  -0.24764
                   2.00000   2.00000   2.00000   2.00000   2.00000   2.00000
                  --------  --------  --------  --------  --------  --------
 0 C  s               0.3       0.9       0.2       0.1       0.2       0.2
 0 C  pz              9.6       0.4       1.4       1.0       1.0       0.4
 0 C  px              3.4       6.3       0.4       0.2       0.3       0.7
 0 C  py              0.3       2.1       7.5       0.9       4.4       0.1
 0 C  dz2             0.0       0.4       0.1       0.1       0.0       0.0
 0 C  dxz             0.0       0.1       0.5       0.1       0.0       0.1
 0 C  dyz             0.0       0.0       0.0       0.0       0.3       0.0
 0 C  dx2y2           0.0       0.0       0.1       0.0       0.4       0.1
 0 C  dxy             0.2       0.1       0.0       0.0       0.2       0.0
 1 C  s               0.2       0.2       0.2       0.8       0.4       0.9
 1 C  pz             12.8       1.4       0.2       0.9       0.9       2.6
 1 C  px              2.7       1.6       4.6       1.1       1.4       1.3
 1 C  py              2.3       0.4       0.2       4.6       0.0       3.8
 1 C  dz2             0.0       0.1       0.1       0.0       0.4       0.3
 1 C  dxz             0.1       0.0       0.0       0.0       0.4       0.3
 1 C  dyz             0.1       0.1       0.0       0.1       0.0       0.1
 1 C  dx2y2           0.0       0.3       0.2       0.0       0.0       0.1
 1 C  dxy             0.3       0.2       0.0       0.3       0.0       0.0
 2 C  s               0.1       0.9       0.1       0.0       0.1       0.1
 2 C  pz              4.8       0.7       0.4       1.3       0.1       1.2
 2 C  px              4.8       5.7       0.1       0.5       0.0       3.4
 2 C  py              4.5       0.4       1.9      11.4       2.2       0.3
 2 C  dz2             0.0       0.0       0.0       0.0       0.1       0.8
 2 C  dxz             0.1       0.0       0.1       0.2       0.1       0.1
 2 C  dyz             0.0       0.2       0.0       0.2       0.0       0.0
 2 C  dxy             0.1       0.1       0.0       0.6       0.0       0.2
 3 O  s               0.1       0.8       0.3       3.0       0.2       0.0
 3 O  pz              0.5       0.8       3.3       5.2       4.7       9.8
 3 O  px              9.8       3.1       0.7       0.1       4.1      34.0
 3 O  py              0.1      10.5       1.0      23.6       0.2       2.1
 3 O  dz2             0.3       0.0       0.1       0.1       0.1       0.3
 3 O  dxz             0.0       0.7       0.0       0.1       0.0       0.4
 3 O  dyz             0.1       0.1       0.1       1.0       0.3       0.0
 3 O  dx2y2           0.0       0.0       0.2       0.0       0.0       0.3
 3 O  dxy             0.1       0.1       0.1       1.0       0.0       0.0
 4 O  s               0.1       2.6       1.5       0.1       0.1       0.0
 4 O  pz              4.5       0.6       5.6      14.3      21.5      17.3
 4 O  px              5.5      27.1      16.1       0.4       0.0       0.0
 4 O  py              5.4       0.4       0.1       0.2       1.2       1.7
 4 O  dz2             0.1       0.2       0.0       0.1       0.1       0.4
 4 O  dxz             0.1       0.0       0.0       0.2       0.4       0.2
 4 O  dyz             0.2       0.0       0.0       0.3       0.0       0.0
 4 O  dx2y2           0.3       0.1       0.6       0.3       0.0       0.2
 4 O  dxy             0.1       0.4       0.3       0.0       0.1       0.0
 5 O  s               0.1       0.6       2.8       0.5       0.4       0.0
 5 O  pz              1.5      10.1       4.8       5.4       7.5       1.5
 5 O  px              8.2       1.7       0.1       2.2      16.3       2.9
 5 O  py              0.2       0.1      26.6       0.1      12.6       0.1
 5 O  dz2             0.2       0.1       0.3       0.1       0.2       0.2
 5 O  dxz             0.1       0.4       1.0       0.2       0.1       0.0
 5 O  dyz             0.1       0.1       0.0       0.0       0.2       0.0
 5 O  dx2y2           0.0       0.2       0.4       0.1       0.5       0.1
 5 O  dxy             0.1       0.2       0.1       0.0       0.0       0.0
 6 H  s               2.0       5.5       4.0       2.4       2.0       0.6
 6 H  pz              0.0       0.1       0.1       0.0       0.0       0.0
 7 H  s               2.5       1.4       3.7       0.2       6.1       0.0
 8 H  s               4.1       1.5       1.7       0.6       4.6       4.5
 8 H  px              0.1       0.0       0.0       0.0       0.0       0.0
 9 H  s               1.2       2.6       0.8       7.3       0.5       0.1
10 H  s               3.8       1.5       0.8       2.3       1.0       4.1
10 H  py              0.1       0.0       0.0       0.1       0.0       0.0
11 H  s               0.3       1.0       0.2       2.4       0.2       0.0
11 H  pz              0.0       0.0       0.1       0.2       0.1       0.2
11 H  px              0.1       0.2       0.0       0.1       0.1       0.6
12 H  s               0.2       1.1       1.0       0.4       0.1       0.2
12 H  pz              0.1       0.0       0.1       0.2       0.4       0.3
12 H  px              0.1       0.2       0.1       0.0       0.0       0.0
12 H  py              0.1       0.2       0.1       0.0       0.0       0.0
13 H  s               0.2       1.0       2.1       0.4       0.4       0.0
13 H  pz              0.0       0.0       0.0       0.0       0.2       0.0
13 H  px              0.1       0.1       0.1       0.1       0.2       0.1
13 H  py              0.0       0.0       0.2       0.0       0.2       0.0

                     24        25        26        27        28        29   
                  -0.22980   0.05415   0.06933   0.10842   0.12983   0.14170
                   2.00000   0.00000   0.00000   0.00000   0.00000   0.00000
                  --------  --------  --------  --------  --------  --------
 0 C  s               0.4       1.3       6.2       0.2       0.6      10.6
 0 C  pz              5.1       0.1       4.0       3.1       0.7      18.3
 0 C  px              4.2       4.5      11.1       2.9       1.8       3.0
 0 C  py              0.3       2.8       6.9       3.1       1.8      11.3
 0 C  dz2             0.0       0.2       0.0       0.4       0.2       0.0
 0 C  dxz             0.1       0.3       0.3       0.1       0.1       0.2
 0 C  dyz             0.3       0.0       0.5       0.1       0.4       0.5
 0 C  dx2y2           0.3       0.0       0.0       0.0       0.1       0.0
 0 C  dxy             0.2       0.2       1.4       0.1       0.0       0.0
 1 C  s               0.1       1.9       0.9       3.8       0.6       0.4
 1 C  pz              4.6       0.6       1.1      11.9       5.7       1.4
 1 C  px              6.6       2.9       4.0       2.7       2.8       1.6
 1 C  py              0.4      11.6       0.4       2.4       5.7       5.8
 1 C  dz2             0.0       0.3       0.4       0.5       0.5       0.0
 1 C  dxz             0.3       0.0       0.4       0.0       0.1       0.2
 1 C  dyz             0.2       0.7       0.0       0.0       0.0       0.1
 1 C  dx2y2           0.1       0.3       0.0       0.1       0.2       0.4
 1 C  dxy             0.1       0.7       0.1       0.0       0.4       1.0
 2 C  s               0.1       2.4       2.4       1.5      13.3       0.4
 2 C  pz              0.7       7.7       4.1      11.3      13.9       1.8
 2 C  px              2.3       4.0       0.3       6.2       7.7       0.6
 2 C  py              0.7       0.0       1.1       0.2       0.9       3.0
 2 C  dz2             0.2       0.5       0.1       0.5       0.1       0.2
 2 C  dxz             0.4       0.6       0.5       0.5       0.3       0.0
 2 C  dx2y2           0.0       0.5       0.0       0.0       0.1       0.6
 2 C  dxy             0.1       0.1       0.1       0.1       0.1       0.5
 3 O  s               0.0       5.2       1.3       5.0       0.5       0.2
 3 O  pz              4.8       0.7       0.3       0.6       0.6       0.9
 3 O  px              8.7       0.2       0.1       1.1       1.5       0.4
 3 O  py              0.9       2.1       0.2       0.9       0.2       0.1
 3 O  dz2             0.3       0.4       0.2       0.3       2.6       0.0
 3 O  dxz             0.1       0.1       0.2       0.1       1.1       0.6
 3 O  dyz             0.0       0.2       0.4       0.2       0.6       0.9
 3 O  dx2y2           0.0       0.3       0.1       0.0       0.0       0.0
 3 O  dxy             0.0       0.4       0.4       1.6       0.2       0.1
 4 O  s               0.1       8.8       0.1       0.9       0.4       0.1
 4 O  pz             13.7       0.0       0.1       0.0       0.1       2.9
 4 O  px              3.6       2.2       0.5       2.0       3.2       0.1
 4 O  py              1.2       0.8       0.8       2.0       0.5       2.9
 4 O  dz2             0.1       0.1       0.5       0.0       1.2       0.1
 4 O  dxz             0.0       0.1       0.2       1.4       0.5       0.3
 4 O  dyz             0.5       0.0       0.0       0.3       0.8       0.1
 4 O  dx2y2           0.1       0.1       0.0       0.3       0.0       0.1
 4 O  dxy             0.4       1.5       1.9       0.5       0.1       0.8
 5 O  s               0.0       1.5       9.4       0.0       0.1       0.4
 5 O  pz             11.1       0.0       0.9       2.3       0.1       0.0
 5 O  px             15.1       0.4       0.6       0.3       0.4       0.0
 5 O  py              1.0       1.0       2.8       0.2       0.2       0.4
 5 O  dz2             0.4       0.2       0.1       0.1       0.0       0.1
 5 O  dxz             0.0       0.1       0.9       0.3       0.5       3.2
 5 O  dyz             0.3       0.2       1.4       0.2       0.6       0.2
 5 O  dx2y2           0.2       0.0       0.0       0.1       0.0       1.3
 5 O  dxy             0.3       0.5       1.6       0.5       0.0       0.1
 6 H  s               0.2       0.3       1.3       0.5       1.8       0.8
 6 H  pz              0.0       0.0       0.0       0.4       0.3       0.6
 6 H  px              0.1       0.3       0.0       0.0       0.0       0.1
 6 H  py              0.0       0.0       1.2       0.1       0.1       0.0
 7 H  s               2.9       0.2       1.7       0.3       0.6       6.9
 7 H  pz              0.1       0.0       0.1       0.0       0.1       1.1
 7 H  px              0.0       0.1       1.1       0.1       0.0       0.8
 7 H  py              0.0       0.3       0.1       0.3       0.1       2.2
 8 H  s               0.9       1.0       0.4       2.5       2.7       0.1
 8 H  pz              0.0       0.1       0.0       1.8       1.2       0.1
 8 H  px              0.1       0.0       0.6       0.0       0.0       0.0
 8 H  py              0.0       0.8       0.0       0.1       0.3       0.5
 9 H  s               0.0       1.5       0.6       0.7       0.7       2.6
 9 H  pz              0.0       0.3       0.2       0.4       0.0       0.0
 9 H  px              0.1       0.0       0.2       0.2       0.1       0.1
 9 H  py              0.0       0.3       0.1       0.1       0.4       0.6
10 H  s               3.5       0.3       1.4       0.1       6.9       0.6
10 H  pz              0.0       0.1       0.0       0.5       2.0       0.2
10 H  px              0.0       0.2       0.3       0.2       1.7       0.0
10 H  py              0.0       0.1       0.1       0.0       0.1       0.2
11 H  s               0.0       6.8       0.8       6.3       2.6       0.3
11 H  pz              0.1       0.2       0.0       0.4       0.0       0.0
11 H  px              0.2       0.4       0.1       0.5       0.1       0.0
11 H  py              0.0       1.3       0.1       1.2       0.5       0.0
12 H  s               0.2      10.5       0.2       6.1       2.5       2.7
12 H  pz              0.3       0.0       0.0       0.0       0.0       0.0
12 H  px              0.0       0.7       0.1       0.6       0.3       0.5
12 H  py              0.1       1.9       0.0       1.0       0.5       0.2
13 H  s               0.0       0.7      14.0       2.4       0.2       0.5
13 H  pz              0.2       0.2       2.3       0.3       0.0       0.2
13 H  px              0.3       0.1       1.0       0.1       0.0       0.0
13 H  py              0.0       0.0       0.4       0.2       0.0       0.0

                     30        31        32        33        34        35   
                   0.15237   0.16018   0.16958   0.18482   0.19180   0.19850
                   0.00000   0.00000   0.00000   0.00000   0.00000   0.00000
                  --------  --------  --------  --------  --------  --------
 0 C  s               3.1       0.6       5.2       0.3       0.0       2.4
 0 C  pz              9.9       2.6       4.7       3.8       4.3       4.3
 0 C  px              0.9       3.6       1.0       1.0      10.2       8.6
 0 C  py              5.7       2.9       3.6       4.5       5.8       0.2
 0 C  dz2             0.3       0.1       0.0       0.2       0.6       0.3
 0 C  dxz             0.1       0.6       0.1       0.0       0.8       0.1
 0 C  dyz             0.1       0.2       0.1       0.0       0.4       0.2
 0 C  dx2y2           0.0       0.1       0.0       0.0       0.3       0.0
 0 C  dxy             0.0       0.0       0.6       1.0       0.3       0.5
 1 C  s               0.5       7.1       1.3       0.9       3.7       1.7
 1 C  pz              0.6       2.4       8.9       0.4       4.2       0.5
 1 C  px              0.2       1.5       5.4       0.1       2.0       7.0
 1 C  py              0.6       0.9       0.1       1.4       3.2       6.9
 1 C  dz2             0.1       0.5       0.0       0.0       0.1       0.2
 1 C  dxz             0.0       0.2       0.9       0.2       0.4       0.6
 1 C  dyz             0.0       0.3       0.0       0.4       0.0       0.2
 1 C  dx2y2           0.3       0.1       0.0       0.3       0.0       0.0
 1 C  dxy             0.0       0.0       0.6       0.0       0.5       0.6
 2 C  s               5.6       0.3       3.5       0.0       0.2       0.6
 2 C  pz              0.5       0.3       3.4       7.5       5.8       0.3
 2 C  px              2.3       9.3       0.1       2.2       8.3       1.0
 2 C  py             15.6      23.9       0.3       1.6       3.9       5.0
 2 C  dz2             0.0       0.5       0.0       0.1       0.1       0.0
 2 C  dxz             0.1       0.2       0.5       1.4       0.2       0.0
 2 C  dyz             0.1       0.9       0.3       0.0       0.1       0.2
 2 C  dx2y2           0.1       0.3       0.0       0.2       0.0       0.1
 2 C  dxy             0.3       1.0       0.0       0.2       0.0       0.5
 3 O  s               0.4       0.2       0.9       0.0       0.6       0.7
 3 O  pz              0.3       3.1       1.4       3.2       1.3       0.2
 3 O  px              1.0       0.2       2.5       2.3       0.1       0.2
 3 O  py              2.1       1.8       0.4       3.2       0.5       0.1
 3 O  dz2             0.1       0.9       1.4       0.1       0.0       0.3
 3 O  dxz             2.8       0.1       0.1       0.1       0.3       0.4
 3 O  dyz             1.1       1.2       0.3       1.3       0.1       0.3
 3 O  dx2y2           0.0       1.1       1.1       4.8       0.5       0.0
 3 O  dxy             0.1       3.1       2.2       0.0       0.5       0.6
 4 O  s               0.0       0.4       1.3       1.0       1.6       0.9
 4 O  pz              0.4       0.1       0.3       3.5       0.9       1.0
 4 O  px              0.3       0.9       0.5       0.8       1.1       0.5
 4 O  py              0.0       0.9       3.0       0.6       1.5       6.9
 4 O  dz2             0.0       0.6       0.3       0.0       2.1       1.7
 4 O  dxz             0.2       0.3       0.0       0.1       0.8       0.4
 4 O  dyz             0.5       0.2       2.7       0.3       0.1       1.2
 4 O  dx2y2           0.4       4.6       0.1       0.0       0.2       0.8
 4 O  dxy             0.0       1.2       1.6       0.1       0.3       7.6
 5 O  s               0.0       0.0       1.5       0.4       0.3       0.1
 5 O  pz              1.6       0.0       0.8       2.8       3.3       0.3
 5 O  px              1.5       1.3       1.5       2.5       0.4       4.3
 5 O  py              2.1       0.3       0.7       0.1       0.2       1.0
 5 O  dz2             0.6       0.4       1.6       3.7       3.7       0.0
 5 O  dxz             1.8       0.0       0.7       0.3       0.4       0.1
 5 O  dyz             0.0       0.7       1.8       0.4       0.7       0.1
 5 O  dx2y2           0.5       0.1       0.6       0.8       0.5       1.2
 5 O  dxy             0.5       0.0       0.6       0.0       1.3       4.5
 6 H  s               5.3       4.0       2.2       1.0       0.0       2.2
 6 H  pz              1.5       0.6       1.4       0.9       0.4       0.1
 6 H  px              0.2       0.3       0.2       0.0       1.4       0.0
 6 H  py              0.5       0.3       0.0       0.2       0.0       0.1
 7 H  s               0.1       0.2       0.3       6.4       5.3       1.0
 7 H  pz              0.1       0.4       0.1       0.0       0.0       0.5
 7 H  px              0.0       0.2       0.1       0.6       0.0       0.1
 7 H  py              0.0       0.0       0.0       0.9       1.9       0.2
 8 H  s               1.1       1.0       8.4       0.7       0.2       1.0
 8 H  pz              0.4       0.0       1.5       0.0       0.2       0.3
 8 H  px              0.1       0.0       1.5       0.0       0.2       0.7
 8 H  py              0.0       0.0       0.1       0.3       0.2       0.3
 9 H  s               7.9       0.4       0.5       0.5       0.7       2.3
 9 H  pz              0.1       0.1       0.1       1.2       0.0       0.1
 9 H  px              0.9       0.7       0.1       0.0       0.1       0.3
 9 H  py              2.5       1.1       0.2       0.1       0.6       0.2
10 H  s               0.2       1.2       0.2       5.2       1.8       1.3
10 H  pz              0.0       0.3       0.2       0.2       0.7       0.2
10 H  px              0.0       0.1       0.0       1.1       0.4       0.0
10 H  py              0.1       1.5       0.1       0.1       0.0       0.9
[...]
 4 O  dyz             0.1       0.4       0.2       4.5       0.0       0.0
 4 O  dx2y2           0.4       0.6       0.3       2.5       0.2       0.0
 4 O  dxy             0.1       0.5       0.6       2.1      17.0       0.1
 5 O  s               1.3      11.5       8.8       4.6       0.0       6.0
 5 O  pz              0.1       0.4       0.2       0.1       0.0      12.1
 5 O  px              0.0       2.2       2.1       1.2       0.0       7.1
 5 O  py              0.1       5.7       4.0       3.0       0.0       0.3
 5 O  dz2             0.2       0.2       0.2       0.0       0.0       8.2
 5 O  dxz             0.0       5.6       3.8       3.2       0.0      10.7
 5 O  dyz             0.1       0.4       0.3       0.1       0.0      13.0
 5 O  dx2y2           0.2       0.2       0.0       0.2       0.0       0.3
 5 O  dxy             0.0       4.9       3.4       2.1       0.0       7.9
 6 H  s               4.8       0.1       0.0       0.1       0.0       0.2
 6 H  pz              8.9       0.1       0.0       0.1       0.0       0.1
 6 H  px              1.4       0.0       0.1       0.0       0.0       0.0
 6 H  py              0.7       0.4       0.4       0.2       0.0       0.1
 7 H  s               2.7       0.3       0.5       0.0       0.0       0.0
 7 H  pz              1.1       0.0       0.0       0.0       0.0       0.0
 7 H  px              1.4       0.5       0.6       0.1       0.0       0.0
 7 H  py              3.5       0.1       0.2       0.0       0.0       0.0
 8 H  s               0.1       0.4       0.1       0.6       0.0       0.0
 8 H  pz              0.0       0.5       0.0       0.6       0.0       0.0
 8 H  px              0.5       0.1       0.0       0.0       0.0       0.0
 8 H  py              0.0       0.1       0.2       0.5       0.0       0.0
 9 H  s               4.9       0.2       0.1       0.0       0.1       0.0
 9 H  pz              1.5       0.1       0.3       0.0       0.0       0.0
 9 H  px              1.7       0.0       0.0       0.1       0.0       0.0
 9 H  py              7.6       0.4       0.2       0.0       0.1       0.0
10 H  s               3.7       0.1       0.4       0.0       0.0       0.0
10 H  pz              5.1       0.0       0.0       0.0       0.0       0.0
10 H  px              2.6       0.3       1.0       0.0       0.0       0.0
11 H  s               0.0       0.4       0.4       0.0       6.4       0.0
11 H  pz              0.3       0.1       0.1       0.0       0.6       0.0
11 H  px              0.1       0.2       0.1       0.0       1.2       0.0
11 H  py              0.0       0.3       0.3       0.0       6.1       0.0
12 H  s               0.0       0.0       0.0       0.6       7.3       0.1
12 H  pz              0.0       0.0       0.0       0.0       0.1       0.0
12 H  px              0.0       0.1       0.0       0.2       3.4       0.0
12 H  py              0.1       0.0       0.0       1.0       5.1       0.0
13 H  s               0.0       0.3       0.2       0.3       0.0      13.4
13 H  pz              0.0       0.3       0.3       0.3       0.0      10.2
13 H  px              0.0       0.1       0.0       0.4       0.0       3.9
13 H  py              0.0       0.1       0.1       0.0       0.0       2.2

                    162       163       164       165       166       167   
                   4.60743  22.02433  22.06750  22.11698  43.61390  43.65959
                   0.00000   0.00000   0.00000   0.00000   0.00000   0.00000
                  --------  --------  --------  --------  --------  --------
 0 C  s               0.0      78.3      18.7       2.6       0.1       0.0
 1 C  s               0.2       3.7       0.1      95.9       0.0       0.0
 1 C  px              0.2       0.0       0.0       0.0       0.0       0.0
 1 C  py              0.5       0.0       0.0       0.0       0.0       0.0
 1 C  dyz             0.1       0.0       0.0       0.0       0.0       0.0
 1 C  dxy             0.6       0.0       0.0       0.0       0.0       0.0
 2 C  s               0.1      17.6      80.8       1.1       0.0       0.0
 2 C  pz              0.4       0.0       0.0       0.0       0.0       0.0
 2 C  px              0.5       0.0       0.0       0.0       0.0       0.0
 2 C  dz2             0.6       0.0       0.0       0.0       0.0       0.0
 2 C  dxz             0.3       0.0       0.0       0.0       0.0       0.0
 2 C  dyz             0.1       0.0       0.0       0.0       0.0       0.0
 3 O  s               3.7       0.0       0.0       0.0      27.0      67.2
 3 O  pz              2.2       0.0       0.0       0.0       0.0       0.0
 3 O  px              2.4       0.0       0.0       0.0       0.0       0.0
 3 O  py              5.7       0.0       0.0       0.0       0.0       0.0
 3 O  dz2             5.2       0.0       0.0       0.0       0.0       0.0
 3 O  dyz             2.9       0.0       0.0       0.0       0.0       0.0
 3 O  dx2y2           6.3       0.0       0.0       0.0       0.0       0.0
 3 O  dxy             6.3       0.0       0.0       0.0       0.0       0.0
 4 O  s               3.0       0.0       0.0       0.1      14.9       0.1
 4 O  pz              0.2       0.0       0.0       0.0       0.0       0.0
 4 O  px              1.5       0.0       0.0       0.0       0.0       0.0
 4 O  py              8.5       0.0       0.0       0.0       0.0       0.0
 4 O  dz2             2.2       0.0       0.0       0.0       0.0       0.0
 4 O  dxz             0.4       0.0       0.0       0.0       0.0       0.0
 4 O  dx2y2           0.2       0.0       0.0       0.0       0.0       0.0
 4 O  dxy            15.4       0.0       0.0       0.0       0.0       0.0
 5 O  s               0.0       0.1       0.0       0.0      58.0      32.7
 9 H  py              0.1       0.0       0.0       0.0       0.0       0.0
11 H  s               6.8       0.0       0.0       0.0       0.0       0.0
11 H  pz              0.5       0.0       0.0       0.0       0.0       0.0
11 H  px              1.5       0.0       0.0       0.0       0.0       0.0
11 H  py              6.5       0.0       0.0       0.0       0.0       0.0
12 H  s               6.5       0.0       0.0       0.0       0.0       0.0
12 H  px              2.8       0.0       0.0       0.0       0.0       0.0
12 H  py              4.6       0.0       0.0       0.0       0.0       0.0

                    168   
                  43.72735
                   0.00000
                  --------
 3 O  s               5.8
 4 O  s              84.9
 5 O  s               9.2


                      *****************************
                      * MAYER POPULATION ANALYSIS *
                      *****************************

  NA   - Mulliken gross atomic population
  ZA   - Total nuclear charge
  QA   - Mulliken gross atomic charge
  VA   - Mayer's total valence
  BVA  - Mayer's bonded valence
  FA   - Mayer's free valence

  ATOM       NA         ZA         QA         VA         BVA        FA
  0 C      6.2470     6.0000    -0.2470     3.8860     3.8860    -0.0000
  1 C      5.8697     6.0000     0.1303     3.4934     3.4934    -0.0000
  2 C      6.1966     6.0000    -0.1966     3.8572     3.8572    -0.0000
  3 O      8.5077     8.0000    -0.5077     1.7972     1.7972    -0.0000
  4 O      8.5145     8.0000    -0.5145     1.7977     1.7977    -0.0000
  5 O      8.4954     8.0000    -0.4954     1.8298     1.8298     0.0000
  6 H      0.8360     1.0000     0.1640     0.9523     0.9523     0.0000
  7 H      0.8497     1.0000     0.1503     0.9503     0.9503    -0.0000
  8 H      0.8491     1.0000     0.1509     0.9546     0.9546    -0.0000
  9 H      0.8406     1.0000     0.1594     0.9551     0.9551    -0.0000
 10 H      0.8468     1.0000     0.1532     0.9507     0.9507    -0.0000
 11 H      0.6467     1.0000     0.3533     0.8845     0.8845     0.0000
 12 H      0.6538     1.0000     0.3462     0.8871     0.8871    -0.0000
 13 H      0.6463     1.0000     0.3537     0.8780     0.8780    -0.0000

  Mayer bond orders larger than 0.100000
B(  0-C ,  1-C ) :   0.9015 B(  0-C ,  5-O ) :   0.9835 B(  0-C ,  6-H ) :   0.9712 
B(  0-C ,  7-H ) :   0.9710 B(  1-C ,  2-C ) :   0.9479 B(  1-C ,  4-O ) :   0.8685 
B(  1-C ,  8-H ) :   0.9353 B(  2-C ,  3-O ) :   0.9673 B(  2-C ,  9-H ) :   0.9610 
B(  2-C , 10-H ) :   0.9643 B(  3-O , 11-H ) :   0.8545 B(  4-O , 12-H ) :   0.8710 
B(  5-O , 13-H ) :   0.8651 

-------
TIMINGS
-------

Total SCF time: 0 days 0 hours 0 min 21 sec 

Total time                  ....      21.678 sec
Sum of individual times     ....      21.075 sec  ( 97.2%)

SCF preparation             ....       0.288 sec  (  1.3%)
Fock matrix formation       ....      19.674 sec  ( 90.8%)
  Startup                   ....       0.067 sec  (  0.3% of F)
  Split-RI-J                ....       2.850 sec  ( 14.5% of F)
  XC integration            ....      13.332 sec  ( 67.8% of F)
    Basis function eval.    ....       2.281 sec  ( 17.1% of XC)
    Density eval.           ....       3.717 sec  ( 27.9% of XC)
    XC-Functional eval.     ....       1.878 sec  ( 14.1% of XC)
    XC-Potential eval.      ....       4.597 sec  ( 34.5% of XC)
  CPCM terms                ....       2.840 sec  ( 14.4% of F)
Diagonalization             ....       0.000 sec  (  0.0%)
Density matrix formation    ....       0.260 sec  (  1.2%)
Total Energy calculation    ....       0.048 sec  (  0.2%)
Population analysis         ....       0.093 sec  (  0.4%)
Orbital Transformation      ....       0.083 sec  (  0.4%)
Orbital Orthonormalization  ....       0.000 sec  (  0.0%)
DIIS solution               ....       0.584 sec  (  2.7%)
  MO trafo                  ....       0.000 sec  (  0.0 % of DIIS)
  Orb grad                  ....       0.000 sec  (  0.0 % of DIIS)
  Energy W gradient         ....       0.000 sec  (  0.0 % of DIIS)
  DIIS error                ....       0.007 sec  (  1.2 % of DIIS)
  DIIS work                 ....       0.495 sec  ( 84.7 % of DIIS)
  Form Q                    ....       0.000 sec  (  0.0 % of DIIS)
  Form QpQm                 ....       0.000 sec  (  0.0 % of DIIS)
  Exp/Cayley                ....       0.000 sec  (  0.0 % of DIIS)
  Orb update                ....       0.000 sec  (  0.0 % of DIIS)
  Wake-sleep                ....       0.023 sec  (  3.9 % of DIIS)
SOSCF solution              ....       0.046 sec  (  0.2%)
  MO trafo                  ....       0.033 sec  ( 71.9 % of SOSCF)
  Orb grad                  ....       0.000 sec  (  1.1 % of SOSCF)
  Rot update                ....       0.000 sec  (  0.1 % of SOSCF)
  Step                      ....       0.012 sec  ( 26.7 % of SOSCF)
Finished LeanSCF after  21.8 sec

Maximum memory used throughout the entire LEANSCF-calculation: 17.7 MB


-------------------------------------------------------------------------------
                          DFT DISPERSION CORRECTION                            
                                                                               
                                DFTD4 V3.4.0                                   
-------------------------------------------------------------------------------
The R2SCAN3C composite method is recognized
Using three-body term ABC
Active option DFTDOPT                   ...         5   

-------------------------   ----------------
Dispersion correction           -0.003057079
-------------------------   ----------------

------------------   -----------------
gCP correction             0.010560670
------------------   -----------------

-------------------------   --------------------
FINAL SINGLE POINT ENERGY      -344.744384143638
-------------------------   --------------------


------------------------------------------------------------------------------
                              ORCA PROPERTY CALCULATIONS
------------------------------------------------------------------------------

GBWName                                 ... sp_solv.gbw
Number of atoms                         ...     14
Number of basis functions               ...    169
Max core memory                         ...   1024 MB

Electric properties:
Dipole moment                           ... YES
Quadrupole moment                       ...  NO
Static polarizability (Dipole/Dipole)   ...  NO
Static polarizability (Dipole/Quad.)    ...  NO
Static polarizability (Quad./Quad.)     ...  NO
Static polarizability (Velocity)        ...  NO

Atomic electric properties:
Dipole moment                           ...  NO
Quadrupole moment                       ...  NO
Static polarizability                   ...  NO

Choice of electric origin               ... Center of mass
Position of electric origin             ...    -0.000005     0.000002     0.000009

General magnetic properties:
Magnetizability                         ...  NO

EPR properties:
g-Tensor (aka g-matrix)                 ...  NO
Zero-Field splitting spin-orbit         ...  NO
Zero-field splitting spin-spin          ...  NO
Hyperfine couplings                     ...  NO (   0 nuclei)
Quadrupole couplings                    ...  NO (   0 nuclei)
Contact density                         ...  NO (   0 nuclei)

NMR properties:
Chemical shifts                         ...  NO (   0 nuclei)
Spin-rotation constants                 ...  NO (   0 nuclei)
Spin-spin couplings                     ...  NO (   0 nuclei,    0 pairs)

Choice of magnetic origin               ... GIAO
Position of magnetic origin             ...     0.000000     0.000000     0.000000

Properties with geometric perturbations:
SCF Hessian                             ...  NO
IR spectrum                             ...  NO
VCD spectrum                            ...  NO
X-ray spectroscopy properties:
SCF XES/XAS/RIXS spectra                ...  NO


-------------
DIPOLE MOMENT
-------------

Method             : SCF
Type of density    : Electron Density
Multiplicity       :   1
Irrep              :   0
Energy             :  -344.7518877347101238 Eh
Relativity type    : 
Basis              : AO
                                X                 Y                 Z
Electronic contribution:      0.350479654       0.353326675      -0.435317801
Nuclear contribution   :     -1.192354868       1.208027182       1.334340843
                        -----------------------------------------
Total Dipole Moment    :     -0.841875214       1.561353857       0.899023043
                        -----------------------------------------
Magnitude (a.u.)       :      1.988673471
Magnitude (Debye)      :      5.054806251



--------------------
Rotational spectrum 
--------------------
 
Rotational constants in cm-1:             0.156147             0.089211             0.067903 
Rotational constants in MHz :          4681.162867          2674.478049          2035.683158 

Dipole components along the rotational axes: 
x,y,z [a.u.] :    -0.633583     1.739328     0.726726 
x,y,z [Debye]:    -1.610441     4.421021     1.847192 

 

Dipole moment calculation done in   0.0 sec 

Maximum memory used throughout the entire PROP-calculation: 9.9 MB

--------------------------------
SUGGESTED CITATIONS FOR THIS RUN
--------------------------------

Below you find a list of papers that are relevant to this ORCA run
We neither can nor want to force you to cite these papers, but we appreciate if you do
You receive ORCA, which is the product of decades of hard work by many enthusiastic individuals, for free
The only thing we kindly ask in return is that you cite our papers,
We deeply appreciate it, if you show your appreciation for ORCA by not just citing the generic ORCA reference.

Please note that relegating all ORCA citations to the supporting information does *not* help us.
SI sections are not indexed - citations you put there will not count into any citation statistics
But we need these citations in order to attract the funding resources that allow us to do what we are doing

Therefore, if you are a happy ORCA user, please consider citing a few of the papers listed below in the main body of your paper

In addition to the list printed below, the program has created the file sp_solv.bibtex that contains the list in bibtex format
You can import this file easily into all common literature databanks and citation aid programs


List of essential papers. We consider these as the minimum necessary citations

  1. Neese,F.
     Software update: the ORCA program system, version 5.0
     WIRES Comput. Molec. Sci., 2022 12(1)e1606
     doi.org/10.1002/wcms.1606
  2. Grimme,S.; Hansen,A.; Ehlert,S.; Mewes,J.
     r2SCAN-3c: A 'Swiss army knife' composite electronic-structure method
     J. Chem. Phys., 2021 154 064103
     doi.org/10.1063/5.0040021

List of papers to cite with high priority. The work reported in these papers was absolutely
necessary for this run to complete.
Our perspective: the developers of density functionals and basis sets usually get cited in chemistry papers
Good! But without the algorithms to do something with them, the functionals or basis sets would not do anything.
Hence, in our opinion, the algorithm design and method developments papers are equally worthy of getting cited

  1. Neese,F.
     An improvement of the resolution of the identity approximation for the formation of the Coulomb matrix
     J. Comp. Chem., 2003 24(14)1740-1747
     doi.org/10.1002/jcc.10318
  2. Garcia-Rates,M.; Neese,F.
     Effect of the Solute Cavity on the Solvation Energy and its Derivatives within the Framework of the Gaussian Charge Scheme
     J. Comput. Chem., 2020 41 922-939
     doi.org/10.1002/jcc.26139
  3. Neese,F.
     The SHARK Integral Generation and Digestion System
     J. Comp. Chem., 2022  1-16
     doi.org/10.1002/jcc.26942
  4. Lehtola,S.; Steigemann,C.; Oliveira,M.; Marques,M.
     Recent developments in Libxc - A comprehensive library of functionals for density functional theory
     Software X, 2018 7 
     doi.org/10.1016/j.softx.2017.11.002
  5. Caldeweyher,E.; Bannwarth,C.; Grimme,S.
     Extension of the D3 dispersion coefficient model
     J. Chem. Phys., 2017 147 034112-XXXX
     doi.org/10.1063/1.4993215
  6. Caldeweyher,E.; Ehlert,S.; Hansen,A.; Neugebauer,H.; Spicher,S.; Bannwarth,C.; Grimme,S.
     A generally applicable atomic-charge dependent London dispersion correction
     J. Chem. Phys., 2019 150 154122-XXXX
     doi.org/10.1063/1.5090222
  7. Caldeweyher,E.; Mewes,J.; Ehlert,S.; Grimme,S.
     Extension and evaluation of the D4 London-dispersion model for periodic systems
     Phys. Chem. Chem. Phys., 2020 22(16)8499-8512
     doi.org/10.1039/D0CP00502A

List of suggested additional citations. These are papers that are important in the 'surrounding' of 
of this run, or papers that preceded the highly important papers. If you like your results we are grateful for a citation.

  1. Neese,F.
     The ORCA program system
     WIRES Comput. Molec. Sci., 2012 2(1)73-78
     doi.org/10.1002/wcms.81
  2. Neese,F.
     Software update: the ORCA program system, version 4.0
     WIRES Comput. Molec. Sci., 2018 8(1)1-6
     doi.org/10.1002/wcms.1327
  3. Neese,F.; Wennmohs,F.; Becker,U.; Riplinger,C.
     The ORCA quantum chemistry program package
     J. Chem. Phys., 2020 152 Art. No. L224108
     doi.org/10.1063/5.0004608

List of optional additional citations

  1. Neese,F.
     Approximate second-order SCF convergence for spin unrestricted wavefunctions
     Chem. Phys. Lett., 2000 325(1-3)93-98
     doi.org/10.1016/s0009-2614(00)00662-x

Timings for individual modules:

Sum of individual times          ...       23.268 sec (=   0.388 min)
Startup calculation              ...        1.006 sec (=   0.017 min)   4.3 %
SCF iterations                   ...       22.152 sec (=   0.369 min)  95.2 %
Property calculations            ...        0.110 sec (=   0.002 min)   0.5 %
                             ****ORCA TERMINATED NORMALLY****
TOTAL RUN TIME: 0 days 0 hours 0 minutes 24 seconds 39 msec
