      -----------------------------------------------------------      
     |                   =====================                   |     
     |                           x T B                           |     
     |                   =====================                   |     
     |                         S. Grimme                         |     
     |          Mulliken Center for Theoretical Chemistry        |     
     |                    University of Bonn                     |     
      -----------------------------------------------------------      

   * xtb version 6.7.1 (edcfbbe) compiled by 'albert@albert-system' on 2024-07-22

   xtb is free software: you can redistribute it and/or modify it under
   the terms of the GNU Lesser General Public License as published by
   the Free Software Foundation, either version 3 of the License, or
   (at your option) any later version.
   
   xtb is distributed in the hope that it will be useful,
   but WITHOUT ANY WARRANTY; without even the implied warranty of
   MERCHANTABILITY or FITNESS FOR A PARTICULAR PURPOSE.  See the
   GNU Lesser General Public License for more details.
   
   Cite this work as:
   * C. Bannwarth, E. Caldeweyher, S. Ehlert, A. Hansen, P. Pracht,
     J. Seibert, S. Spicher, S. Grimme, WIREs Comput. Mol. Sci., 2020, 11,
     e01493. DOI: 10.1002/wcms.1493
   
   for GFN2-xTB:
   * C. Bannwarth, S. Ehlert and S. Grimme., J. Chem. Theory Comput., 2019,
     15, 1652-1671. DOI: 10.1021/acs.jctc.8b01176
   for GFN1-xTB:
   * S. Grimme, C. Bannwarth, P. Shushkov, J. Chem. Theory Comput., 2017,
     13, 1989-2009. DOI: 10.1021/acs.jctc.7b00118
   for GFN0-xTB:
   * P. Pracht, E. Caldeweyher, S. Ehlert, S. Grimme, ChemRxiv, 2019, preprint.
     DOI: 10.26434/chemrxiv.8326202.v1
   for GFN-FF:
   * S. Spicher and S. Grimme, Angew. Chem. Int. Ed., 2020, 59, 15665-15673.
     DOI: 10.1002/anie.202004239
   
   for ALPB and GBSA implicit solvation:
   * S. Ehlert, M. Stahn, S. Spicher, S. Grimme, J. Chem. Theory Comput.,
     2021, 17, 4250-4261. DOI: 10.1021/acs.jctc.1c00471
   
   for ddCOSMO and CPCM-X implicit solvation:
   * M. Stahn, S. Ehlert, S. Grimme, J. Phys. Chem. A,
     2023, XX, XXXX-XXXX. DOI: 10.1021/acs.jpca.3c04382
   
   for DFT-D4:
   * E. Caldeweyher, C. Bannwarth and S. Grimme, J. Chem. Phys., 2017,
     147, 034112. DOI: 10.1063/1.4993215
   * E. Caldeweyher, S. Ehlert, A. Hansen, H. Neugebauer, S. Spicher,
     C. Bannwarth and S. Grimme, J. Chem. Phys., 2019, 150, 154122.
     DOI: 10.1063/1.5090222
   * E. Caldeweyher, J.-M. Mewes, S. Ehlert and S. Grimme, Phys. Chem. Chem. Phys.
     2020, 22, 8499-8512. DOI: 10.1039/D0CP00502A
   
   for sTDA-xTB:
   * S. Grimme and C. Bannwarth, J. Chem. Phys., 2016, 145, 054103.
     DOI: 10.1063/1.4959605
   
   in the mass-spec context:
   * V. Asgeirsson, C. Bauer and S. Grimme, Chem. Sci., 2017, 8, 4879.
     DOI: 10.1039/c7sc00601b
   * J. Koopman and S. Grimme, ACS Omega 2019, 4, 12, 15120-15133.
     DOI: 10.1021/acsomega.9b02011
   
   for metadynamics refer to:
   * S. Grimme, J. Chem. Theory Comput., 2019, 155, 2847-2862
     DOI: 10.1021/acs.jctc.9b00143
   
   for SPH calculations refer to:
   * S. Spicher and S. Grimme, J. Chem. Theory Comput., 2021, 17, 1701-1714
     DOI: 10.1021/acs.jctc.0c01306
   
   for ONIOM refer to:
   * C. Plett, A. Katbashev, S. Ehlert, S. Grimme, M. Bursch,
     Phys. Chem. Chem. Phys., 2023, 25, 17860-17868. DOI: 10.1039/D3CP02178E
   
   for DIPRO refer to:
   * J. Kohn, N. Gildemeister, S. Grimme, D. Fazzi, A. Hansen,
     J. Chem. Phys., 2023, just accepted.
   
   for PTB refer to:
   * S. Grimme, M. Mueller, A. Hansen, J. Chem. Phys., 2023, 158, 124111.
     DOI: 10.1063/5.0137838
   
   with help from (in alphabetical order)
   P. Atkinson, C. Bannwarth, F. Bohle, G. Brandenburg, E. Caldeweyher
   M. Checinski, S. Dohm, S. Ehlert, S. Ehrlich, I. Gerasimov, C. Hölzer
   A. Katbashev, J. Kohn, J. Koopman, C. Lavigne, S. Lehtola, F. März, M. Müller,
   F. Musil, H. Neugebauer, J. Pisarek, C. Plett, P. Pracht, F. Pultar,
   J. Seibert, P. Shushkov, S. Spicher, M. Stahn, M. Steiner, T. Strunk,
   J. Stückrath, T. Rose, and J. Unsleber
   
 * started run on 2025/04/11 at 12:35:23.621     
   ID    Z sym.   atoms
    1    6 C      1-3, 5, 7
    2    8 O      4, 6
    3    1 H      8-17

           -------------------------------------------------
          |                Calculation Setup                |
           -------------------------------------------------

          program call               : /srv/scratch/z5358697/.xtb/bin/xtb xtb_rrho.coord --gfn2 --ohess vtight --chrg 0 --enso --norestart -I rrho-xcontrol-inp --parallel 1 --alpb water
          hostname                   : k078
          coordinate file            : xtb_rrho.coord
          omp threads                :                     1


           -------------------------------------------------
          |                 G F N 2 - x T B                 |
           -------------------------------------------------

        Reference                      10.1021/acs.jctc.8b01176
      * Hamiltonian:
        H0-scaling (s, p, d)           1.850000    2.230000    2.230000
        zeta-weighting                 0.500000
      * Dispersion:
        s8                             2.700000
        a1                             0.520000
        a2                             5.000000
        s9                             5.000000
      * Repulsion:
        kExp                           1.500000    1.000000
        rExp                           1.000000
      * Coulomb:
        alpha                          2.000000
        third order                    shell-resolved
        anisotropic                    true
        a3                             3.000000
        a5                             4.000000
        cn-shift                       1.200000
        cn-exp                         4.000000
        max-rad                        5.000000

      * Solvation model:               ALPB
        Solvent                        water
        Parameter file                 internal GFN2-xTB/ALPB
        Dielectric constant                8.0200E+01
        Reference state                gsolv [1 M gas/solution]
        Free energy shift                  1.0808E-03 Eh       6.7819E-01 kcal/mol
        Temperature                        2.9815E+02 K
        Density                            1.0000E+00 kg/L
        Solvent mass                       1.8000E+01 g/mol
        Interaction kernel             P16
        Born radius scaling (c1)           1.4744E+00
        Born radii integrator          GBOBC
        Born offset                        0.0000E+00 a0       0.0000E+00 AA
        H-bond correction              true
        Ion screening                  false
        Surface tension                    1.0000E-05 Eh       1.5569E+01 dyn/cm
        Grid points                               974 per atom

          ...................................................
          :                      SETUP                      :
          :.................................................:
          :  # basis functions                  38          :
          :  # atomic orbitals                  38          :
          :  # shells                           24          :
          :  # electrons                        42          :
          :  max. iterations                   250          :
          :  Hamiltonian                  GFN2-xTB          :
          :  restarted?                      false          :
          :  GBSA solvation                   true          :
          :  PC potential                    false          :
          :  electronic temp.          300.0000000     K    :
          :  accuracy                    1.0000000          :
          :  -> integral cutoff          0.2500000E+02      :
          :  -> integral neglect         0.1000000E-07      :
          :  -> SCF convergence          0.1000000E-05 Eh   :
          :  -> wf. convergence          0.1000000E-03 e    :
          :  Broyden damping             0.4000000          :
          :  net charge                          0          :
          :  unpaired electrons                  0          :
          ...................................................

 iter      E             dE          RMSdq      gap      omega  full diag
   1    -24.1548041 -0.241548E+02  0.408E+00    5.84       0.0  T
   2    -24.2131502 -0.583461E-01  0.200E+00    4.88       1.0  T
   3    -24.2151158 -0.196556E-02  0.106E+00    5.23       1.0  T
   4    -24.2165099 -0.139413E-02  0.165E-01    5.00       1.0  T
   5    -24.2166862 -0.176342E-03  0.711E-02    5.06       1.0  T
   6    -24.2166881 -0.183701E-05  0.232E-02    5.05       1.0  T
   7    -24.2166891 -0.997641E-06  0.487E-03    5.05       5.0  T
   8    -24.2166891 -0.372170E-07  0.273E-03    5.05       8.9  T
   9    -24.2166891 -0.163730E-07  0.567E-04    5.05      42.7  T
  10    -24.2166891 -0.111083E-08  0.304E-04    5.05      79.7  T

   *** convergence criteria satisfied after 10 iterations ***

         #    Occupation            Energy/Eh            Energy/eV
      -------------------------------------------------------------
         1        2.0000           -0.7437501             -20.2385
       ...           ...                  ...                  ...
        15        2.0000           -0.4762219             -12.9587
        16        2.0000           -0.4748618             -12.9216
        17        2.0000           -0.4676502             -12.7254
        18        2.0000           -0.4450147             -12.1095
        19        2.0000           -0.4418121             -12.0223
        20        2.0000           -0.4355474             -11.8518
        21        2.0000           -0.4262133             -11.5979 (HOMO)
        22                         -0.2404908              -6.5441 (LUMO)
        23                         -0.0243231              -0.6619
        24                          0.0863771               2.3504
        25                          0.1190324               3.2390
        26                          0.1263029               3.4369
       ...                                ...                  ...
        38                          0.5855738              15.9343
      -------------------------------------------------------------
                  HL-Gap            0.1857225 Eh            5.0538 eV
             Fermi-level           -0.3333520 Eh           -9.0710 eV

 SCC (total)                   0 d,  0 h,  0 min,  0.013 sec
 SCC setup                      ...        0 min,  0.001 sec (  7.915%)
 Dispersion                     ...        0 min,  0.000 sec (  0.671%)
 classical contributions        ...        0 min,  0.000 sec (  0.186%)
 integral evaluation            ...        0 min,  0.001 sec (  9.815%)
 iterations                     ...        0 min,  0.006 sec ( 49.351%)
 molecular gradient             ...        0 min,  0.004 sec ( 30.557%)
 printout                       ...        0 min,  0.000 sec (  1.368%)

         :::::::::::::::::::::::::::::::::::::::::::::::::::::
         ::                     SUMMARY                     ::
         :::::::::::::::::::::::::::::::::::::::::::::::::::::
         :: total energy             -23.957144057770 Eh    ::
         :: total w/o Gsasa/hb       -23.956869903258 Eh    ::
         :: gradient norm              0.034258486166 Eh/a0 ::
         :: HOMO-LUMO gap              5.053766324953 eV    ::
         ::.................................................::
         :: SCC energy               -24.216661810535 Eh    ::
         :: -> isotropic ES            0.060577248346 Eh    ::
         :: -> anisotropic ES          0.000524902993 Eh    ::
         :: -> anisotropic XC          0.006959497742 Eh    ::
         :: -> dispersion             -0.008878953735 Eh    ::
         :: -> Gsolv                  -0.010020878973 Eh    ::
         ::    -> Gelec               -0.009746724462 Eh    ::
         ::    -> Gsasa                0.001381497807 Eh    ::
         ::    -> Ghb                 -0.002736412016 Eh    ::
         ::    -> Gshift               0.001080759698 Eh    ::
         :: repulsion energy           0.259517752766 Eh    ::
         :: add. restraining           0.000000000000 Eh    ::
         :: total charge              -0.000000000000 e     ::
         :::::::::::::::::::::::::::::::::::::::::::::::::::::

      ----------------------------------------------------------- 
     |                   =====================                   |
     |                        A N C O P T                        |
     |                   =====================                   |
     |               Approximate Normal Coordinate               |
     |                Rational Function Optimizer                |
      ----------------------------------------------------------- 
      ----------------------------------------------------------- 
     |                   =====================                   |
     |                        A N C O P T                        |
     |                   =====================                   |
     |               Approximate Normal Coordinate               |
     |                Rational Function Optimizer                |
      ----------------------------------------------------------- 

          ...................................................
          :                      SETUP                      :
          :.................................................:
          :   optimization level         verytight          :
          :   max. optcycles                   340          :
          :   ANC micro-cycles                  20          :
          :   degrees of freedom                45          :
          :.................................................:
          :   RF solver                   davidson          :
          :   write xtbopt.log                true          :
          :   linear?                        false          :
          :   energy convergence         0.1000000E-06 Eh   :
          :   grad. convergence          0.2000000E-03 Eh/α :
          :   maxmium RF displ.          1.0000000          :
          :   Hlow (freq-cutoff)         0.1000000E-01      :
          :   Hmax (freq-cutoff)         5.0000000          :
          :   S6 in model hess.         20.0000000          :
          ...................................................

generating ANC from exact Hessian ...
Using Lindh-Hessian (1995)
 Shifting diagonal of input Hessian by   8.062364157486932E-003
 Lowest  eigenvalues of input Hessian
    0.000000    0.000000    0.000000    0.000000    0.000000    0.000000
    0.010000    0.010739    0.012696    0.015873    0.020713    0.021728
    0.033569    0.036870    0.043733    0.051584    0.059070    0.061918
 Highest eigenvalues
    1.167618    1.223296    1.243808    1.302611    1.746666    2.272840
 

........................................................................
.............................. CYCLE    1 ..............................
........................................................................

 iter      E             dE          RMSdq      gap      omega  full diag
   1    -24.2166891 -0.242167E+02  0.859E-05    5.05       0.0  T
   2    -24.2166891 -0.369553E-10  0.363E-05    5.05     667.6  T
   3    -24.2166891 -0.469669E-11  0.221E-05    5.05    1096.9  T
     SCC iter.                  ...        0 min,  0.001 sec
     gradient                   ...        0 min,  0.004 sec
 * total energy  :   -23.9571441 Eh     change       -0.1465033E-09 Eh
   gradient norm :     0.0342565 Eh/α   predicted     0.0000000E+00 (-100.00%)
   displ. norm   :     0.1100758 α      lambda       -0.1794602E-02
   maximum displ.:     0.0408651 α      in ANC's #10, #11, #9, ...

........................................................................
.............................. CYCLE    2 ..............................
........................................................................

 iter      E             dE          RMSdq      gap      omega  full diag
   1    -24.2259969 -0.242260E+02  0.124E-01    5.17       0.0  T
   2    -24.2260169 -0.200151E-04  0.715E-02    5.14       1.0  T
   3    -24.2260167  0.218790E-06  0.238E-02    5.15       1.0  T
   4    -24.2260185 -0.183776E-05  0.374E-03    5.15       6.5  T
   5    -24.2260186 -0.709884E-07  0.161E-03    5.15      15.1  T
   6    -24.2260186 -0.253339E-08  0.450E-04    5.15      53.8  T
   7    -24.2260186 -0.122089E-09  0.157E-04    5.15     154.1  T
     SCC iter.                  ...        0 min,  0.003 sec
     gradient                   ...        0 min,  0.004 sec
 * total energy  :   -23.9582817 Eh     change       -0.1137667E-02 Eh
   gradient norm :     0.0134313 Eh/α   predicted    -0.9081748E-03 ( -20.17%)
   displ. norm   :     0.0778164 α      lambda       -0.3525226E-03
   maximum displ.:     0.0495827 α      in ANC's #3, #8, #2, ...

........................................................................
.............................. CYCLE    3 ..............................
........................................................................

 iter      E             dE          RMSdq      gap      omega  full diag
   1    -24.2293527 -0.242294E+02  0.486E-02    5.18       0.0  T
   2    -24.2293651 -0.123769E-04  0.275E-02    5.17       1.0  T
   3    -24.2293654 -0.375240E-06  0.146E-02    5.17       1.7  T
   4    -24.2293655 -0.237358E-07  0.333E-03    5.17       7.3  T
   5    -24.2293655 -0.703798E-07  0.931E-04    5.17      26.1  T
   6    -24.2293655 -0.114376E-08  0.344E-04    5.17      70.4  T
     SCC iter.                  ...        0 min,  0.002 sec
     gradient                   ...        0 min,  0.004 sec
 * total energy  :   -23.9584907 Eh     change       -0.2089761E-03 Eh
   gradient norm :     0.0041526 Eh/α   predicted    -0.1773290E-03 ( -15.14%)
   displ. norm   :     0.0567899 α      lambda       -0.5438038E-04
   maximum displ.:     0.0485308 α      in ANC's #3, #2, #5, ...

........................................................................
.............................. CYCLE    4 ..............................
........................................................................

 iter      E             dE          RMSdq      gap      omega  full diag
   1    -24.2291335 -0.242291E+02  0.225E-02    5.17       0.0  T
   2    -24.2291350 -0.151317E-05  0.131E-02    5.17       1.9  T
   3    -24.2291350 -0.408419E-07  0.546E-03    5.17       4.4  T
   4    -24.2291350 -0.799865E-08  0.679E-04    5.17      35.7  T
   5    -24.2291350 -0.173663E-08  0.407E-04    5.17      59.5  T
     SCC iter.                  ...        0 min,  0.002 sec
     gradient                   ...        0 min,  0.004 sec
 * total energy  :   -23.9585283 Eh     change       -0.3757097E-04 Eh
   gradient norm :     0.0015159 Eh/α   predicted    -0.2727801E-04 ( -27.40%)
   displ. norm   :     0.0929907 α      lambda       -0.2805526E-04
   maximum displ.:     0.0778887 α      in ANC's #3, #2, #4, ...

........................................................................
.............................. CYCLE    5 ..............................
........................................................................

 iter      E             dE          RMSdq      gap      omega  full diag
   1    -24.2281720 -0.242282E+02  0.326E-02    5.16       0.0  T
   2    -24.2281726 -0.543988E-06  0.193E-02    5.16       1.3  T
   3    -24.2281726 -0.693614E-08  0.307E-03    5.15       7.9  T
   4    -24.2281726 -0.373883E-07  0.880E-04    5.16      27.6  T
   5    -24.2281726 -0.425334E-08  0.484E-04    5.16      50.1  T
     SCC iter.                  ...        0 min,  0.002 sec
     gradient                   ...        0 min,  0.004 sec
 * total energy  :   -23.9585508 Eh     change       -0.2252508E-04 Eh
   gradient norm :     0.0026037 Eh/α   predicted    -0.1408162E-04 ( -37.48%)
   displ. norm   :     0.0264084 α      lambda       -0.1078847E-04
   maximum displ.:     0.0200897 α      in ANC's #3, #1, #2, ...

........................................................................
.............................. CYCLE    6 ..............................
........................................................................

 iter      E             dE          RMSdq      gap      omega  full diag
   1    -24.2282081 -0.242282E+02  0.978E-03    5.16       0.0  T
   2    -24.2282082 -0.116100E-06  0.571E-03    5.16       4.2  T
   3    -24.2282082 -0.327336E-08  0.146E-03    5.16      16.6  T
   4    -24.2282082 -0.126570E-08  0.207E-04    5.16     117.0  T
   5    -24.2282082 -0.119336E-09  0.120E-04    5.16     201.9  T
     SCC iter.                  ...        0 min,  0.002 sec
     gradient                   ...        0 min,  0.004 sec
 * total energy  :   -23.9585596 Eh     change       -0.8796758E-05 Eh
   gradient norm :     0.0018161 Eh/α   predicted    -0.5399241E-05 ( -38.62%)
   displ. norm   :     0.0924714 α      lambda       -0.1879327E-04
   maximum displ.:     0.0623944 α      in ANC's #3, #1, #4, ...

........................................................................
.............................. CYCLE    7 ..............................
........................................................................

 iter      E             dE          RMSdq      gap      omega  full diag
   1    -24.2286293 -0.242286E+02  0.360E-02    5.16       0.0  T
   2    -24.2286306 -0.123800E-05  0.211E-02    5.16       1.1  T
   3    -24.2286306 -0.361577E-07  0.454E-03    5.16       5.3  T
   4    -24.2286306 -0.195279E-07  0.808E-04    5.16      30.0  T
   5    -24.2286306 -0.277661E-08  0.455E-04    5.16      53.3  T
     SCC iter.                  ...        0 min,  0.002 sec
     gradient                   ...        0 min,  0.004 sec
 * total energy  :   -23.9585741 Eh     change       -0.1453347E-04 Eh
   gradient norm :     0.0015872 Eh/α   predicted    -0.9432798E-05 ( -35.10%)
   displ. norm   :     0.0450749 α      lambda       -0.5258894E-05
   maximum displ.:     0.0276065 α      in ANC's #3, #1, #4, ...

........................................................................
.............................. CYCLE    8 ..............................
........................................................................

 iter      E             dE          RMSdq      gap      omega  full diag
   1    -24.2287165 -0.242287E+02  0.165E-02    5.16       0.0  T
   2    -24.2287165 -0.656680E-07  0.977E-03    5.16       2.5  T
   3    -24.2287165 -0.637887E-08  0.850E-04    5.16      28.5  T
   4    -24.2287165 -0.191508E-08  0.329E-04    5.16      73.7  T
     SCC iter.                  ...        0 min,  0.002 sec
     gradient                   ...        0 min,  0.004 sec
 * total energy  :   -23.9585802 Eh     change       -0.6085108E-05 Eh
   gradient norm :     0.0009973 Eh/α   predicted    -0.2632340E-05 ( -56.74%)
   displ. norm   :     0.0609368 α      lambda       -0.5323108E-05
   maximum displ.:     0.0380247 α      in ANC's #1, #3, #4, ...

........................................................................
.............................. CYCLE    9 ..............................
........................................................................

 iter      E             dE          RMSdq      gap      omega  full diag
   1    -24.2287098 -0.242287E+02  0.250E-02    5.16       0.0  T
   2    -24.2287100 -0.151804E-06  0.147E-02    5.16       1.6  T
   3    -24.2287100 -0.147595E-07  0.122E-03    5.16      19.9  T
   4    -24.2287100 -0.252650E-08  0.419E-04    5.16      57.9  T
   5    -24.2287100 -0.871019E-10  0.188E-04    5.16     128.9  T
     SCC iter.                  ...        0 min,  0.002 sec
     gradient                   ...        0 min,  0.004 sec
 * total energy  :   -23.9585850 Eh     change       -0.4830338E-05 Eh
   gradient norm :     0.0003716 Eh/α   predicted    -0.2665541E-05 ( -44.82%)
   displ. norm   :     0.0271071 α      lambda       -0.1349350E-05
   maximum displ.:     0.0218195 α      in ANC's #1, #4, #5, ...

........................................................................
.............................. CYCLE   10 ..............................
........................................................................

 iter      E             dE          RMSdq      gap      omega  full diag
   1    -24.2287154 -0.242287E+02  0.108E-02    5.16       0.0  T
   2    -24.2287154 -0.639420E-08  0.636E-03    5.16       3.8  T
   3    -24.2287154 -0.305785E-08  0.332E-04    5.16      73.0  T
   4    -24.2287154 -0.103320E-09  0.185E-04    5.16     131.0  T
     SCC iter.                  ...        0 min,  0.002 sec
     gradient                   ...        0 min,  0.004 sec
 * total energy  :   -23.9585866 Eh     change       -0.1540954E-05 Eh
   gradient norm :     0.0003205 Eh/α   predicted    -0.6761800E-06 ( -56.12%)
   displ. norm   :     0.0150563 α      lambda       -0.8020065E-06
   maximum displ.:     0.0129402 α      in ANC's #1, #3, #6, ...

........................................................................
.............................. CYCLE   11 ..............................
........................................................................

 iter      E             dE          RMSdq      gap      omega  full diag
   1    -24.2287731 -0.242288E+02  0.615E-03    5.16       0.0  T
   2    -24.2287731 -0.409651E-08  0.362E-03    5.16       6.7  T
   3    -24.2287731 -0.112849E-08  0.211E-04    5.16     115.1  T
   4    -24.2287731 -0.767635E-10  0.119E-04    5.16     203.8  T
     SCC iter.                  ...        0 min,  0.002 sec
     gradient                   ...        0 min,  0.004 sec
 * total energy  :   -23.9585875 Eh     change       -0.9251711E-06 Eh
   gradient norm :     0.0002272 Eh/α   predicted    -0.4015512E-06 ( -56.60%)
   displ. norm   :     0.0125501 α      lambda       -0.4835194E-06
   maximum displ.:     0.0110473 α      in ANC's #1, #3, #7, ...

........................................................................
.............................. CYCLE   12 ..............................
........................................................................

 iter      E             dE          RMSdq      gap      omega  full diag
   1    -24.2287090 -0.242287E+02  0.582E-03    5.16       0.0  T
   2    -24.2287090 -0.505288E-08  0.342E-03    5.16       7.1  T
   3    -24.2287090 -0.892459E-09  0.229E-04    5.16     106.0  T
   4    -24.2287090 -0.173408E-09  0.116E-04    5.16     209.0  T
     SCC iter.                  ...        0 min,  0.002 sec
     gradient                   ...        0 min,  0.004 sec
 * total energy  :   -23.9585880 Eh     change       -0.5377766E-06 Eh
   gradient norm :     0.0000911 Eh/α   predicted    -0.2409297E-06 ( -55.20%)
   displ. norm   :     0.0099301 α      lambda       -0.2872387E-06
   maximum displ.:     0.0084428 α      in ANC's #1, #3, #7, ...

........................................................................
.............................. CYCLE   13 ..............................
........................................................................

 iter      E             dE          RMSdq      gap      omega  full diag
   1    -24.2287100 -0.242287E+02  0.501E-03    5.16       0.0  T
   2    -24.2287100 -0.155777E-08  0.294E-03    5.16       8.2  T
   3    -24.2287100 -0.773554E-09  0.165E-04    5.16     146.8  T
   4    -24.2287100 -0.535074E-10  0.102E-04    5.16     237.8  T
     SCC iter.                  ...        0 min,  0.002 sec
     gradient                   ...        0 min,  0.004 sec
 * total energy  :   -23.9585884 Eh     change       -0.3663285E-06 Eh
   gradient norm :     0.0001115 Eh/α   predicted    -0.1424554E-06 ( -61.11%)
   displ. norm   :     0.0136599 α      lambda       -0.3675955E-06
   maximum displ.:     0.0112485 α      in ANC's #1, #7, #5, ...

........................................................................
.............................. CYCLE   14 ..............................
........................................................................

 iter      E             dE          RMSdq      gap      omega  full diag
   1    -24.2287064 -0.242287E+02  0.783E-03    5.16       0.0  T
   2    -24.2287064 -0.287906E-08  0.460E-03    5.16       5.3  T
   3    -24.2287064 -0.187908E-08  0.238E-04    5.16     101.7  T
   4    -24.2287064 -0.296403E-10  0.113E-04    5.16     214.3  T
     SCC iter.                  ...        0 min,  0.002 sec
     gradient                   ...        0 min,  0.004 sec
 * total energy  :   -23.9585889 Eh     change       -0.4864667E-06 Eh
   gradient norm :     0.0001123 Eh/α   predicted    -0.1850378E-06 ( -61.96%)
   displ. norm   :     0.0270766 α      lambda       -0.5999851E-06
   maximum displ.:     0.0216242 α      in ANC's #1, #2, #7, ...

........................................................................
.............................. CYCLE   15 ..............................
........................................................................

 iter      E             dE          RMSdq      gap      omega  full diag
   1    -24.2286792 -0.242287E+02  0.164E-02    5.16       0.0  T
   2    -24.2286792 -0.128481E-07  0.962E-03    5.16       2.5  T
   3    -24.2286792 -0.857591E-08  0.506E-04    5.16      47.9  T
   4    -24.2286793 -0.100393E-09  0.191E-04    5.16     126.7  T
     SCC iter.                  ...        0 min,  0.002 sec
     gradient                   ...        0 min,  0.004 sec
 * total energy  :   -23.9585896 Eh     change       -0.6631882E-06 Eh
   gradient norm :     0.0001238 Eh/α   predicted    -0.3005369E-06 ( -54.68%)
   displ. norm   :     0.0236584 α      lambda       -0.2819177E-06
   maximum displ.:     0.0182757 α      in ANC's #1, #2, #7, ...

........................................................................
.............................. CYCLE   16 ..............................
........................................................................

 iter      E             dE          RMSdq      gap      omega  full diag
   1    -24.2286878 -0.242287E+02  0.150E-02    5.16       0.0  T
   2    -24.2286878 -0.110127E-07  0.882E-03    5.16       2.7  T
   3    -24.2286878 -0.729852E-08  0.466E-04    5.16      52.0  T
   4    -24.2286878 -0.104031E-09  0.171E-04    5.16     142.1  T
     SCC iter.                  ...        0 min,  0.002 sec
     gradient                   ...        0 min,  0.004 sec
 * total energy  :   -23.9585898 Eh     change       -0.2747529E-06 Eh
   gradient norm :     0.0001008 Eh/α   predicted    -0.1400326E-06 ( -49.03%)
   displ. norm   :     0.0094402 α      lambda       -0.8215901E-07
   maximum displ.:     0.0059835 α      in ANC's #1, #2, #7, ...

........................................................................
.............................. CYCLE   17 ..............................
........................................................................

 iter      E             dE          RMSdq      gap      omega  full diag
   1    -24.2287011 -0.242287E+02  0.602E-03    5.16       0.0  T
   2    -24.2287011 -0.212281E-08  0.353E-03    5.16       6.9  T
   3    -24.2287011 -0.120939E-08  0.214E-04    5.16     113.1  T
   4    -24.2287011 -0.118739E-09  0.133E-04    5.16     181.8  T
     SCC iter.                  ...        0 min,  0.002 sec
     gradient                   ...        0 min,  0.004 sec
 * total energy  :   -23.9585899 Eh     change       -0.9789235E-07 Eh
   gradient norm :     0.0000629 Eh/α   predicted    -0.3931609E-07 ( -59.84%)
   displ. norm   :     0.0110211 α      lambda       -0.1082852E-06
   maximum displ.:     0.0068334 α      in ANC's #2, #1, #7, ...

   *** GEOMETRY OPTIMIZATION CONVERGED AFTER 17 ITERATIONS ***

------------------------------------------------------------------------
 total energy gain   :        -0.0014459 Eh       -0.9073 kcal/mol
 total RMSD          :         0.1254330 a0        0.0664 Å
 total power (kW/mol):        -0.2233030 (step)  -25.1856 (real)
------------------------------------------------------------------------

 ANCopt (total)                0 d,  0 h,  0 min,  0.151 sec
 optimizer setup                ...        0 min,  0.000 sec (  0.193%)
 model hessian                  ...        0 min,  0.003 sec (  1.694%)
 ANC generation                 ...        0 min,  0.000 sec (  0.272%)
 coordinate transformation      ...        0 min,  0.000 sec (  0.080%)
 single point calculation       ...        0 min,  0.135 sec ( 89.259%)
 optimization log               ...        0 min,  0.010 sec (  6.452%)
 hessian update                 ...        0 min,  0.000 sec (  0.077%)
 rational function              ...        0 min,  0.002 sec (  1.410%)

================
 final structure:
================
$coord
       -4.86588365865096       -0.07925520104697        1.97787027806469      C
       -4.07505952591329        1.00965179643685       -0.56880361021568      C
       -1.59887841840418       -0.12258413182108       -1.49391919056822      C
        0.39089511898042        0.69501963811636        0.15806017761627      O
        2.69868525433185       -0.18161123911415       -0.27070856381193      C
        3.19206996552015       -1.61640628141236       -1.99426259806495      O
        4.56480773862591        0.78897830283925        1.62626419661283      C
       -5.15663499631036       -2.10849249689618        1.83407640165268      H
       -3.40922445808191        0.27546158999501        3.38157357263724      H
       -6.61460756993396        0.78954718176377        2.61067742074162      H
       -3.84145364686864        3.05085320593770       -0.41213806705585      H
       -5.51984990175171        0.62255303290264       -1.98464279675351      H
       -1.65543172081799       -2.19154188302782       -1.48392554013454      H
       -1.14699546916602        0.49937644003317       -3.41532811850236      H
        4.79470302315525       -0.63223626398269        3.09424399788638      H
        3.86826483613995        2.52271959049754        2.46867565788351      H
        6.38148962772499        1.07711043053068        0.71809632216825      H
$end
 
 Bond Distances (Angstroems)
 ---------------------------
C1-C2=1.5242         C1-H8=1.0875         C1-H9=1.0868         C1-H10=1.0862        C2-C1=1.5242         C2-C3=1.5217         
C2-H11=1.0904        C2-H12=1.0899        C3-C2=1.5217         C3-O4=1.4353         C3-H13=1.0953        C3-H14=1.0951        
O4-C3=1.4353         O4-C5=1.3259         C5-O4=1.3259         C5-O6=1.2151         C5-C7=1.4989         O6-C5=1.2151         
C7-C5=1.4989         C7-H15=1.0881        C7-H16=1.0846        C7-H17=1.0855        H8-C1=1.0875         H9-C1=1.0868         
H10-C1=1.0862        H11-C2=1.0904        H12-C2=1.0899        H13-C3=1.0953        H14-C3=1.0951        H15-C7=1.0881        
H16-C7=1.0846        H17-C7=1.0855        
 C  H  Rav=1.0889 sigma=0.0036  Rmin=1.0846  Rmax=1.0953    10
 C  C  Rav=1.5149 sigma=0.0114  Rmin=1.4989  Rmax=1.5242     3
 O  C  Rav=1.3254 sigma=0.0899  Rmin=1.2151  Rmax=1.4353     3
 
 selected bond angles (degree)
 --------------------
H8-C1-C2=110.50                H9-C1-C2=110.14                H9-C1-H8=108.59                H10-C1-C2=110.27               
H10-C1-H8=108.60               H10-C1-H9=108.69               C3-C2-C1=111.84                H11-C2-C1=109.78               
H11-C2-C3=108.47               H12-C2-C1=110.13               H12-C2-C3=107.99               H12-C2-H11=108.54              
O4-C3-C2=108.49                H13-C3-C2=111.62               H13-C3-O4=108.57               H14-C3-C2=111.62               
H14-C3-O4=108.34               H14-C3-H13=108.11              C5-O4-C3=117.77                O6-C5-O4=123.02                
C7-C5-O4=111.86                C7-C5-O6=125.12                H15-C7-C5=108.36               H16-C7-C5=109.95               
H16-C7-H15=109.22              H17-C7-C5=109.58               H17-C7-H15=108.31              H17-C7-H16=111.35              
 
 selected dihedral angles (degree)
 ---------------------------------
C3-C2-C1-H8=298.87            C3-C2-C1-H9= 58.84            C3-C2-C1-H10=178.79           H11-C2-C1-H8=178.41           
H11-C2-C1-H9=298.38           H11-C2-C1-H10= 58.33          H12-C2-C1-H8= 58.96           H12-C2-C1-H9=178.93           
H12-C2-C1-H10=298.88          O4-C3-C2-C1=292.80            O4-C3-C2-H11= 54.01           O4-C3-C2-H12=171.46           
H13-C3-C2-C1= 52.38           H13-C3-C2-H11=173.60          H13-C3-C2-H12=291.05          H14-C3-C2-C1=173.49           
H14-C3-C2-H11=294.71          H14-C3-C2-H12= 52.16          C5-O4-C3-C2=177.22            C5-O4-C3-H13= 55.74           
C5-O4-C3-H14=298.56           O6-C5-O4-C3=  0.52            C7-C5-O4-C3=181.13            H15-C7-C5-O4= 96.87           
H15-C7-C5-O6=277.49           H16-C7-C5-O4=337.56           H16-C7-C5-O6=158.18           H17-C7-C5-O4=214.86           
H17-C7-C5-O6= 35.48           
           -------------------------------------------------
          |                Final Singlepoint                |
           -------------------------------------------------

          ...................................................
          :                      SETUP                      :
          :.................................................:
          :  # basis functions                  38          :
          :  # atomic orbitals                  38          :
          :  # shells                           24          :
          :  # electrons                        42          :
          :  max. iterations                   250          :
          :  Hamiltonian                  GFN2-xTB          :
          :  restarted?                      false          :
          :  GBSA solvation                   true          :
          :  PC potential                    false          :
          :  electronic temp.          300.0000000     K    :
          :  accuracy                    1.0000000          :
          :  -> integral cutoff          0.2500000E+02      :
          :  -> integral neglect         0.1000000E-07      :
          :  -> SCF convergence          0.1000000E-05 Eh   :
          :  -> wf. convergence          0.1000000E-03 e    :
          :  Broyden damping             0.4000000          :
          :  net charge                          0          :
          :  unpaired electrons                  0          :
          ...................................................

 iter      E             dE          RMSdq      gap      omega  full diag
   1    -24.2287011 -0.242287E+02  0.157E-05    5.16       0.0  T
   2    -24.2287011 -0.511591E-12  0.935E-06    5.16    2592.8  T
   3    -24.2287011 -0.675016E-13  0.485E-06    5.16    5000.3  T

   *** convergence criteria satisfied after 3 iterations ***

         #    Occupation            Energy/Eh            Energy/eV
      -------------------------------------------------------------
         1        2.0000           -0.7490354             -20.3823
       ...           ...                  ...                  ...
        15        2.0000           -0.4771187             -12.9831
        16        2.0000           -0.4752702             -12.9328
        17        2.0000           -0.4675681             -12.7232
        18        2.0000           -0.4445425             -12.0966
        19        2.0000           -0.4403949             -11.9838
        20        2.0000           -0.4366664             -11.8823
        21        2.0000           -0.4255650             -11.5802 (HOMO)
        22                         -0.2359903              -6.4216 (LUMO)
        23                         -0.0002527              -0.0069
        24                          0.0882976               2.4027
        25                          0.1199850               3.2650
        26                          0.1396133               3.7991
       ...                                ...                  ...
        38                          0.6112047              16.6317
      -------------------------------------------------------------
                  HL-Gap            0.1895747 Eh            5.1586 eV
             Fermi-level           -0.3307776 Eh           -9.0009 eV

 SCC (total)                   0 d,  0 h,  0 min,  0.007 sec
 SCC setup                      ...        0 min,  0.001 sec ( 13.515%)
 Dispersion                     ...        0 min,  0.000 sec (  0.854%)
 classical contributions        ...        0 min,  0.000 sec (  0.217%)
 integral evaluation            ...        0 min,  0.001 sec ( 16.227%)
 iterations                     ...        0 min,  0.001 sec ( 18.089%)
 molecular gradient             ...        0 min,  0.004 sec ( 48.918%)
 printout                       ...        0 min,  0.000 sec (  1.967%)

         :::::::::::::::::::::::::::::::::::::::::::::::::::::
         ::                     SUMMARY                     ::
         :::::::::::::::::::::::::::::::::::::::::::::::::::::
         :: total energy             -23.958589935099 Eh    ::
         :: total w/o Gsasa/hb       -23.958300996724 Eh    ::
         :: gradient norm              0.000063222292 Eh/a0 ::
         :: HOMO-LUMO gap              5.158589865404 eV    ::
         ::.................................................::
         :: SCC energy               -24.228674027067 Eh    ::
         :: -> isotropic ES            0.059960143328 Eh    ::
         :: -> anisotropic ES          0.000090123140 Eh    ::
         :: -> anisotropic XC          0.006291376195 Eh    ::
         :: -> dispersion             -0.008929293965 Eh    ::
         :: -> Gsolv                  -0.009914657271 Eh    ::
         ::    -> Gelec               -0.009625718896 Eh    ::
         ::    -> Gsasa                0.001341647195 Eh    ::
         ::    -> Ghb                 -0.002711345268 Eh    ::
         ::    -> Gshift               0.001080759698 Eh    ::
         :: repulsion energy           0.270084091968 Eh    ::
         :: add. restraining           0.000000000000 Eh    ::
         :: total charge               0.000000000000 e     ::
         :::::::::::::::::::::::::::::::::::::::::::::::::::::

           ------------------------------------------------- 
          |                Numerical Hessian                |
           ------------------------------------------------- 
step length          :   0.00500
SCC accuracy         :   0.30000
Hessian scale factor :   1.00000
frozen atoms in %    :   0.00000    0
RMS gradient         :   0.00006
estimated CPU  time      0.01 min
estimated wall time      0.01 min

writing file <hessian>.

 projected vibrational frequencies (cm⁻¹)
eigval :       -0.00    -0.00    -0.00    -0.00     0.00     0.00
eigval :       17.21    48.06    82.11   154.29   193.62   224.50
eigval :      292.81   393.74   447.36   581.47   621.51   792.90
eigval :      902.77   927.72   937.56   989.13  1004.84  1017.75
eigval :     1100.64  1119.22  1143.28  1204.78  1218.34  1251.14
eigval :     1318.43  1340.61  1359.12  1407.05  1422.13  1429.38
eigval :     1458.95  1463.86  1492.82  1498.58  1691.73  2924.78
eigval :     2945.97  2996.21  3003.74  3026.32  3034.42  3046.08
eigval :     3051.26  3058.10  3073.11
           -------------------------------------------------
          |                Property Printout                |
           -------------------------------------------------

    * Orbital Energies and Occupations

         #    Occupation            Energy/Eh            Energy/eV
      -------------------------------------------------------------
         1        2.0000           -0.7490354             -20.3823
       ...           ...                  ...                  ...
         9        2.0000           -0.5660687             -15.4035
        10        2.0000           -0.5458087             -14.8522
        11        2.0000           -0.5248171             -14.2810
        12        2.0000           -0.5018869             -13.6570
        13        2.0000           -0.5000195             -13.6062
        14        2.0000           -0.4852666             -13.2048
        15        2.0000           -0.4771187             -12.9831
        16        2.0000           -0.4752702             -12.9328
        17        2.0000           -0.4675681             -12.7232
        18        2.0000           -0.4445425             -12.0966
        19        2.0000           -0.4403949             -11.9838
        20        2.0000           -0.4366664             -11.8823
        21        2.0000           -0.4255650             -11.5802 (HOMO)
        22                         -0.2359903              -6.4216 (LUMO)
        23                         -0.0002527              -0.0069
        24                          0.0882976               2.4027
        25                          0.1199850               3.2650
        26                          0.1396133               3.7991
        27                          0.1477212               4.0197
        28                          0.1575506               4.2872
        29                          0.1672319               4.5506
        30                          0.1823552               4.9621
        31                          0.1908795               5.1941
        32                          0.2081597               5.6643
       ...                                ...                  ...
        38                          0.6112047              16.6317
      -------------------------------------------------------------
                  HL-Gap            0.1895747 Eh            5.1586 eV
             Fermi-level           -0.3307776 Eh           -9.0009 eV

     #   Z          covCN         q      C6AA      α(0)
     1   6 C        3.753    -0.118    22.821     6.812
     2   6 C        3.800    -0.069    21.822     6.651
     3   6 C        3.699     0.075    19.487     6.313
     4   8 O        1.704    -0.264    18.383     5.789
     5   6 C        2.713     0.368    20.763     7.459
     6   8 O        0.856    -0.499    23.769     6.537
     7   6 C        3.754    -0.172    23.908     6.972
     8   1 H        0.925     0.044     2.399     2.422
     9   1 H        0.925     0.050     2.322     2.383
    10   1 H        0.925     0.053     2.288     2.365
    11   1 H        0.924     0.063     2.166     2.302
    12   1 H        0.925     0.060     2.198     2.318
    13   1 H        0.924     0.055     2.262     2.352
    14   1 H        0.924     0.052     2.294     2.368
    15   1 H        0.925     0.110     1.696     2.037
    16   1 H        0.925     0.098     1.806     2.102
    17   1 H        0.925     0.096     1.818     2.108

 Mol. C6AA /au·bohr⁶  :       2199.555978
 Mol. C8AA /au·bohr⁸  :      46911.317732
 Mol. α(0) /au        :         69.290659


Wiberg/Mayer (AO) data.
largest (>0.10) Wiberg bond orders for each atom

 ---------------------------------------------------------------------------
     #   Z sym  total        # sym  WBO       # sym  WBO       # sym  WBO
 ---------------------------------------------------------------------------
     1   6 C    3.994 --     2 C    1.020     8 H    0.987     9 H    0.987
                            10 H    0.986
     2   6 C    3.990 --     1 C    1.020     3 C    1.006    11 H    0.974
                            12 H    0.973
     3   6 C    3.916 --     2 C    1.006    14 H    0.968    13 H    0.968
                             4 O    0.923
     4   8 O    2.321 --     5 C    1.168     3 C    0.923     6 O    0.169
     5   6 C    3.904 --     6 O    1.685     4 O    1.168     7 C    1.000
     6   8 O    1.961 --     5 C    1.685     4 O    0.169
     7   6 C    3.982 --     5 C    1.000    16 H    0.975    17 H    0.968
                            15 H    0.944
     8   1 H    0.998 --     1 C    0.987
     9   1 H    0.998 --     1 C    0.987
    10   1 H    0.997 --     1 C    0.986
    11   1 H    0.996 --     2 C    0.974
    12   1 H    0.996 --     2 C    0.973
    13   1 H    0.997 --     3 C    0.968
    14   1 H    0.997 --     3 C    0.968
    15   1 H    0.988 --     7 C    0.944
    16   1 H    0.990 --     7 C    0.975
    17   1 H    0.990 --     7 C    0.968
 ---------------------------------------------------------------------------

Topologies differ in total number of bonds
Writing topology from bond orders to xtbtopo.mol

molecular dipole:
                 x           y           z       tot (Debye)
 q only:       -0.699       0.730       0.901
   full:       -0.642       0.702       0.861       3.260
molecular quadrupole (traceless):
                xx          xy          yy          xz          yz          zz
 q only:        4.503       3.932      -2.789       7.468      -2.070      -1.714
  q+dip:        2.840       4.490      -1.195       7.660      -3.144      -1.645
   full:        3.014       4.643      -1.477       7.702      -3.486      -1.537

           -------------------------------------------------
          |                Geometry Summary                 |
           -------------------------------------------------

      molecular mass/u    :      102.1318968
   center of mass at/Å    :        0.0288951       0.0320828      -0.0375681
  moments of inertia/u·Å² :        0.8875448E+02   0.3662466E+03   0.4168139E+03
rotational constants/cm⁻¹ :        0.1899356E+00   0.4602809E-01   0.4044402E-01

 * 15 selected distances

     #   Z          #   Z                                           value/Å
     1   6 C        2   6 C                                       1.5242390 (max)
     2   6 C        3   6 C                                       1.5217200
     3   6 C        4   8 O                                       1.4353011
     4   8 O        5   6 C                                       1.3259264
     5   6 C        6   8 O                                       1.2151163
     1   6 C        8   1 H                                       1.0874582
     1   6 C        9   1 H                                       1.0868202
     1   6 C       10   1 H                                       1.0862061
     2   6 C       11   1 H                                       1.0903644
     2   6 C       12   1 H                                       1.0898823
     3   6 C       13   1 H                                       1.0952671
     3   6 C       14   1 H                                       1.0951343
     7   6 C       15   1 H                                       1.0880568
     7   6 C       16   1 H                                       1.0845795 (min)
     7   6 C       17   1 H                                       1.0855388

 * 3 distinct bonds (by element types)

   Z      Z             #   av. dist./Å        max./Å        min./Å
   1 H    6 C          10     1.0889308     1.0952671     1.0845795
   6 C    6 C           2     1.5229795     1.5242390     1.5217200
   6 C    8 O           3     1.3254479     1.4353011     1.2151163

           -------------------------------------------------
          |               Frequency Printout                |
           -------------------------------------------------
 projected vibrational frequencies (cm⁻¹)
eigval :       -0.00    -0.00    -0.00    -0.00     0.00     0.00
eigval :       17.21    48.06    82.11   154.29   193.62   224.50
eigval :      292.81   393.74   447.36   581.47   621.51   792.90
eigval :      902.77   927.72   937.56   989.13  1004.84  1017.75
eigval :     1100.64  1119.22  1143.28  1204.78  1218.34  1251.14
eigval :     1318.43  1340.61  1359.12  1407.05  1422.13  1429.38
eigval :     1458.95  1463.86  1492.82  1498.58  1691.73  2924.78
eigval :     2945.97  2996.21  3003.74  3026.32  3034.42  3046.08
eigval :     3051.26  3058.10  3073.11
 reduced masses (amu)
   1: 11.90   2: 10.71   3: 10.68   4: 12.53   5: 10.85   6: 11.19   7: 12.39   8:  1.55
   9:  7.93  10:  7.78  11: 11.00  12:  5.99  13:  7.69  14:  9.81  15:  8.67  16:  9.69
  17: 11.72  18:  3.80  19:  4.86  20:  8.71  21:  8.24  22:  9.25  23:  6.64  24:  7.20
  25:  7.85  26:  7.77  27:  6.56  28: 11.57  29:  2.96  30:  2.69  31:  3.77  32:  4.90
  33:  3.49  34:  3.20  35:  1.68  36:  1.64  37:  1.89  38:  1.93  39:  1.53  40:  1.58
  41: 13.32  42:  1.98  43:  1.46  44:  1.98  45:  1.49  46:  1.77  47:  1.84  48:  1.93
  49:  1.38  50:  1.46  51:  1.96
 IR intensities (km·mol⁻¹)
   1:  1.35   2:  0.88   3:  1.47   4:  0.29   5:  0.43   6:  0.43   7:  3.78   8:  2.26
   9:  1.62  10:  5.40  11:  5.84  12:  6.73  13:  5.29  14:  7.25  15:  1.12  16: 17.13
  17: 12.42  18:  5.07  19:  1.68  20: 30.32  21:  6.22  22: 11.12  23: 33.61  24: 59.68
  25: 36.56  26:  3.11  27:  9.90  28:623.32  29:  7.96  30:  2.18  31:  4.60  32:  1.49
  33: 67.36  34:  2.63  35: 21.69  36:  5.53  37:  0.42  38:  0.28  39:  2.65  40:  1.94
  41:674.97  42: 42.47  43: 38.26  44: 38.49  45: 34.64  46:  0.24  47: 73.18  48: 58.22
  49: 34.41  50:  1.53  51:  6.33
 Raman intensities (Ä⁴*amu⁻¹)
   1:  0.00   2:  0.00   3:  0.00   4:  0.00   5:  0.00   6:  0.00   7:  0.00   8:  0.00
   9:  0.00  10:  0.00  11:  0.00  12:  0.00  13:  0.00  14:  0.00  15:  0.00  16:  0.00
  17:  0.00  18:  0.00  19:  0.00  20:  0.00  21:  0.00  22:  0.00  23:  0.00  24:  0.00
  25:  0.00  26:  0.00  27:  0.00  28:  0.00  29:  0.00  30:  0.00  31:  0.00  32:  0.00
  33:  0.00  34:  0.00  35:  0.00  36:  0.00  37:  0.00  38:  0.00  39:  0.00  40:  0.00
  41:  0.00  42:  0.00  43:  0.00  44:  0.00  45:  0.00  46:  0.00  47:  0.00  48:  0.00
  49:  0.00  50:  0.00  51:  0.00
 output can be read by thermo (or use thermo option).
 writing <g98.out> molden fake output.
 recommended (thermochemical) frequency scaling factor: 1.0
           -------------------------------------------------
          |             Thermodynamic Functions             |
           -------------------------------------------------

Molecule has no symmetry elements
It seems to be the C1 point group
c1  symmetry found (for desy threshold:  0.10E+00) used in thermo

          ...................................................
          :                      SETUP                      :
          :.................................................:
          :  # frequencies                          45      :
          :  # imaginary freq.                       0      :
          :  linear?                             false      :
          :  only rotor calc.                    false      :
          :  symmetry                               c1      :
          :  rotational number                       1      :
          :  scaling factor                  1.0000000      :
          :  rotor cutoff                    0.0000000 cm⁻¹ :
          :  imag. cutoff                 -100.0000000 cm⁻¹ :
          :.................................................:

    mode    ω/cm⁻¹     T·S(HO)/kcal·mol⁻¹    T·S(FR)/kcal·mol⁻¹   T·S(vib)
   ------------------------------------------------------------------------
       1     17.21    -2.06693 (100.00%)    -1.37150 (  0.00%)    -2.06693
       2     48.06    -1.45967 (100.00%)    -1.06793 (  0.00%)    -1.45967
       3     82.11    -1.14483 (100.00%)    -0.90939 (  0.00%)    -1.14483
       4    154.29    -0.78074 (100.00%)    -0.72263 (  0.00%)    -0.78074
       5    193.62    -0.65380 (100.00%)    -0.65538 (  0.00%)    -0.65380
       6    224.50    -0.57319 (100.00%)    -0.61156 (  0.00%)    -0.57319
       7    292.81    -0.43461 (100.00%)    -0.53289 (  0.00%)    -0.43461
   ------------------------------------------------------------------------

   temp. (K)  partition function   enthalpy   heat capacity  entropy
                                   cal/mol     cal/K/mol   cal/K/mol   J/K/mol
 298.15  VIB  0.194E+04             3827.698     23.672     27.881
         ROT  0.281E+06              888.752      2.981     27.915
         INT  0.545E+09             4716.451     26.653     55.795
         TR   0.999E+27             1481.254      4.968     39.763
         TOT                        6197.7044    31.6209    95.5581   399.8152

       T/K    H(0)-H(T)+PV         H(T)/Eh          T*S/Eh         G(T)/Eh
   ------------------------------------------------------------------------
    298.15    0.987667E-02    0.152739E+00    0.454028E-01    0.107336E+00
   ------------------------------------------------------------------------

         :::::::::::::::::::::::::::::::::::::::::::::::::::::
         ::                  THERMODYNAMIC                  ::
         :::::::::::::::::::::::::::::::::::::::::::::::::::::
         :: total free energy         -23.851253465414 Eh   ::
         ::.................................................::
         :: total energy              -23.958589935139 Eh   ::
         :: zero point energy           0.142862552675 Eh   ::
         :: G(RRHO) w/o ZPVE           -0.035526082950 Eh   ::
         :: G(RRHO) contrib.            0.107336469725 Eh   ::
         :::::::::::::::::::::::::::::::::::::::::::::::::::::

optimized geometry written to: xtbopt.coord


           -------------------------------------------------
          | TOTAL ENERGY              -23.958589935139 Eh   |
          | TOTAL ENTHALPY            -23.805850711771 Eh   |
          | TOTAL FREE ENERGY         -23.851253465414 Eh   |
          | GRADIENT NORM               0.000063233908 Eh/α |
          | HOMO-LUMO GAP               5.158588880616 eV   |
           -------------------------------------------------

------------------------------------------------------------------------
 * finished run on 2025/04/11 at 12:35:24.703     
------------------------------------------------------------------------
 total:
 * wall-time:     0 d,  0 h,  0 min,  1.082 sec
 *  cpu-time:     0 d,  0 h,  0 min,  0.997 sec
 * ratio c/w:     0.922 speedup
 SCF:
 * wall-time:     0 d,  0 h,  0 min,  0.013 sec
 *  cpu-time:     0 d,  0 h,  0 min,  0.012 sec
 * ratio c/w:     0.951 speedup
 ANC optimizer:
 * wall-time:     0 d,  0 h,  0 min,  0.171 sec
 *  cpu-time:     0 d,  0 h,  0 min,  0.151 sec
 * ratio c/w:     0.886 speedup
 analytical hessian:
 * wall-time:     0 d,  0 h,  0 min,  0.833 sec
 *  cpu-time:     0 d,  0 h,  0 min,  0.821 sec
 * ratio c/w:     0.986 speedup

