      -----------------------------------------------------------      
     |                   =====================                   |     
     |                           x T B                           |     
     |                   =====================                   |     
     |                         S. Grimme                         |     
     |          Mulliken Center for Theoretical Chemistry        |     
     |                    University of Bonn                     |     
      -----------------------------------------------------------      

   * xtb version 6.7.1 (edcfbbe) compiled by 'albert@albert-system' on 2024-07-22

   xtb is free software: you can redistribute it and/or modify it under
   the terms of the GNU Lesser General Public License as published by
   the Free Software Foundation, either version 3 of the License, or
   (at your option) any later version.
   
   xtb is distributed in the hope that it will be useful,
   but WITHOUT ANY WARRANTY; without even the implied warranty of
   MERCHANTABILITY or FITNESS FOR A PARTICULAR PURPOSE.  See the
   GNU Lesser General Public License for more details.
   
   Cite this work as:
   * C. Bannwarth, E. Caldeweyher, S. Ehlert, A. Hansen, P. Pracht,
     J. Seibert, S. Spicher, S. Grimme, WIREs Comput. Mol. Sci., 2020, 11,
     e01493. DOI: 10.1002/wcms.1493
   
   for GFN2-xTB:
   * C. Bannwarth, S. Ehlert and S. Grimme., J. Chem. Theory Comput., 2019,
     15, 1652-1671. DOI: 10.1021/acs.jctc.8b01176
   for GFN1-xTB:
   * S. Grimme, C. Bannwarth, P. Shushkov, J. Chem. Theory Comput., 2017,
     13, 1989-2009. DOI: 10.1021/acs.jctc.7b00118
   for GFN0-xTB:
   * P. Pracht, E. Caldeweyher, S. Ehlert, S. Grimme, ChemRxiv, 2019, preprint.
     DOI: 10.26434/chemrxiv.8326202.v1
   for GFN-FF:
   * S. Spicher and S. Grimme, Angew. Chem. Int. Ed., 2020, 59, 15665-15673.
     DOI: 10.1002/anie.202004239
   
   for ALPB and GBSA implicit solvation:
   * S. Ehlert, M. Stahn, S. Spicher, S. Grimme, J. Chem. Theory Comput.,
     2021, 17, 4250-4261. DOI: 10.1021/acs.jctc.1c00471
   
   for ddCOSMO and CPCM-X implicit solvation:
   * M. Stahn, S. Ehlert, S. Grimme, J. Phys. Chem. A,
     2023, XX, XXXX-XXXX. DOI: 10.1021/acs.jpca.3c04382
   
   for DFT-D4:
   * E. Caldeweyher, C. Bannwarth and S. Grimme, J. Chem. Phys., 2017,
     147, 034112. DOI: 10.1063/1.4993215
   * E. Caldeweyher, S. Ehlert, A. Hansen, H. Neugebauer, S. Spicher,
     C. Bannwarth and S. Grimme, J. Chem. Phys., 2019, 150, 154122.
     DOI: 10.1063/1.5090222
   * E. Caldeweyher, J.-M. Mewes, S. Ehlert and S. Grimme, Phys. Chem. Chem. Phys.
     2020, 22, 8499-8512. DOI: 10.1039/D0CP00502A
   
   for sTDA-xTB:
   * S. Grimme and C. Bannwarth, J. Chem. Phys., 2016, 145, 054103.
     DOI: 10.1063/1.4959605
   
   in the mass-spec context:
   * V. Asgeirsson, C. Bauer and S. Grimme, Chem. Sci., 2017, 8, 4879.
     DOI: 10.1039/c7sc00601b
   * J. Koopman and S. Grimme, ACS Omega 2019, 4, 12, 15120-15133.
     DOI: 10.1021/acsomega.9b02011
   
   for metadynamics refer to:
   * S. Grimme, J. Chem. Theory Comput., 2019, 155, 2847-2862
     DOI: 10.1021/acs.jctc.9b00143
   
   for SPH calculations refer to:
   * S. Spicher and S. Grimme, J. Chem. Theory Comput., 2021, 17, 1701-1714
     DOI: 10.1021/acs.jctc.0c01306
   
   for ONIOM refer to:
   * C. Plett, A. Katbashev, S. Ehlert, S. Grimme, M. Bursch,
     Phys. Chem. Chem. Phys., 2023, 25, 17860-17868. DOI: 10.1039/D3CP02178E
   
   for DIPRO refer to:
   * J. Kohn, N. Gildemeister, S. Grimme, D. Fazzi, A. Hansen,
     J. Chem. Phys., 2023, just accepted.
   
   for PTB refer to:
   * S. Grimme, M. Mueller, A. Hansen, J. Chem. Phys., 2023, 158, 124111.
     DOI: 10.1063/5.0137838
   
   with help from (in alphabetical order)
   P. Atkinson, C. Bannwarth, F. Bohle, G. Brandenburg, E. Caldeweyher
   M. Checinski, S. Dohm, S. Ehlert, S. Ehrlich, I. Gerasimov, C. Hölzer
   A. Katbashev, J. Kohn, J. Koopman, C. Lavigne, S. Lehtola, F. März, M. Müller,
   F. Musil, H. Neugebauer, J. Pisarek, C. Plett, P. Pracht, F. Pultar,
   J. Seibert, P. Shushkov, S. Spicher, M. Stahn, M. Steiner, T. Strunk,
   J. Stückrath, T. Rose, and J. Unsleber
   
 * started run on 2025/04/11 at 12:03:47.823     
   ID    Z sym.   atoms
    1    6 C      1-5
    2    8 O      6
    3    1 H      7-18

           -------------------------------------------------
          |                Calculation Setup                |
           -------------------------------------------------

          program call               : /srv/scratch/z5358697/.xtb/bin/xtb xtb_opt.coord --opt normal --orca -I xtb_opt-xcontrol-inp
          hostname                   : k071
          coordinate file            : xtb_opt.coord
          omp threads                :                    16

           -------------------------------------------------
          |                   Orca driver                   |
           -------------------------------------------------
orca executable           : /apps/z_install_tree/linux-rocky8-ivybridge/gcc-12.2.0/orca-6.0.0-srtngmq3qlimg2qxbl6avaaiffipurdx/bin/orca
orca input file           : xtb_opt.inp
orca input line           : 
orca parallel             : true
orca number of threads    : 16
                         * ORCA takes the control...
  ------------------------------------------------------------------------

                                 *****************
                                 * O   R   C   A *
                                 *****************

                                            #,                                       
                                            ###                                      
                                            ####                                     
                                            #####                                    
                                            ######                                   
                                           ########,                                 
                                     ,,################,,,,,                         
                               ,,#################################,,                 
                          ,,##########################################,,             
                       ,#########################################, ''#####,          
                    ,#############################################,,   '####,        
                  ,##################################################,,,,####,       
                ,###########''''           ''''###############################       
              ,#####''   ,,,,##########,,,,          '''####'''          '####       
            ,##' ,,,,###########################,,,                        '##       
           ' ,,###''''                  '''############,,,                           
         ,,##''                                '''############,,,,        ,,,,,,###''
      ,#''                                            '''#######################'''  
     '                                                          ''''####''''         
             ,#######,   #######,   ,#######,      ##                                
            ,#'     '#,  ##    ##  ,#'     '#,    #''#        ,####,   ,####,        
            ##       ##  ##   ,#'  ##            #'  '#       #'       #'  '#        
            ##       ##  #######   ##           ,######,      #####,   #    #        
            '#,     ,#'  ##    ##  '#,     ,#' ,#      #,     #,   #   #,  ,#        
             '#######'   ##     ##  '#######'  #'      '#     '####' # '####'        



                #########################################################
                #                        -***-                          #
                #          Department of theory and spectroscopy        #
                #                                                       #
                #                      Frank Neese                      #
                #                                                       #
                #     Directorship, Architecture, Infrastructure        #
                #                    SHARK, DRIVERS                     #
                #        Core code/Algorithms in most modules           #
                #                                                       #
                #        Max Planck Institute fuer Kohlenforschung      #
                #                Kaiser Wilhelm Platz 1                 #
                #                 D-45470 Muelheim/Ruhr                 #
                #                      Germany                          #
                #                                                       #
                #                  All rights reserved                  #
                #                        -***-                          #
                #########################################################


                         Program Version 6.0.0  -   RELEASE  -


 With contributions from (in alphabetic order):
   Daniel Aravena         : Magnetic Suceptibility
   Michael Atanasov       : Ab Initio Ligand Field Theory (pilot matlab implementation)
   Alexander A. Auer      : GIAO ZORA, VPT2 properties, NMR spectrum
   Ute Becker             : All parallelization in ORCA, NUMFREQ, NUMCALC
   Giovanni Bistoni       : ED, misc. LED, open-shell LED, HFLD
   Martin Brehm           : Molecular dynamics
   Dmytro Bykov           : pre 5.0 version of the SCF Hessian
   Marcos Casanova-Páez   : Triplet and SCS-CIS(D). UHF-(DLPNO)-IP/EA/STEOM-CCSD. UHF-CVS-IP/STEOM-CCSD
   Vijay G. Chilkuri      : MRCI spin determinant printing, contributions to CSF-ICE
   Pauline Colinet        : FMM embedding
   Dipayan Datta          : RHF DLPNO-CCSD density
   Achintya Kumar Dutta   : EOM-CC, STEOM-CC
   Nicolas Foglia         : Exact transition moments, OPA infrastructure, MCD improvements
   Dmitry Ganyushin       : Spin-Orbit,Spin-Spin,Magnetic field MRCI
   Miquel Garcia          : C-PCM and meta-GGA Hessian, CCSD/C-PCM, Gaussian charge scheme
   Tiago L. C. Gouveia    : GS-ROHF, GS-ROCIS
   Yang Guo               : DLPNO-NEVPT2, F12-NEVPT2, CIM, IAO-localization
   Andreas Hansen         : Spin unrestricted coupled pair/coupled cluster methods
   Ingolf Harden          : AUTO-CI MPn and infrastructure 
   Benjamin Helmich-Paris : MC-RPA, TRAH-(SCF,CASSCF), AVAS, COSX integrals, SCF dyn. polar.
   Lee Huntington         : MR-EOM, pCC
   Robert Izsak           : Overlap fitted RIJCOSX, COSX-SCS-MP3, EOM
   Riya Kayal             : Wick's Theorem for AUTO-CI, AUTO-CI UHF-CCSDT
   Emily Kempfer          : AUTO-CI, RHF CISDT and CCSDT
   Christian Kollmar      : KDIIS, OOCD, Brueckner-CCSD(T), CCSD density, CASPT2, CASPT2-K, improved NEVPT2
   Axel Koslowski         : Symmetry handling
   Simone Kossmann        : Meta GGA functionals, TD-DFT gradient, OOMP2, (MP2 Hessian; deprecated post 5.0)
   Lucas Lang             : DCDCAS
   Marvin Lechner         : AUTO-CI (C++ implementation), FIC-MRCC
   Spencer Leger          : CASSCF response
   Dagmar Lenk            : GEPOL surface, SMD, ORCA-2-JSON
   Dimitrios Liakos       : Extrapolation schemes; Compound Job, initial MDCI parallelization
   Dimitrios Manganas     : Further ROCIS development; embedding schemes. LFT, Crystal Embedding
   Dimitrios Pantazis     : SARC Basis sets
   Anastasios Papadopoulos: AUTO-CI, single reference methods and gradients
   Taras Petrenko         : pre 6.0 DFT Hessian and TD-DFT gradient, (ASA, deprecated), ECA, 1-Electron XAS/XES, NRVS
   Peter Pinski           : DLPNO-MP2, DLPNO-MP2 Gradient
   Christoph Reimann      : Effective Core Potentials
   Marius Retegan         : Local ZFS, SOC
   Christoph Riplinger    : Optimizer, TS searches, QM/MM, DLPNO-CCSD(T), (RO)-DLPNO pert. Triples
   Michael Roemelt        : Original ROCIS implementation
   Masaaki Saitow         : Open-shell DLPNO-CCSD energy and density
   Barbara Sandhoefer     : DKH picture change effects
   Kantharuban Sivalingam : CASSCF convergence/infrastructure, NEVPT2 and variants, FIC-MRCI
   Bernardo de Souza      : ESD, SOC TD-DFT
   Georgi Stoychev        : AutoAux, RI-MP2 NMR, DLPNO-MP2 response, X2C
   Van Anh Tran           : RI-MP2 g-tensors
   Willem Van den Heuvel  : Paramagnetic NMR
   Zikuan Wang            : NOTCH, Electric field optimization 
   Frank Wennmohs         : Technical directorship and infrastructure
   Hang Xu                : AUTO-CI-Response properties 


 We gratefully acknowledge several colleagues who have allowed us to
 interface, adapt or use parts of their codes:
   Stefan Grimme, W. Hujo, H. Kruse, P. Pracht,  : VdW corrections, initial TS optimization,
                  C. Bannwarth, S. Ehlert,         DFT functionals, gCP, sTDA/sTD-DF
                  L. Wittmann, M. Mueller
   Ed Valeev, F. Pavosevic, A. Kumar             : LibInt (2-el integral package), F12 methods
   Garnet Chan, S. Sharma, J. Yang, R. Olivares  : DMRG
   Ulf Ekstrom                                   : XCFun DFT Library
   Mihaly Kallay                                 : mrcc  (arbitrary order and MRCC methods)
   Frank Weinhold                                : gennbo (NPA and NBO analysis)
   Simon Mueller                                 : openCOSMO-RS
   Christopher J. Cramer and Donald G. Truhlar   : smd solvation model
   Lars Goerigk                                  : TD-DFT with DH, B97 family of functionals
   V. Asgeirsson, H. Jonsson                     : NEB implementation
   FAccTs GmbH                                   : IRC, NEB, NEB-TS, DLPNO-Multilevel, CI-OPT
                                                   MM, QMMM, 2- and 3-layer-ONIOM, Crystal-QMMM,
                                                   LR-CPCM, SF, NACMEs, symmetry and pop. for TD-DFT,
                                                   nearIR, NL-DFT gradient (VV10), updates on ESD,
                                                   ML-optimized integration grids, MBIS, APM,
                                                   GOAT, DOCKER, SOLVATOR, interface openCOSMO-RS
   S Lehtola, MJT Oliveira, MAL Marques          : LibXC Library
   Liviu Ungur et al                             : ANISO software


 Your calculation uses the libint2 library for the computation of 2-el integrals
 For citations please refer to: http://libint.valeyev.net

 Your ORCA version has been built with support for libXC version: 6.2.2
 For citations please refer to: https://libxc.gitlab.io

 This ORCA versions uses:
   CBLAS   interface :  Fast vector & matrix operations
   LAPACKE interface :  Fast linear algebra routines
   SCALAPACK package :  Parallel linear algebra routines
   Shared memory     :  Shared parallel matrices
   BLAS/LAPACK       :  OpenBLAS 0.3.27  USE64BITINT DYNAMIC_ARCH NO_AFFINITY SkylakeX SINGLE_THREADED
        Core in use  :  SkylakeX
   Copyright (c) 2011-2014, The OpenBLAS Project




***************************************
The coordinates will be read from file: xtb_opt.xyz
***************************************


Your calculation utilizes the geometrical counterpoise correction gCP
Please cite in your paper:
H.Kruse, S. Grimme J.Chem.Phys., 136, (2012), 154101 
   

Your calculation utilizes the atom-pairwise dispersion correction
based on EEQ partial charges (D4)


Your calculation utilizes the SMD solvation module
Please cite in your paper:
A.V. Marenich, C.J. Cramer, D.G. Truhlar J. Phys. Chem. B, 113, (2009), 6378 

================================================================================

----- Orbital basis set information -----
Your calculation utilizes the basis: def2-mTZVPP
   Stefan Grimme, Andreas Hansen, Sebastian Ehlert, and Jan-Michael Mewes 
   J. Chem. Phys. 154, 064103 (2021). DOI: 10.1063/5.0040021

----- AuxJ basis set information -----
Your calculation utilizes the auxiliary basis: def2/J
   F. Weigend, Phys. Chem. Chem. Phys. 8, 1057 (2006).

================================================================================
                                        WARNINGS
                       Please study these warnings very carefully!
================================================================================

Using LibXC functional ID 497 : Re-regularized SCAN exchange by Furness et al
[ 1]  J. W. Furness, A. D. Kaplan, J. Ning, J. P. Perdew, and J. Sun.,  J. Phys. Chem. Lett. 11, 8208-8215 (2020)
[ 2]  J. W. Furness, A. D. Kaplan, J. Ning, J. P. Perdew, and J. Sun.,  J. Phys. Chem. Lett. 11, 9248-9248 (2020)
Using LibXC functional ID 498 : Re-regularized SCAN correlation by Furness et al
[ 1]  J. W. Furness, A. D. Kaplan, J. Ning, J. P. Perdew, and J. Sun.,  J. Phys. Chem. Lett. 11, 8208-8215 (2020)
[ 2]  J. W. Furness, A. D. Kaplan, J. Ning, J. P. Perdew, and J. Sun.,  J. Phys. Chem. Lett. 11, 9248-9248 (2020)
Using LibXC functional ID 497 : Re-regularized SCAN exchange by Furness et al
[ 1]  J. W. Furness, A. D. Kaplan, J. Ning, J. P. Perdew, and J. Sun.,  J. Phys. Chem. Lett. 11, 8208-8215 (2020)
[ 2]  J. W. Furness, A. D. Kaplan, J. Ning, J. P. Perdew, and J. Sun.,  J. Phys. Chem. Lett. 11, 9248-9248 (2020)
Using LibXC functional ID 498 : Re-regularized SCAN correlation by Furness et al
[ 1]  J. W. Furness, A. D. Kaplan, J. Ning, J. P. Perdew, and J. Sun.,  J. Phys. Chem. Lett. 11, 8208-8215 (2020)
[ 2]  J. W. Furness, A. D. Kaplan, J. Ning, J. P. Perdew, and J. Sun.,  J. Phys. Chem. Lett. 11, 9248-9248 (2020)

================================================================================
                                       INPUT FILE
================================================================================
NAME = xtb_opt.inp
|  1> ! r2scan-3c def2/J RI DEFGRID2 scfconv7 ENGRAD tightSCF miniprint
|  2> %cpcm
|  3>     smd true
|  4>     smdsolvent "water"
|  5> end
|  6> * xyzfile 0 1 xtb_opt.xyz
|  7> 
|  8>                          ****END OF INPUT****
================================================================================

                     *******************************
                     * Energy+Gradient Calculation *
                     *******************************

---------------------------------
CARTESIAN COORDINATES (ANGSTROEM)
---------------------------------
  C     -1.618594    0.665851   -0.965150
  C     -1.380134    0.358656    0.508665
  C     -0.023419   -0.298155    0.820834
  C      1.201118    0.577660    0.492329
  C      1.720691    0.443186   -0.935635
  O      0.123493   -1.545413    0.165957
  H     -2.669807    0.888004   -1.133202
  H     -1.036710    1.526397   -1.281983
  H     -1.341736   -0.189802   -1.576284
  H     -1.456836    1.273743    1.097957
  H     -2.162249   -0.321482    0.858188
  H     -0.008774   -0.469541    1.912984
  H      0.947386    1.616613    0.706157
  H      2.007174    0.284170    1.168101
  H      1.906737   -0.603309   -1.160666
  H      1.012849    0.828930   -1.660993
  H      2.652922    0.994085   -1.035085
  H     -0.615560   -2.117034    0.411347

----------------------------
CARTESIAN COORDINATES (A.U.)
----------------------------
  NO LB      ZA    FRAG     MASS         X           Y           Z
   0 C     6.0000    0    12.011   -3.058700    1.258276   -1.823868
   1 C     6.0000    0    12.011   -2.608076    0.677762    0.961237
   2 C     6.0000    0    12.011   -0.044255   -0.563431    1.551151
   3 C     6.0000    0    12.011    2.269784    1.091618    0.930368
   4 C     6.0000    0    12.011    3.251634    0.837500   -1.768094
   5 O     8.0000    0    15.999    0.233367   -2.920407    0.313613
   6 H     1.0000    0     1.008   -5.045205    1.678084   -2.141441
   7 H     1.0000    0     1.008   -1.959098    2.884472   -2.422597
   8 H     1.0000    0     1.008   -2.535513   -0.358674   -2.978745
   9 H     1.0000    0     1.008   -2.753022    2.407025    2.074838
  10 H     1.0000    0     1.008   -4.086058   -0.607514    1.621740
  11 H     1.0000    0     1.008   -0.016581   -0.887304    3.615016
  12 H     1.0000    0     1.008    1.790300    3.054956    1.334443
  13 H     1.0000    0     1.008    3.793010    0.537003    2.207391
  14 H     1.0000    0     1.008    3.603211   -1.140089   -2.193341
  15 H     1.0000    0     1.008    1.914008    1.566450   -3.138823
  16 H     1.0000    0     1.008    5.013295    1.878549   -1.956027
  17 H     1.0000    0     1.008   -1.163239   -4.000615    0.777333

------------------------------------------------------------------------------
                   ___                                                        
                  /   \      - P O W E R E D   B Y -                         
                 /     \                                                     
                 |  |  |   _    _      __       _____    __    __             
                 |  |  |  | |  | |    /  \     |  _  \  |  |  /  |          
                  \  \/   | |  | |   /    \    | | | |  |  | /  /          
                 / \  \   | |__| |  /  /\  \   | |_| |  |  |/  /          
                |  |  |   |  __  | /  /__\  \  |    /   |      \           
                |  |  |   | |  | | |   __   |  |    \   |  |\   \          
                \     /   | |  | | |  |  |  |  | |\  \  |  | \   \       
                 \___/    |_|  |_| |__|  |__|  |_| \__\ |__|  \__/        
                                                                              
                      - O R C A' S   B I G   F R I E N D -                    
                                      &                                       
                       - I N T E G R A L  F E E D E R -                       
                                                                              
 v1 FN, 2020, v2 2021, v3 2022-2024                                           
------------------------------------------------------------------------------


----------------------
SHARK INTEGRAL PACKAGE
----------------------

Number of atoms                             ...     18
Number of basis functions                   ...    179
Number of shells                            ...     91
Maximum angular momentum                    ...      2
Integral batch strategy                     ... SHARK/LIBINT Hybrid
RI-J (if used) integral strategy            ... SPLIT-RIJ (Revised 2003 algorithm where possible)
Printlevel                                  ...      1
Contraction scheme used                     ... SEGMENTED contraction
Prescreening option                         ... SCHWARTZ
   Thresh                                   ... 3.000e-11
   Tcut                                     ... 1.000e-12
   Tpresel                                  ... 1.000e-12 
Coulomb Range Separation                    ... NOT USED
Exchange Range Separation                   ... NOT USED
Multipole approximations                    ... NOT USED
Finite Nucleus Model                        ... NOT USED
CABS basis                                  ... NOT available
Auxiliary Coulomb fitting basis             ... AVAILABLE
   # of basis functions in Aux-J            ...    426
   # of shells in Aux-J                     ...    150
   Maximum angular momentum in Aux-J        ...      4
Auxiliary J/K fitting basis                 ... NOT available
Auxiliary Correlation fitting basis         ... NOT available
Auxiliary 'external' fitting basis          ... NOT available

Checking pre-screening integrals            ... done (  0.0 sec) Dimension = 91
Check shell pair data                       ... done (  0.0 sec)
Shell pair information
Shell pair cut-off parameter TPreSel        ...   1.0e-12
Total number of shell pairs                 ...      4186
Shell pairs after pre-screening             ...      4015
Total number of primitive shell pairs       ...     14533
Primitive shell pairs kept                  ...     10344
          la=0 lb=0:   1407 shell pairs
          la=1 lb=0:   1545 shell pairs
          la=1 lb=1:    450 shell pairs
          la=2 lb=0:    375 shell pairs
          la=2 lb=1:    210 shell pairs
          la=2 lb=2:     28 shell pairs

Calculating one electron integrals          ... done (  0.0 sec)
Calculating RI/J V-Matrix + Cholesky decomp.... done (  0.1 sec)
Calculating Nuclear repulsion               ... done (  0.0 sec) ENN=    265.053394470741 Eh

Diagonalization of the overlap matrix:
Smallest eigenvalue                        ... 1.984e-04
Time for diagonalization                   ...    0.003 sec
Threshold for overlap eigenvalues          ... 1.000e-07
Number of eigenvalues below threshold      ... 0
Time for construction of square roots      ...    0.014 sec
Total time needed                          ...    0.026 sec

-------------------
DFT GRID GENERATION
-------------------

General Integration Accuracy     IntAcc      ... 4.388
Radial Grid Type                 RadialGrid  ... OptM3 with GC (2021)
Angular Grid (max. ang.)         AngularGrid ... 4 (Lebedev-302)
Angular grid pruning method      GridPruning ... 4 (adaptive)
Weight generation scheme         WeightScheme... mBecke (2022)
Basis function cutoff            BFCut       ... 1.0000e-11
Integration weight cutoff        WCut        ... 1.0000e-14
Partially contracted basis set               ... off
Rotationally invariant grid construction     ... off
Angular grids for H and He will be reduced by one unit
Diffuse basis detected: some atoms will have their outermost
                        angular grid increased by 1.

Total number of grid points                  ...    74774
Total number of batches                      ...     1180
Average number of points per batch           ...       63
Average number of grid points per atom       ...     4154
Initializing property integral containers    ... done (  0.0 sec)

SHARK setup successfully completed in   1.0 seconds

Maximum memory used throughout the entire STARTUP-calculation: 32.5 MB
Occupation numbers will be reassigned to an Aufbau configuration
             **** ENERGY FILE WAS UPDATED (xtb_opt.en.tmp) ****
Finished Guess after   0.2 sec
Maximum memory used throughout the entire GUESS-calculation: 12.4 MB
--------------------
CPCM SOLVATION MODEL
--------------------
CPCM parameters:
  Epsilon                                         ...      78.3550
  Refrac                                          ...       1.3328
  Rsolv                                           ...       1.3000
  Surface type                                    ... GAUSSIAN VDW
  Discretization scheme                           ... Constant charge density
    Threshold for H atoms                         ...       5.0000 (charges/Ang^2)
    Threshold for non-H atoms                     ...       5.0000 (charges/Ang^2)
  Epsilon function type                           ...         CPCM
Solvent:                                          ... WATER
SMD-CDS solvent descriptors:
  Soln                                            ...       1.3328
  Soln25                                          ...       1.3323
  Sola                                            ...       0.0000
  Solb                                            ...       0.0000
  Solg                                            ...       0.0000
  Solc                                            ...       0.0000
  Solh                                            ...       0.0000
Radii:
  Scheme                                          ... Element-dependent radii
  Radius for C  used is    3.4960 Bohr (=   1.8500 Ang.)
  Radius for O  used is    2.8724 Bohr (=   1.5200 Ang.)
  Radius for H  used is    2.2677 Bohr (=   1.2000 Ang.)
Calculating surface                               ...        done! (  0.0s)
Cavity surface points                             ...         1332
Cavity Volume                                     ...     734.6726
Cavity Surface-area                               ...     487.9689
Calculating surface distance matrix               ...        done! (  0.0s)
Performing Cholesky decomposition & store         ...        done! (  0.1s)
Overall time for CPCM initialization              ...                 0.1s

----------------------------------------D-I-I-S--------------------------------------------
Iteration    Energy (Eh)           Delta-E    RMSDP     MaxDP     DIISErr   Damp  Time(sec)
-------------------------------------------------------------------------------------------
               ***  Starting incremental Fock matrix formation  ***
                              *** Initializing SOSCF ***
---------------------------------------S-O-S-C-F--------------------------------------
Iteration    Energy (Eh)           Delta-E    RMSDP     MaxDP     MaxGrad    Time(sec)
--------------------------------------------------------------------------------------
    1    -272.9133536189442566     0.00e+00  6.23e-06  1.58e-04  1.17e-05     2.7
               *** Restarting incremental Fock matrix formation ***
    2    -272.9133536314117237    -1.25e-08  8.62e-06  2.65e-04  5.14e-05     2.6
    3    -272.9133534763564057     1.55e-07  6.42e-06  2.22e-04  8.79e-05     2.1
    4    -272.9133537237006522    -2.47e-07  1.01e-06  2.47e-05  3.93e-06     2.1
                  *** Gradient check signals convergence ***

               *****************************************************
               *                     SUCCESS                       *
               *           SCF CONVERGED AFTER   4 CYCLES          *
               *****************************************************


SMD CDS free energy correction energy :                 3.29552     Kcal/mol
Total Energy after SMD CDS correction =              -272.908101975 Eh
             **** ENERGY FILE WAS UPDATED (xtb_opt.en.tmp) ****

----------------
TOTAL SCF ENERGY
----------------

Total Energy       :       -272.90810197531380 Eh           -7426.20700 eV

Components:
Nuclear Repulsion  :        265.05339447074095 Eh            7212.46954 eV
Electronic Energy  :       -537.95399817218981 Eh          -14638.47250 eV
One Electron Energy:       -894.17713073954633 Eh          -24331.79673 eV
Two Electron Energy:        356.22313256735646 Eh            9693.32424 eV
CPCM Dielectric    :         -0.01275002225184 Eh              -0.34695 eV
SMD CDS (Gcds)     :          0.00525174838685 Eh               0.14291 eV

Virial components:
Potential Energy   :       -544.57877266414266 Eh          -14818.74177 eV
Kinetic Energy     :        271.67067068882892 Eh            7392.53478 eV
Virial Ratio       :          2.00455489465737

DFT components:
N(Alpha)           :       25.000059460551 electrons
N(Beta)            :       25.000059460551 electrons
N(Total)           :       50.000118921102 electrons
E(X)               :      -38.584193250263 Eh       
E(C)               :       -1.563620767825 Eh       
E(XC)              :      -40.147814018088 Eh       

CPCM Solvation Model Properties:
Surface-charge          :         -0.04516378659858
Corrected charge        :          0.00000000000000
Outlying charge corr.   :          0.00017068609224 Eh               0.00464 eV
Free-energy (cav+disp)  :          0.00525174838685 Eh               0.14291 eV

---------------
SCF CONVERGENCE
---------------

  Last Energy change         ...    2.4734e-07  Tolerance :   1.0000e-07
  Last MAX-Density change    ...    2.4736e-05  Tolerance :   1.0000e-07
  Last RMS-Density change    ...    1.0063e-06  Tolerance :   5.0000e-09
  Last DIIS Error            ...    2.2072e-04  Tolerance :   1.0000e-07
  Last Orbital Gradient      ...    3.9287e-06  Tolerance :   1.0000e-04
  Last Orbital Rotation      ...    6.7473e-06  Tolerance :   1.0000e-04


----------------
ORBITAL ENERGIES
----------------

  NO   OCC          E(Eh)            E(eV) 
   0   2.0000     -18.947471      -515.5869 
   1   2.0000     -10.072612      -274.0897 
   2   2.0000     -10.017835      -272.5991 
   3   2.0000     -10.016194      -272.5545 
   4   2.0000     -10.007205      -272.3099 
   5   2.0000     -10.006117      -272.2803 
   6   2.0000      -0.985111       -26.8062 
   7   2.0000      -0.750676       -20.4269 
   8   2.0000      -0.709046       -19.2941 
   9   2.0000      -0.639143       -17.3920 
  10   2.0000      -0.571985       -15.5645 
  11   2.0000      -0.530360       -14.4318 
  12   2.0000      -0.458398       -12.4737 
  13   2.0000      -0.436237       -11.8706 
  14   2.0000      -0.416550       -11.3349 
  15   2.0000      -0.387898       -10.5552 
  16   2.0000      -0.369748       -10.0614 
  17   2.0000      -0.345704        -9.4071 
  18   2.0000      -0.336169        -9.1476 
  19   2.0000      -0.329163        -8.9570 
  20   2.0000      -0.313073        -8.5192 
  21   2.0000      -0.298271        -8.1164 
  22   2.0000      -0.294085        -8.0025 
  23   2.0000      -0.268729        -7.3125 
  24   2.0000      -0.232342        -6.3224 
  25   0.0000       0.070781         1.9260 
  26   0.0000       0.113855         3.0982 
  27   0.0000       0.122146         3.3238 
  28   0.0000       0.129275         3.5177 
  29   0.0000       0.141149         3.8409 
  30   0.0000       0.150289         4.0896 
  31   0.0000       0.154827         4.2130 
  32   0.0000       0.159390         4.3372 
  33   0.0000       0.173789         4.7290 
  34   0.0000       0.185513         5.0481 
  35   0.0000       0.193087         5.2542 
*Only the first 10 virtual orbitals were printed.
Total SCF time: 0 days 0 hours 0 min 10 sec 
Finished LeanSCF after  10.1 sec

Maximum memory used throughout the entire LEANSCF-calculation: 24.2 MB


-------------------------------------------------------------------------------
                          DFT DISPERSION CORRECTION                            
                                                                               
                                DFTD4 V3.4.0                                   
-------------------------------------------------------------------------------
-------------------------   ----------------
Dispersion correction           -0.004485816
-------------------------   ----------------

------------------   -----------------
gCP correction             0.009741767
------------------   -----------------

-------------------------   --------------------
FINAL SINGLE POINT ENERGY      -272.902846023812
-------------------------   --------------------

------------------------------------------------------------------------------
                         ORCA SCF GRADIENT CALCULATION
------------------------------------------------------------------------------

Nuc. rep. gradient        (SHARK) ... done (  0.0 sec)
HCore & Overlap gradient  (SHARK) ... done (  0.2 sec)
Split-RIJ-J gradient      (SHARK) ... done (  1.1 sec)
XC gradient                       ... done (  4.9 sec)
CPCM gradient                     ... done (  0.6 sec)
SMD gradient                      ... done (  0.0 sec)
Dispersion correction             ... done (  0.0 sec)

-------------------
DISPERSION GRADIENT
-------------------

   1   C   :   -0.000076478    0.000026061   -0.000045200
   2   C   :   -0.000061366    0.000007800    0.000029119
   3   C   :   -0.000001825   -0.000014376    0.000038133
   4   C   :    0.000056284    0.000020073    0.000027333
   5   C   :    0.000084729    0.000015166   -0.000042837
   6   O   :   -0.000008751   -0.000087330    0.000022982
   7   H   :   -0.000039061    0.000012560   -0.000018132
   8   H   :   -0.000031389    0.000021078   -0.000021613
   9   H   :   -0.000032532   -0.000000660   -0.000021586
  10   H   :   -0.000029365    0.000015409    0.000016504
  11   H   :   -0.000030747   -0.000004910    0.000010242
  12   H   :    0.000000521   -0.000014599    0.000027912
  13   H   :    0.000024848    0.000019489    0.000013049
  14   H   :    0.000033235    0.000002385    0.000014518
  15   H   :    0.000036526   -0.000006920   -0.000015298
  16   H   :    0.000030907    0.000009856   -0.000025155
  17   H   :    0.000039834    0.000011129   -0.000015552
  18   H   :    0.000004632   -0.000032211    0.000005580

Difference to translation invariance:
           :   -0.0000000000   -0.0000000000    0.0000000000

Difference to rotation invariance:
           :    0.0000000000   -0.0000000000    0.0000000000

Norm of the Dispersion gradient    ...    0.0002332557
RMS gradient                       ...    0.0000317421
MAX gradient                       ...    0.0000873302
gCP correction                   ... done

------------------
CARTESIAN GRADIENT
------------------

   1   C   :   -0.000934490    0.000040729   -0.005848976
   2   C   :   -0.004818455    0.004796889    0.003597940
   3   C   :    0.005292055   -0.016019076   -0.012745094
   4   C   :    0.002367544    0.007850978    0.002498935
   5   C   :    0.002037623   -0.000707818   -0.004966160
   6   O   :   -0.003182223    0.013386643    0.007648769
   7   H   :    0.004068042   -0.001180093    0.002245474
   8   H   :   -0.002100756   -0.003689020    0.003125629
   9   H   :    0.000388918    0.002611208    0.004645136
  10   H   :    0.000725244   -0.001921127   -0.003024319
  11   H   :    0.001670528    0.001621423   -0.002430186
  12   H   :    0.000413792   -0.000831996    0.001567782
  13   H   :    0.000297196   -0.002539233   -0.002237289
  14   H   :   -0.002071980   -0.000872957   -0.002507214
  15   H   :   -0.002991545    0.002798062    0.003171900
  16   H   :    0.002150256   -0.001478871    0.004751513
  17   H   :   -0.003925478   -0.001987928    0.001975023
  18   H   :    0.000613729   -0.001877815   -0.001468863

Difference to translation invariance:
           :   -0.0000000000   -0.0000000000   -0.0000000000

Difference to rotation invariance:
           :    0.0002640535   -0.0003943141   -0.0003303606

Norm of the Cartesian gradient     ...    0.0332823180
RMS gradient                       ...    0.0045291498
MAX gradient                       ...    0.0160190757

-------
TIMINGS
-------

Total SCF gradient time     ....        7.410 sec

Densities                   ....       0.000 sec  (  0.0%)
One electron gradient       ....       0.200 sec  (  2.7%)
RI-J Coulomb gradient       ....       1.079 sec  ( 14.6%)
XC gradient                 ....       4.912 sec  ( 66.3%)
CPCM gradient               ....       0.632 sec  (  8.5%)
   A-Matrix (El+Nuc)        ....       0.058 sec  (  0.8%)
   Potential                ....       0.573 sec  (  7.7%)
SMD gradient                ....       0.012 sec  (  0.2%)

Maximum memory used throughout the entire SCFGRAD-calculation: 32.5 MB

------------------------------------------------------------------------------
                              ORCA PROPERTY CALCULATIONS
------------------------------------------------------------------------------

GBWName                                 ... xtb_opt.gbw
Number of atoms                         ...     18
Number of basis functions               ...    179
Max core memory                         ...   1024 MB

Electric properties:
Dipole moment                           ... YES
Quadrupole moment                       ...  NO
Static polarizability (Dipole/Dipole)   ...  NO
Static polarizability (Dipole/Quad.)    ...  NO
Static polarizability (Quad./Quad.)     ...  NO
Static polarizability (Velocity)        ...  NO

Atomic electric properties:
Dipole moment                           ...  NO
Quadrupole moment                       ...  NO
Static polarizability                   ...  NO

Choice of electric origin               ... Center of mass
Position of electric origin             ...    -0.000003     0.000021    -0.000005

General magnetic properties:
Magnetizability                         ...  NO

EPR properties:
g-Tensor (aka g-matrix)                 ...  NO
Zero-Field splitting spin-orbit         ...  NO
Zero-field splitting spin-spin          ...  NO
Hyperfine couplings                     ...  NO (   0 nuclei)
Quadrupole couplings                    ...  NO (   0 nuclei)
Contact density                         ...  NO (   0 nuclei)

NMR properties:
Chemical shifts                         ...  NO (   0 nuclei)
Spin-rotation constants                 ...  NO (   0 nuclei)
Spin-spin couplings                     ...  NO (   0 nuclei,    0 pairs)

Choice of magnetic origin               ... GIAO
Position of magnetic origin             ...     0.000000     0.000000     0.000000

Properties with geometric perturbations:
SCF Hessian                             ...  NO
IR spectrum                             ...  NO
VCD spectrum                            ...  NO
X-ray spectroscopy properties:
SCF XES/XAS/RIXS spectra                ...  NO


-------------
DIPOLE MOMENT
-------------

Method             : SCF
Type of density    : Electron Density
Multiplicity       :   1
Irrep              :   0
Energy             :  -272.9081019753137980 Eh
Relativity type    : 
Basis              : AO
                                X                 Y                 Z
Electronic contribution:      0.058183943      -3.238702456       2.129415074
Nuclear contribution   :     -0.715491128       3.458377125      -1.586298662
                        -----------------------------------------
Total Dipole Moment    :     -0.657307185       0.219674669       0.543116412
                        -----------------------------------------
Magnitude (a.u.)       :      0.880502773
Magnitude (Debye)      :      2.238060187



--------------------
Rotational spectrum 
--------------------
 
Rotational constants in cm-1:             0.138899             0.091804             0.076185 
Rotational constants in MHz :          4164.084839          2752.221071          2283.972974 

Dipole components along the rotational axes: 
x,y,z [a.u.] :    -0.677871    -0.150323     0.541460 
x,y,z [Debye]:    -1.723011    -0.382090     1.376282 

 

Dipole moment calculation done in   0.0 sec 

Maximum memory used throughout the entire PROP-calculation: 10.9 MB

--------------------------------
SUGGESTED CITATIONS FOR THIS RUN
--------------------------------

Below you find a list of papers that are relevant to this ORCA run
We neither can nor want to force you to cite these papers, but we appreciate if you do
You receive ORCA, which is the product of decades of hard work by many enthusiastic individuals, for free
The only thing we kindly ask in return is that you cite our papers,
We deeply appreciate it, if you show your appreciation for ORCA by not just citing the generic ORCA reference.

Please note that relegating all ORCA citations to the supporting information does *not* help us.
SI sections are not indexed - citations you put there will not count into any citation statistics
But we need these citations in order to attract the funding resources that allow us to do what we are doing

Therefore, if you are a happy ORCA user, please consider citing a few of the papers listed below in the main body of your paper

In addition to the list printed below, the program has created the file xtb_opt.bibtex that contains the list in bibtex format
You can import this file easily into all common literature databanks and citation aid programs


List of essential papers. We consider these as the minimum necessary citations

  1. Neese,F.
     Software update: the ORCA program system, version 5.0
     WIRES Comput. Molec. Sci., 2022 12(1)e1606
     doi.org/10.1002/wcms.1606
  2. Grimme,S.; Hansen,A.; Ehlert,S.; Mewes,J.
     r2SCAN-3c: A 'Swiss army knife' composite electronic-structure method
     J. Chem. Phys., 2021 154 064103
     doi.org/10.1063/5.0040021

List of papers to cite with high priority. The work reported in these papers was absolutely
necessary for this run to complete.
Our perspective: the developers of density functionals and basis sets usually get cited in chemistry papers
Good! But without the algorithms to do something with them, the functionals or basis sets would not do anything.
Hence, in our opinion, the algorithm design and method developments papers are equally worthy of getting cited

  1. Neese,F.
     An improvement of the resolution of the identity approximation for the formation of the Coulomb matrix
     J. Comp. Chem., 2003 24(14)1740-1747
     doi.org/10.1002/jcc.10318
  2. Garcia-Rates,M.; Neese,F.
     Effect of the Solute Cavity on the Solvation Energy and its Derivatives within the Framework of the Gaussian Charge Scheme
     J. Comput. Chem., 2020 41 922-939
     doi.org/10.1002/jcc.26139
  3. Neese,F.
     The SHARK Integral Generation and Digestion System
     J. Comp. Chem., 2022  1-16
     doi.org/10.1002/jcc.26942
  4. Lehtola,S.; Steigemann,C.; Oliveira,M.; Marques,M.
     Recent developments in Libxc - A comprehensive library of functionals for density functional theory
     Software X, 2018 7 
     doi.org/10.1016/j.softx.2017.11.002
  5. Caldeweyher,E.; Bannwarth,C.; Grimme,S.
     Extension of the D3 dispersion coefficient model
     J. Chem. Phys., 2017 147 034112-XXXX
     doi.org/10.1063/1.4993215
  6. Caldeweyher,E.; Ehlert,S.; Hansen,A.; Neugebauer,H.; Spicher,S.; Bannwarth,C.; Grimme,S.
     A generally applicable atomic-charge dependent London dispersion correction
     J. Chem. Phys., 2019 150 154122-XXXX
     doi.org/10.1063/1.5090222
  7. Caldeweyher,E.; Mewes,J.; Ehlert,S.; Grimme,S.
     Extension and evaluation of the D4 London-dispersion model for periodic systems
     Phys. Chem. Chem. Phys., 2020 22(16)8499-8512
     doi.org/10.1039/D0CP00502A

List of suggested additional citations. These are papers that are important in the 'surrounding' of 
of this run, or papers that preceded the highly important papers. If you like your results we are grateful for a citation.

  1. Neese,F.
     The ORCA program system
     WIRES Comput. Molec. Sci., 2012 2(1)73-78
     doi.org/10.1002/wcms.81
  2. Neese,F.
     Software update: the ORCA program system, version 4.0
     WIRES Comput. Molec. Sci., 2018 8(1)1-6
     doi.org/10.1002/wcms.1327
  3. Neese,F.; Wennmohs,F.; Becker,U.; Riplinger,C.
     The ORCA quantum chemistry program package
     J. Chem. Phys., 2020 152 Art. No. L224108
     doi.org/10.1063/5.0004608

List of optional additional citations

  1. Neese,F.
     Approximate second-order SCF convergence for spin unrestricted wavefunctions
     Chem. Phys. Lett., 2000 325(1-3)93-98
     doi.org/10.1016/s0009-2614(00)00662-x

Timings for individual modules:

Sum of individual times          ...       19.110 sec (=   0.319 min)
Startup calculation              ...        1.085 sec (=   0.018 min)   5.7 %
SCF iterations                   ...       10.414 sec (=   0.174 min)  54.5 %
Property calculations            ...        0.105 sec (=   0.002 min)   0.5 %
SCF Gradient evaluation          ...        7.506 sec (=   0.125 min)  39.3 %
                             ****ORCA TERMINATED NORMALLY****
TOTAL RUN TIME: 0 days 0 hours 0 minutes 19 seconds 965 msec
  ------------------------------------------------------------------------
          * successful ORCA run, taking over control again...

         :::::::::::::::::::::::::::::::::::::::::::::::::::::
         ::                  ORCA SUMMARY                   ::
         :::::::::::::::::::::::::::::::::::::::::::::::::::::
         :: total energy            -272.902846023812 Eh    ::
         :: gradient norm              0.033282317990 Eh/a0 ::
         :: HOMO-LUMO gap              0.000000000000 eV    ::
         :::::::::::::::::::::::::::::::::::::::::::::::::::::

      ----------------------------------------------------------- 
     |                       L-ANC optimizer                     |
      ----------------------------------------------------------- 
          low memory version by Sebastian Ehlert

          ...................................................
          :                      SETUP                      :
          :.................................................:
          :   energy convergence        0.5000000E-05 Eh    :
          :   grad. convergence         0.1000000E-02 Eh/a0 :
          :   optimization log               true           :
          :   writing optlog all                1     steps :
          :   Hessian reset                     8     steps :
          :   maximium step len.        1.0000000     a0    :
          :   LBFGS images                      8           :
          ...................................................
 * calculating model hessian...
Using Lindh-Hessian (1995)
 Shifting diagonal of input Hessian by   1.000000000000000E-002
 Lowest  eigenvalues of input Hessian
    0.000000    0.000000    0.000000    0.000000    0.000000    0.000000
    0.013218    0.013979    0.017231    0.018652    0.020180    0.021872
    0.028725    0.034414    0.049509    0.053971    0.056029    0.062647
 Highest eigenvalues
    1.177284    1.203748    1.213987    1.260068    1.306033    1.480160
 

........................................................................
.............................. CYCLE    1 ..............................
........................................................................
                         * ORCA takes the control...
  ------------------------------------------------------------------------

                                 *****************
                                 * O   R   C   A *
                                 *****************

                                            #,                                       
                                            ###                                      
                                            ####                                     
                                            #####                                    
                                            ######                                   
                                           ########,                                 
                                     ,,################,,,,,                         
                               ,,#################################,,                 
                          ,,##########################################,,             
                       ,#########################################, ''#####,          
                    ,#############################################,,   '####,        
                  ,##################################################,,,,####,       
                ,###########''''           ''''###############################       
              ,#####''   ,,,,##########,,,,          '''####'''          '####       
            ,##' ,,,,###########################,,,                        '##       
           ' ,,###''''                  '''############,,,                           
         ,,##''                                '''############,,,,        ,,,,,,###''
      ,#''                                            '''#######################'''  
     '                                                          ''''####''''         
             ,#######,   #######,   ,#######,      ##                                
            ,#'     '#,  ##    ##  ,#'     '#,    #''#        ,####,   ,####,        
            ##       ##  ##   ,#'  ##            #'  '#       #'       #'  '#        
            ##       ##  #######   ##           ,######,      #####,   #    #        
            '#,     ,#'  ##    ##  '#,     ,#' ,#      #,     #,   #   #,  ,#        
             '#######'   ##     ##  '#######'  #'      '#     '####' # '####'        



                #########################################################
                #                        -***-                          #
                #          Department of theory and spectroscopy        #
                #                                                       #
                #                      Frank Neese                      #
                #                                                       #
                #     Directorship, Architecture, Infrastructure        #
                #                    SHARK, DRIVERS                     #
                #        Core code/Algorithms in most modules           #
                #                                                       #
                #        Max Planck Institute fuer Kohlenforschung      #
                #                Kaiser Wilhelm Platz 1                 #
                #                 D-45470 Muelheim/Ruhr                 #
                #                      Germany                          #
                #                                                       #
                #                  All rights reserved                  #
                #                        -***-                          #
                #########################################################


                         Program Version 6.0.0  -   RELEASE  -


 With contributions from (in alphabetic order):
   Daniel Aravena         : Magnetic Suceptibility
   Michael Atanasov       : Ab Initio Ligand Field Theory (pilot matlab implementation)
   Alexander A. Auer      : GIAO ZORA, VPT2 properties, NMR spectrum
   Ute Becker             : All parallelization in ORCA, NUMFREQ, NUMCALC
   Giovanni Bistoni       : ED, misc. LED, open-shell LED, HFLD
   Martin Brehm           : Molecular dynamics
   Dmytro Bykov           : pre 5.0 version of the SCF Hessian
   Marcos Casanova-Páez   : Triplet and SCS-CIS(D). UHF-(DLPNO)-IP/EA/STEOM-CCSD. UHF-CVS-IP/STEOM-CCSD
   Vijay G. Chilkuri      : MRCI spin determinant printing, contributions to CSF-ICE
   Pauline Colinet        : FMM embedding
   Dipayan Datta          : RHF DLPNO-CCSD density
   Achintya Kumar Dutta   : EOM-CC, STEOM-CC
   Nicolas Foglia         : Exact transition moments, OPA infrastructure, MCD improvements
   Dmitry Ganyushin       : Spin-Orbit,Spin-Spin,Magnetic field MRCI
   Miquel Garcia          : C-PCM and meta-GGA Hessian, CCSD/C-PCM, Gaussian charge scheme
   Tiago L. C. Gouveia    : GS-ROHF, GS-ROCIS
   Yang Guo               : DLPNO-NEVPT2, F12-NEVPT2, CIM, IAO-localization
   Andreas Hansen         : Spin unrestricted coupled pair/coupled cluster methods
   Ingolf Harden          : AUTO-CI MPn and infrastructure 
   Benjamin Helmich-Paris : MC-RPA, TRAH-(SCF,CASSCF), AVAS, COSX integrals, SCF dyn. polar.
   Lee Huntington         : MR-EOM, pCC
   Robert Izsak           : Overlap fitted RIJCOSX, COSX-SCS-MP3, EOM
   Riya Kayal             : Wick's Theorem for AUTO-CI, AUTO-CI UHF-CCSDT
   Emily Kempfer          : AUTO-CI, RHF CISDT and CCSDT
   Christian Kollmar      : KDIIS, OOCD, Brueckner-CCSD(T), CCSD density, CASPT2, CASPT2-K, improved NEVPT2
   Axel Koslowski         : Symmetry handling
   Simone Kossmann        : Meta GGA functionals, TD-DFT gradient, OOMP2, (MP2 Hessian; deprecated post 5.0)
   Lucas Lang             : DCDCAS
   Marvin Lechner         : AUTO-CI (C++ implementation), FIC-MRCC
   Spencer Leger          : CASSCF response
   Dagmar Lenk            : GEPOL surface, SMD, ORCA-2-JSON
   Dimitrios Liakos       : Extrapolation schemes; Compound Job, initial MDCI parallelization
   Dimitrios Manganas     : Further ROCIS development; embedding schemes. LFT, Crystal Embedding
   Dimitrios Pantazis     : SARC Basis sets
   Anastasios Papadopoulos: AUTO-CI, single reference methods and gradients
   Taras Petrenko         : pre 6.0 DFT Hessian and TD-DFT gradient, (ASA, deprecated), ECA, 1-Electron XAS/XES, NRVS
   Peter Pinski           : DLPNO-MP2, DLPNO-MP2 Gradient
   Christoph Reimann      : Effective Core Potentials
   Marius Retegan         : Local ZFS, SOC
   Christoph Riplinger    : Optimizer, TS searches, QM/MM, DLPNO-CCSD(T), (RO)-DLPNO pert. Triples
   Michael Roemelt        : Original ROCIS implementation
   Masaaki Saitow         : Open-shell DLPNO-CCSD energy and density
   Barbara Sandhoefer     : DKH picture change effects
   Kantharuban Sivalingam : CASSCF convergence/infrastructure, NEVPT2 and variants, FIC-MRCI
   Bernardo de Souza      : ESD, SOC TD-DFT
   Georgi Stoychev        : AutoAux, RI-MP2 NMR, DLPNO-MP2 response, X2C
   Van Anh Tran           : RI-MP2 g-tensors
   Willem Van den Heuvel  : Paramagnetic NMR
   Zikuan Wang            : NOTCH, Electric field optimization 
   Frank Wennmohs         : Technical directorship and infrastructure
   Hang Xu                : AUTO-CI-Response properties 


 We gratefully acknowledge several colleagues who have allowed us to
 interface, adapt or use parts of their codes:
   Stefan Grimme, W. Hujo, H. Kruse, P. Pracht,  : VdW corrections, initial TS optimization,
                  C. Bannwarth, S. Ehlert,         DFT functionals, gCP, sTDA/sTD-DF
                  L. Wittmann, M. Mueller
   Ed Valeev, F. Pavosevic, A. Kumar             : LibInt (2-el integral package), F12 methods
   Garnet Chan, S. Sharma, J. Yang, R. Olivares  : DMRG
   Ulf Ekstrom                                   : XCFun DFT Library
   Mihaly Kallay                                 : mrcc  (arbitrary order and MRCC methods)
   Frank Weinhold                                : gennbo (NPA and NBO analysis)
   Simon Mueller                                 : openCOSMO-RS
   Christopher J. Cramer and Donald G. Truhlar   : smd solvation model
   Lars Goerigk                                  : TD-DFT with DH, B97 family of functionals
   V. Asgeirsson, H. Jonsson                     : NEB implementation
   FAccTs GmbH                                   : IRC, NEB, NEB-TS, DLPNO-Multilevel, CI-OPT
                                                   MM, QMMM, 2- and 3-layer-ONIOM, Crystal-QMMM,
                                                   LR-CPCM, SF, NACMEs, symmetry and pop. for TD-DFT,
                                                   nearIR, NL-DFT gradient (VV10), updates on ESD,
                                                   ML-optimized integration grids, MBIS, APM,
                                                   GOAT, DOCKER, SOLVATOR, interface openCOSMO-RS
   S Lehtola, MJT Oliveira, MAL Marques          : LibXC Library
   Liviu Ungur et al                             : ANISO software


 Your calculation uses the libint2 library for the computation of 2-el integrals
 For citations please refer to: http://libint.valeyev.net

 Your ORCA version has been built with support for libXC version: 6.2.2
 For citations please refer to: https://libxc.gitlab.io

 This ORCA versions uses:
   CBLAS   interface :  Fast vector & matrix operations
   LAPACKE interface :  Fast linear algebra routines
   SCALAPACK package :  Parallel linear algebra routines
   Shared memory     :  Shared parallel matrices
   BLAS/LAPACK       :  OpenBLAS 0.3.27  USE64BITINT DYNAMIC_ARCH NO_AFFINITY SkylakeX SINGLE_THREADED
        Core in use  :  SkylakeX
   Copyright (c) 2011-2014, The OpenBLAS Project




***************************************
The coordinates will be read from file: xtb_opt.xyz
***************************************


Your calculation utilizes the geometrical counterpoise correction gCP
Please cite in your paper:
H.Kruse, S. Grimme J.Chem.Phys., 136, (2012), 154101 
   

Your calculation utilizes the atom-pairwise dispersion correction
based on EEQ partial charges (D4)


Your calculation utilizes the SMD solvation module
Please cite in your paper:
A.V. Marenich, C.J. Cramer, D.G. Truhlar J. Phys. Chem. B, 113, (2009), 6378 

================================================================================

----- Orbital basis set information -----
Your calculation utilizes the basis: def2-mTZVPP
   Stefan Grimme, Andreas Hansen, Sebastian Ehlert, and Jan-Michael Mewes 
   J. Chem. Phys. 154, 064103 (2021). DOI: 10.1063/5.0040021

----- AuxJ basis set information -----
Your calculation utilizes the auxiliary basis: def2/J
   F. Weigend, Phys. Chem. Chem. Phys. 8, 1057 (2006).

================================================================================
                                        WARNINGS
                       Please study these warnings very carefully!
================================================================================

WARNING: Old DensityContainer found on disk!
         Will remove this file - 
         If you want to keep old densities, please start your calculation with a different basename. 

Using LibXC functional ID 497 : Re-regularized SCAN exchange by Furness et al
[ 1]  J. W. Furness, A. D. Kaplan, J. Ning, J. P. Perdew, and J. Sun.,  J. Phys. Chem. Lett. 11, 8208-8215 (2020)
[ 2]  J. W. Furness, A. D. Kaplan, J. Ning, J. P. Perdew, and J. Sun.,  J. Phys. Chem. Lett. 11, 9248-9248 (2020)
Using LibXC functional ID 498 : Re-regularized SCAN correlation by Furness et al
[ 1]  J. W. Furness, A. D. Kaplan, J. Ning, J. P. Perdew, and J. Sun.,  J. Phys. Chem. Lett. 11, 8208-8215 (2020)
[ 2]  J. W. Furness, A. D. Kaplan, J. Ning, J. P. Perdew, and J. Sun.,  J. Phys. Chem. Lett. 11, 9248-9248 (2020)
Using LibXC functional ID 497 : Re-regularized SCAN exchange by Furness et al
[ 1]  J. W. Furness, A. D. Kaplan, J. Ning, J. P. Perdew, and J. Sun.,  J. Phys. Chem. Lett. 11, 8208-8215 (2020)
[ 2]  J. W. Furness, A. D. Kaplan, J. Ning, J. P. Perdew, and J. Sun.,  J. Phys. Chem. Lett. 11, 9248-9248 (2020)
Using LibXC functional ID 498 : Re-regularized SCAN correlation by Furness et al
[ 1]  J. W. Furness, A. D. Kaplan, J. Ning, J. P. Perdew, and J. Sun.,  J. Phys. Chem. Lett. 11, 8208-8215 (2020)
[ 2]  J. W. Furness, A. D. Kaplan, J. Ning, J. P. Perdew, and J. Sun.,  J. Phys. Chem. Lett. 11, 9248-9248 (2020)

================================================================================
                                       INPUT FILE
================================================================================
NAME = xtb_opt.inp
|  1> ! r2scan-3c def2/J RI DEFGRID2 scfconv7 ENGRAD tightSCF miniprint
|  2> %cpcm
|  3>     smd true
|  4>     smdsolvent "water"
|  5> end
|  6> * xyzfile 0 1 xtb_opt.xyz
|  7> 
|  8>                          ****END OF INPUT****
================================================================================

                     *******************************
                     * Energy+Gradient Calculation *
                     *******************************

---------------------------------
CARTESIAN COORDINATES (ANGSTROEM)
---------------------------------
  C     -1.622365    0.670061   -0.968596
  C     -1.381175    0.350386    0.506179
  C     -0.027677   -0.295569    0.836983
  C      1.203940    0.561776    0.492708
  C      1.726911    0.446812   -0.940715
  O      0.121490   -1.558944    0.185005
  H     -2.676376    0.901272   -1.140974
  H     -1.036939    1.532379   -1.294200
  H     -1.358967   -0.182519   -1.599876
  H     -1.463393    1.263631    1.105355
  H     -2.162684   -0.331727    0.863876
  H     -0.017413   -0.456403    1.928141
  H      0.951316    1.602886    0.717423
  H      2.013586    0.278533    1.173638
  H      1.939701   -0.594640   -1.188894
  H      1.017649    0.829749   -1.675247
  H      2.656484    1.011909   -1.043059
  H     -0.625537   -2.117035    0.435771

----------------------------
CARTESIAN COORDINATES (A.U.)
----------------------------
  NO LB      ZA    FRAG     MASS         X           Y           Z
   0 C     6.0000    0    12.011   -3.065826    1.266231   -1.830381
   1 C     6.0000    0    12.011   -2.610043    0.662133    0.956539
   2 C     6.0000    0    12.011   -0.052303   -0.558544    1.581669
   3 C     6.0000    0    12.011    2.275116    1.061603    0.931083
   4 C     6.0000    0    12.011    3.263389    0.844353   -1.777693
   5 O     8.0000    0    15.999    0.229583   -2.945978    0.349609
   6 H     1.0000    0     1.008   -5.057618    1.703157   -2.156129
   7 H     1.0000    0     1.008   -1.959531    2.895777   -2.445684
   8 H     1.0000    0     1.008   -2.568075   -0.344911   -3.023328
   9 H     1.0000    0     1.008   -2.765412    2.387916    2.088819
  10 H     1.0000    0     1.008   -4.086880   -0.626872    1.632490
  11 H     1.0000    0     1.008   -0.032905   -0.862476    3.643658
  12 H     1.0000    0     1.008    1.797726    3.029016    1.355733
  13 H     1.0000    0     1.008    3.805126    0.526352    2.217854
  14 H     1.0000    0     1.008    3.665503   -1.123707   -2.246685
  15 H     1.0000    0     1.008    1.923078    1.567999   -3.165757
  16 H     1.0000    0     1.008    5.020027    1.912231   -1.971096
  17 H     1.0000    0     1.008   -1.182093   -4.000616    0.823489

------------------------------------------------------------------------------
                   ___                                                        
                  /   \      - P O W E R E D   B Y -                         
                 /     \                                                     
                 |  |  |   _    _      __       _____    __    __             
                 |  |  |  | |  | |    /  \     |  _  \  |  |  /  |          
                  \  \/   | |  | |   /    \    | | | |  |  | /  /          
                 / \  \   | |__| |  /  /\  \   | |_| |  |  |/  /          
                |  |  |   |  __  | /  /__\  \  |    /   |      \           
                |  |  |   | |  | | |   __   |  |    \   |  |\   \          
                \     /   | |  | | |  |  |  |  | |\  \  |  | \   \       
                 \___/    |_|  |_| |__|  |__|  |_| \__\ |__|  \__/        
                                                                              
                      - O R C A' S   B I G   F R I E N D -                    
                                      &                                       
                       - I N T E G R A L  F E E D E R -                       
                                                                              
 v1 FN, 2020, v2 2021, v3 2022-2024                                           
------------------------------------------------------------------------------


----------------------
SHARK INTEGRAL PACKAGE
----------------------

Number of atoms                             ...     18
Number of basis functions                   ...    179
Number of shells                            ...     91
Maximum angular momentum                    ...      2
Integral batch strategy                     ... SHARK/LIBINT Hybrid
RI-J (if used) integral strategy            ... SPLIT-RIJ (Revised 2003 algorithm where possible)
Printlevel                                  ...      1
Contraction scheme used                     ... SEGMENTED contraction
Prescreening option                         ... SCHWARTZ
   Thresh                                   ... 3.000e-11
   Tcut                                     ... 1.000e-12
   Tpresel                                  ... 1.000e-12 
Coulomb Range Separation                    ... NOT USED
Exchange Range Separation                   ... NOT USED
Multipole approximations                    ... NOT USED
Finite Nucleus Model                        ... NOT USED
CABS basis                                  ... NOT available
Auxiliary Coulomb fitting basis             ... AVAILABLE
   # of basis functions in Aux-J            ...    426
   # of shells in Aux-J                     ...    150
   Maximum angular momentum in Aux-J        ...      4
Auxiliary J/K fitting basis                 ... NOT available
Auxiliary Correlation fitting basis         ... NOT available
Auxiliary 'external' fitting basis          ... NOT available

Checking pre-screening integrals            ... done (  0.0 sec) Dimension = 91
Check shell pair data                       ... done (  0.0 sec)
Shell pair information
Shell pair cut-off parameter TPreSel        ...   1.0e-12
Total number of shell pairs                 ...      4186
Shell pairs after pre-screening             ...      4006
Total number of primitive shell pairs       ...     14533
Primitive shell pairs kept                  ...     10307
          la=0 lb=0:   1404 shell pairs
          la=1 lb=0:   1542 shell pairs
          la=1 lb=1:    448 shell pairs
          la=2 lb=0:    374 shell pairs
          la=2 lb=1:    210 shell pairs
          la=2 lb=2:     28 shell pairs

Calculating one electron integrals          ... done (  0.0 sec)
Calculating RI/J V-Matrix + Cholesky decomp.... done (  0.1 sec)
Calculating Nuclear repulsion               ... done (  0.0 sec) ENN=    264.037525919081 Eh

Diagonalization of the overlap matrix:
Smallest eigenvalue                        ... 2.040e-04
Time for diagonalization                   ...    0.004 sec
Threshold for overlap eigenvalues          ... 1.000e-07
Number of eigenvalues below threshold      ... 0
Time for construction of square roots      ...    0.013 sec
Total time needed                          ...    0.025 sec

-------------------
DFT GRID GENERATION
-------------------

General Integration Accuracy     IntAcc      ... 4.388
Radial Grid Type                 RadialGrid  ... OptM3 with GC (2021)
Angular Grid (max. ang.)         AngularGrid ... 4 (Lebedev-302)
Angular grid pruning method      GridPruning ... 4 (adaptive)
Weight generation scheme         WeightScheme... mBecke (2022)
Basis function cutoff            BFCut       ... 1.0000e-11
Integration weight cutoff        WCut        ... 1.0000e-14
Partially contracted basis set               ... off
Rotationally invariant grid construction     ... off
Angular grids for H and He will be reduced by one unit
Diffuse basis detected: some atoms will have their outermost
                        angular grid increased by 1.

Total number of grid points                  ...    74796
Total number of batches                      ...     1177
Average number of points per batch           ...       63
Average number of grid points per atom       ...     4155
Initializing property integral containers    ... done (  0.0 sec)

SHARK setup successfully completed in   1.0 seconds

Maximum memory used throughout the entire STARTUP-calculation: 32.5 MB
Occupation numbers will be reassigned to an Aufbau configuration
             **** ENERGY FILE WAS UPDATED (xtb_opt.en.tmp) ****
Finished Guess after   0.3 sec
Maximum memory used throughout the entire GUESS-calculation: 12.4 MB
--------------------
CPCM SOLVATION MODEL
--------------------
CPCM parameters:
  Epsilon                                         ...      78.3550
  Refrac                                          ...       1.3328
  Rsolv                                           ...       1.3000
  Surface type                                    ... GAUSSIAN VDW
  Discretization scheme                           ... Constant charge density
    Threshold for H atoms                         ...       5.0000 (charges/Ang^2)
    Threshold for non-H atoms                     ...       5.0000 (charges/Ang^2)
  Epsilon function type                           ...         CPCM
Solvent:                                          ... WATER
SMD-CDS solvent descriptors:
  Soln                                            ...       1.3328
  Soln25                                          ...       1.3323
  Sola                                            ...       0.0000
  Solb                                            ...       0.0000
  Solg                                            ...       0.0000
  Solc                                            ...       0.0000
  Solh                                            ...       0.0000
Radii:
  Scheme                                          ... Element-dependent radii
  Radius for C  used is    3.4960 Bohr (=   1.8500 Ang.)
  Radius for O  used is    2.8724 Bohr (=   1.5200 Ang.)
  Radius for H  used is    2.2677 Bohr (=   1.2000 Ang.)
Calculating surface                               ...        done! (  0.0s)
Cavity surface points                             ...         1341
Cavity Volume                                     ...     738.2582
Cavity Surface-area                               ...     491.2724
Calculating surface distance matrix               ...        done! (  0.0s)
Performing Cholesky decomposition & store         ...        done! (  0.1s)
Overall time for CPCM initialization              ...                 0.1s

----------------------------------------D-I-I-S--------------------------------------------
Iteration    Energy (Eh)           Delta-E    RMSDP     MaxDP     DIISErr   Damp  Time(sec)
-------------------------------------------------------------------------------------------
               ***  Starting incremental Fock matrix formation  ***
    1    -272.9140199099707615     0.00e+00  1.00e-04  2.07e-03  5.85e-03  0.700   2.6
    2    -272.9141521144664466    -1.32e-04  9.28e-05  1.87e-03  4.49e-03  0.700   2.3
                               ***Turning on AO-DIIS***
                              *** Initializing SOSCF ***
---------------------------------------S-O-S-C-F--------------------------------------
Iteration    Energy (Eh)           Delta-E    RMSDP     MaxDP     MaxGrad    Time(sec)
--------------------------------------------------------------------------------------
    3    -272.9142489876834361    -9.69e-05  2.36e-04  4.54e-03  3.25e-03     2.4
               *** Restarting incremental Fock matrix formation ***
    4    -272.9144732145842909    -2.24e-04  5.20e-05  1.56e-03  2.42e-04     2.6
    5    -272.9144693901394021     3.82e-06  3.15e-05  1.03e-03  4.26e-04     2.2
    6    -272.9144763374602007    -6.95e-06  6.94e-06  2.00e-04  3.05e-05     2.2
    7    -272.9144762687531056     6.87e-08  4.01e-06  1.04e-04  3.79e-05     2.1
                 **** Energy Check signals convergence ****

               *****************************************************
               *                     SUCCESS                       *
               *           SCF CONVERGED AFTER   7 CYCLES          *
               *****************************************************


SMD CDS free energy correction energy :                 3.27634     Kcal/mol
Total Energy after SMD CDS correction =              -272.909255091 Eh
             **** ENERGY FILE WAS UPDATED (xtb_opt.en.tmp) ****

----------------
TOTAL SCF ENERGY
----------------

Total Energy       :       -272.90925509074054 Eh           -7426.23837 eV

Components:
Nuclear Repulsion  :        264.03752591908119 Eh            7184.82635 eV
Electronic Energy  :       -536.93875208257703 Eh          -14610.84625 eV
One Electron Energy:       -892.18973994112594 Eh          -24277.71708 eV
Two Electron Energy:        355.25098785854891 Eh            9666.87083 eV
CPCM Dielectric    :         -0.01325010525725 Eh              -0.36055 eV
SMD CDS (Gcds)     :          0.00522117801256 Eh               0.14208 eV

Virial components:
Potential Energy   :       -544.48500968152121 Eh          -14816.19035 eV
Kinetic Energy     :        271.57575459078066 Eh            7389.95198 eV
Virial Ratio       :          2.00491023398598

DFT components:
N(Alpha)           :       25.000053531460 electrons
N(Beta)            :       25.000053531460 electrons
N(Total)           :       50.000107062920 electrons
E(X)               :      -38.559459666384 Eh       
E(C)               :       -1.562152378549 Eh       
E(XC)              :      -40.121612044933 Eh       

CPCM Solvation Model Properties:
Surface-charge          :         -0.04537778671596
Corrected charge        :         -0.00000000000000
Outlying charge corr.   :          0.00017196341766 Eh               0.00468 eV
Free-energy (cav+disp)  :          0.00522117801256 Eh               0.14208 eV

---------------
SCF CONVERGENCE
---------------

  Last Energy change         ...   -6.8707e-08  Tolerance :   1.0000e-07
  Last MAX-Density change    ...    1.0352e-04  Tolerance :   1.0000e-07
  Last RMS-Density change    ...    4.0086e-06  Tolerance :   5.0000e-09
  Last DIIS Error            ...    3.2510e-03  Tolerance :   1.0000e-07
  Last Orbital Gradient      ...    3.7924e-05  Tolerance :   1.0000e-04
  Last Orbital Rotation      ...    2.5428e-05  Tolerance :   1.0000e-04


----------------
ORBITAL ENERGIES
----------------

  NO   OCC          E(Eh)            E(eV) 
   0   2.0000     -18.947218      -515.5800 
   1   2.0000     -10.073760      -274.1210 
   2   2.0000     -10.019598      -272.6471 
   3   2.0000     -10.018286      -272.6114 
   4   2.0000     -10.009842      -272.3816 
   5   2.0000     -10.008949      -272.3574 
   6   2.0000      -0.981581       -26.7102 
   7   2.0000      -0.750107       -20.4115 
   8   2.0000      -0.707563       -19.2538 
   9   2.0000      -0.639644       -17.4056 
  10   2.0000      -0.573303       -15.6004 
  11   2.0000      -0.528022       -14.3682 
  12   2.0000      -0.458312       -12.4713 
  13   2.0000      -0.434753       -11.8302 
  14   2.0000      -0.414823       -11.2879 
  15   2.0000      -0.384544       -10.4640 
  16   2.0000      -0.368266       -10.0210 
  17   2.0000      -0.345928        -9.4132 
  18   2.0000      -0.335901        -9.1403 
  19   2.0000      -0.331293        -9.0149 
  20   2.0000      -0.313090        -8.5196 
  21   2.0000      -0.297311        -8.0902 
  22   2.0000      -0.293174        -7.9777 
  23   2.0000      -0.270874        -7.3708 
  24   2.0000      -0.234004        -6.3676 
  25   0.0000       0.070154         1.9090 
  26   0.0000       0.112664         3.0658 
  27   0.0000       0.120487         3.2786 
  28   0.0000       0.128827         3.5056 
  29   0.0000       0.140573         3.8252 
  30   0.0000       0.148829         4.0499 
  31   0.0000       0.153179         4.1682 
  32   0.0000       0.158481         4.3125 
  33   0.0000       0.172793         4.7019 
  34   0.0000       0.184205         5.0125 
  35   0.0000       0.190636         5.1875 
*Only the first 10 virtual orbitals were printed.
Total SCF time: 0 days 0 hours 0 min 16 sec 
Finished LeanSCF after  17.0 sec

Maximum memory used throughout the entire LEANSCF-calculation: 24.4 MB


-------------------------------------------------------------------------------
                          DFT DISPERSION CORRECTION                            
                                                                               
                                DFTD4 V3.4.0                                   
-------------------------------------------------------------------------------
-------------------------   ----------------
Dispersion correction           -0.004469038
-------------------------   ----------------

------------------   -----------------
gCP correction             0.009618582
------------------   -----------------

-------------------------   --------------------
FINAL SINGLE POINT ENERGY      -272.904105546970
-------------------------   --------------------

------------------------------------------------------------------------------
                         ORCA SCF GRADIENT CALCULATION
------------------------------------------------------------------------------

Nuc. rep. gradient        (SHARK) ... done (  0.0 sec)
HCore & Overlap gradient  (SHARK) ... done (  0.2 sec)
Split-RIJ-J gradient      (SHARK) ... done (  1.0 sec)
XC gradient                       ... done (  4.3 sec)
CPCM gradient                     ... done (  0.6 sec)
SMD gradient                      ... done (  0.0 sec)
Dispersion correction             ... done (  0.0 sec)

-------------------
DISPERSION GRADIENT
-------------------

   1   C   :   -0.000076942    0.000026582   -0.000045928
   2   C   :   -0.000061613    0.000007582    0.000029290
   3   C   :   -0.000002028   -0.000015361    0.000039046
   4   C   :    0.000056576    0.000019814    0.000027546
   5   C   :    0.000085429    0.000015697   -0.000043556
   6   O   :   -0.000009253   -0.000087012    0.000024686
[...]
E(X)               :      -38.549457340814 Eh       
E(C)               :       -1.561297800250 Eh       
E(XC)              :      -40.110755141065 Eh       

CPCM Solvation Model Properties:
Surface-charge          :         -0.04551497852857
Corrected charge        :         -0.00000000000000
Outlying charge corr.   :          0.00017278157234 Eh               0.00470 eV
Free-energy (cav+disp)  :          0.00515864341379 Eh               0.14037 eV

---------------
SCF CONVERGENCE
---------------

  Last Energy change         ...    1.0023e-09  Tolerance :   1.0000e-07
  Last MAX-Density change    ...    1.1105e-05  Tolerance :   1.0000e-07
  Last RMS-Density change    ...    5.9420e-07  Tolerance :   5.0000e-09
  Last DIIS Error            ...    1.5913e-05  Tolerance :   1.0000e-07
  Last Orbital Gradient      ...    2.7761e-06  Tolerance :   1.0000e-04
  Last Orbital Rotation      ...    4.6585e-06  Tolerance :   1.0000e-04


----------------
ORBITAL ENERGIES
----------------

  NO   OCC          E(Eh)            E(eV) 
   0   2.0000     -18.946799      -515.5686 
   1   2.0000     -10.074409      -274.1386 
   2   2.0000     -10.020919      -272.6831 
   3   2.0000     -10.019847      -272.6539 
   4   2.0000     -10.011266      -272.4204 
   5   2.0000     -10.010305      -272.3942 
   6   2.0000      -0.976637       -26.5757 
   7   2.0000      -0.751499       -20.4493 
   8   2.0000      -0.708359       -19.2754 
   9   2.0000      -0.640790       -17.4368 
  10   2.0000      -0.574897       -15.6437 
  11   2.0000      -0.524729       -14.2786 
  12   2.0000      -0.457922       -12.4607 
  13   2.0000      -0.434313       -11.8183 
  14   2.0000      -0.414294       -11.2735 
  15   2.0000      -0.382704       -10.4139 
  16   2.0000      -0.367494       -10.0000 
  17   2.0000      -0.347339        -9.4516 
  18   2.0000      -0.336608        -9.1596 
  19   2.0000      -0.333509        -9.0752 
  20   2.0000      -0.314125        -8.5478 
  21   2.0000      -0.296921        -8.0796 
  22   2.0000      -0.292253        -7.9526 
  23   2.0000      -0.272692        -7.4203 
  24   2.0000      -0.235249        -6.4015 
  25   0.0000       0.069297         1.8857 
  26   0.0000       0.112456         3.0601 
  27   0.0000       0.117898         3.2082 
  28   0.0000       0.131035         3.5656 
  29   0.0000       0.140092         3.8121 
  30   0.0000       0.147794         4.0217 
  31   0.0000       0.150137         4.0854 
  32   0.0000       0.159321         4.3353 
  33   0.0000       0.169099         4.6014 
  34   0.0000       0.183953         5.0056 
  35   0.0000       0.189227         5.1491 
*Only the first 10 virtual orbitals were printed.
Total SCF time: 0 days 0 hours 0 min 4 sec 
Finished LeanSCF after   5.1 sec

Maximum memory used throughout the entire LEANSCF-calculation: 24.3 MB


-------------------------------------------------------------------------------
                          DFT DISPERSION CORRECTION                            
                                                                               
                                DFTD4 V3.4.0                                   
-------------------------------------------------------------------------------
-------------------------   ----------------
Dispersion correction           -0.004454166
-------------------------   ----------------

------------------   -----------------
gCP correction             0.009586484
------------------   -----------------

-------------------------   --------------------
FINAL SINGLE POINT ENERGY      -272.904713704505
-------------------------   --------------------

------------------------------------------------------------------------------
                         ORCA SCF GRADIENT CALCULATION
------------------------------------------------------------------------------

Nuc. rep. gradient        (SHARK) ... done (  0.0 sec)
HCore & Overlap gradient  (SHARK) ... done (  0.2 sec)
Split-RIJ-J gradient      (SHARK) ... done (  1.0 sec)
XC gradient                       ... done (  4.1 sec)
CPCM gradient                     ... done (  0.6 sec)
SMD gradient                      ... done (  0.0 sec)
Dispersion correction             ... done (  0.0 sec)

-------------------
DISPERSION GRADIENT
-------------------

   1   C   :   -0.000077450    0.000027788   -0.000047047
   2   C   :   -0.000062222    0.000007135    0.000028712
   3   C   :   -0.000001894   -0.000016792    0.000039202
   4   C   :    0.000057676    0.000019283    0.000027789
   5   C   :    0.000085418    0.000016423   -0.000043967
   6   O   :   -0.000009383   -0.000086344    0.000028754
   7   H   :   -0.000037960    0.000012893   -0.000018088
   8   H   :   -0.000031378    0.000020986   -0.000022240
   9   H   :   -0.000033981    0.000000567   -0.000023768
  10   H   :   -0.000029679    0.000014946    0.000016202
  11   H   :   -0.000030289   -0.000005448    0.000009773
  12   H   :    0.000000360   -0.000014049    0.000028416
  13   H   :    0.000025651    0.000019073    0.000013734
  14   H   :    0.000032794    0.000001569    0.000014157
  15   H   :    0.000037725   -0.000006044   -0.000016783
  16   H   :    0.000030641    0.000009372   -0.000025451
  17   H   :    0.000039328    0.000011567   -0.000015844
  18   H   :    0.000004643   -0.000032926    0.000006448

Difference to translation invariance:
           :    0.0000000000   -0.0000000000   -0.0000000000

Difference to rotation invariance:
           :    0.0000000000    0.0000000000    0.0000000000

Norm of the Dispersion gradient    ...    0.0002363575
RMS gradient                       ...    0.0000321642
MAX gradient                       ...    0.0000863436
gCP correction                   ... done

------------------
CARTESIAN GRADIENT
------------------

   1   C   :    0.000059140    0.000001770    0.000047156
   2   C   :   -0.000042216   -0.000045636   -0.000010791
   3   C   :    0.000001745    0.000020998   -0.000068585
   4   C   :    0.000046536   -0.000069508   -0.000047358
   5   C   :   -0.000070803    0.000007097    0.000086534
   6   O   :   -0.000002986    0.000078795    0.000082390
   7   H   :   -0.000035992   -0.000000925   -0.000012793
   8   H   :    0.000015715    0.000018379   -0.000034223
   9   H   :    0.000019041   -0.000035901   -0.000051489
  10   H   :    0.000013596    0.000020134    0.000022015
  11   H   :   -0.000054158   -0.000005971    0.000024511
  12   H   :   -0.000008599    0.000014586   -0.000014668
  13   H   :   -0.000027830    0.000005486    0.000024770
  14   H   :    0.000056760    0.000000471    0.000033406
  15   H   :   -0.000029429   -0.000056393   -0.000046639
  16   H   :   -0.000010736    0.000065775   -0.000027242
  17   H   :    0.000095245    0.000011441    0.000018276
  18   H   :   -0.000025029   -0.000030598   -0.000025271

Difference to translation invariance:
           :    0.0000000000   -0.0000000000    0.0000000000

Difference to rotation invariance:
           :    0.0000719118   -0.0003659633   -0.0003070246

Norm of the Cartesian gradient     ...    0.0003020171
RMS gradient                       ...    0.0000410993
MAX gradient                       ...    0.0000952451

-------
TIMINGS
-------

Total SCF gradient time     ....        6.396 sec

Densities                   ....       0.000 sec  (  0.0%)
One electron gradient       ....       0.182 sec  (  2.8%)
RI-J Coulomb gradient       ....       0.960 sec  ( 15.0%)
XC gradient                 ....       4.090 sec  ( 64.0%)
CPCM gradient               ....       0.600 sec  (  9.4%)
   A-Matrix (El+Nuc)        ....       0.059 sec  (  0.9%)
   Potential                ....       0.541 sec  (  8.5%)
SMD gradient                ....       0.011 sec  (  0.2%)

Maximum memory used throughout the entire SCFGRAD-calculation: 32.5 MB

------------------------------------------------------------------------------
                              ORCA PROPERTY CALCULATIONS
------------------------------------------------------------------------------

GBWName                                 ... xtb_opt.gbw
Number of atoms                         ...     18
Number of basis functions               ...    179
Max core memory                         ...   1024 MB

Electric properties:
Dipole moment                           ... YES
Quadrupole moment                       ...  NO
Static polarizability (Dipole/Dipole)   ...  NO
Static polarizability (Dipole/Quad.)    ...  NO
Static polarizability (Quad./Quad.)     ...  NO
Static polarizability (Velocity)        ...  NO

Atomic electric properties:
Dipole moment                           ...  NO
Quadrupole moment                       ...  NO
Static polarizability                   ...  NO

Choice of electric origin               ... Center of mass
Position of electric origin             ...     0.001538    -0.016857     0.013953

General magnetic properties:
Magnetizability                         ...  NO

EPR properties:
g-Tensor (aka g-matrix)                 ...  NO
Zero-Field splitting spin-orbit         ...  NO
Zero-field splitting spin-spin          ...  NO
Hyperfine couplings                     ...  NO (   0 nuclei)
Quadrupole couplings                    ...  NO (   0 nuclei)
Contact density                         ...  NO (   0 nuclei)

NMR properties:
Chemical shifts                         ...  NO (   0 nuclei)
Spin-rotation constants                 ...  NO (   0 nuclei)
Spin-spin couplings                     ...  NO (   0 nuclei,    0 pairs)

Choice of magnetic origin               ... GIAO
Position of magnetic origin             ...     0.000000     0.000000     0.000000

Properties with geometric perturbations:
SCF Hessian                             ...  NO
IR spectrum                             ...  NO
VCD spectrum                            ...  NO
X-ray spectroscopy properties:
SCF XES/XAS/RIXS spectra                ...  NO


-------------
DIPOLE MOMENT
-------------

Method             : SCF
Type of density    : Electron Density
Multiplicity       :   1
Irrep              :   0
Energy             :  -272.9098460225905001 Eh
Relativity type    : 
Basis              : AO
                                X                 Y                 Z
Electronic contribution:      0.053824580      -3.267512590       2.275357088
Nuclear contribution   :     -0.729944223       3.611085243      -1.703045228
                        -----------------------------------------
Total Dipole Moment    :     -0.676119642       0.343572653       0.572311861
                        -----------------------------------------
Magnitude (a.u.)       :      0.950116206
Magnitude (Debye)      :      2.415003472



--------------------
Rotational spectrum 
--------------------
 
Rotational constants in cm-1:             0.134854             0.091865             0.074336 
Rotational constants in MHz :          4042.814872          2754.046258          2228.533187 

Dipole components along the rotational axes: 
x,y,z [a.u.] :    -0.699147    -0.090778     0.636925 
x,y,z [Debye]:    -1.777090    -0.230739     1.618935 

 

Dipole moment calculation done in   0.0 sec 

Maximum memory used throughout the entire PROP-calculation: 10.8 MB

--------------------------------
SUGGESTED CITATIONS FOR THIS RUN
--------------------------------

Below you find a list of papers that are relevant to this ORCA run
We neither can nor want to force you to cite these papers, but we appreciate if you do
You receive ORCA, which is the product of decades of hard work by many enthusiastic individuals, for free
The only thing we kindly ask in return is that you cite our papers,
We deeply appreciate it, if you show your appreciation for ORCA by not just citing the generic ORCA reference.

Please note that relegating all ORCA citations to the supporting information does *not* help us.
SI sections are not indexed - citations you put there will not count into any citation statistics
But we need these citations in order to attract the funding resources that allow us to do what we are doing

Therefore, if you are a happy ORCA user, please consider citing a few of the papers listed below in the main body of your paper

In addition to the list printed below, the program has created the file xtb_opt.bibtex that contains the list in bibtex format
You can import this file easily into all common literature databanks and citation aid programs


List of essential papers. We consider these as the minimum necessary citations

  1. Neese,F.
     Software update: the ORCA program system, version 5.0
     WIRES Comput. Molec. Sci., 2022 12(1)e1606
     doi.org/10.1002/wcms.1606
  2. Grimme,S.; Hansen,A.; Ehlert,S.; Mewes,J.
     r2SCAN-3c: A 'Swiss army knife' composite electronic-structure method
     J. Chem. Phys., 2021 154 064103
     doi.org/10.1063/5.0040021

List of papers to cite with high priority. The work reported in these papers was absolutely
necessary for this run to complete.
Our perspective: the developers of density functionals and basis sets usually get cited in chemistry papers
Good! But without the algorithms to do something with them, the functionals or basis sets would not do anything.
Hence, in our opinion, the algorithm design and method developments papers are equally worthy of getting cited

  1. Neese,F.
     An improvement of the resolution of the identity approximation for the formation of the Coulomb matrix
     J. Comp. Chem., 2003 24(14)1740-1747
     doi.org/10.1002/jcc.10318
  2. Garcia-Rates,M.; Neese,F.
     Effect of the Solute Cavity on the Solvation Energy and its Derivatives within the Framework of the Gaussian Charge Scheme
     J. Comput. Chem., 2020 41 922-939
     doi.org/10.1002/jcc.26139
  3. Neese,F.
     The SHARK Integral Generation and Digestion System
     J. Comp. Chem., 2022  1-16
     doi.org/10.1002/jcc.26942
  4. Lehtola,S.; Steigemann,C.; Oliveira,M.; Marques,M.
     Recent developments in Libxc - A comprehensive library of functionals for density functional theory
     Software X, 2018 7 
     doi.org/10.1016/j.softx.2017.11.002
  5. Caldeweyher,E.; Bannwarth,C.; Grimme,S.
     Extension of the D3 dispersion coefficient model
     J. Chem. Phys., 2017 147 034112-XXXX
     doi.org/10.1063/1.4993215
  6. Caldeweyher,E.; Ehlert,S.; Hansen,A.; Neugebauer,H.; Spicher,S.; Bannwarth,C.; Grimme,S.
     A generally applicable atomic-charge dependent London dispersion correction
     J. Chem. Phys., 2019 150 154122-XXXX
     doi.org/10.1063/1.5090222
  7. Caldeweyher,E.; Mewes,J.; Ehlert,S.; Grimme,S.
     Extension and evaluation of the D4 London-dispersion model for periodic systems
     Phys. Chem. Chem. Phys., 2020 22(16)8499-8512
     doi.org/10.1039/D0CP00502A

List of suggested additional citations. These are papers that are important in the 'surrounding' of 
of this run, or papers that preceded the highly important papers. If you like your results we are grateful for a citation.

  1. Neese,F.
     The ORCA program system
     WIRES Comput. Molec. Sci., 2012 2(1)73-78
     doi.org/10.1002/wcms.81
  2. Neese,F.
     Software update: the ORCA program system, version 4.0
     WIRES Comput. Molec. Sci., 2018 8(1)1-6
     doi.org/10.1002/wcms.1327
  3. Neese,F.; Wennmohs,F.; Becker,U.; Riplinger,C.
     The ORCA quantum chemistry program package
     J. Chem. Phys., 2020 152 Art. No. L224108
     doi.org/10.1063/5.0004608

List of optional additional citations

  1. Neese,F.
     Approximate second-order SCF convergence for spin unrestricted wavefunctions
     Chem. Phys. Lett., 2000 325(1-3)93-98
     doi.org/10.1016/s0009-2614(00)00662-x

Timings for individual modules:

Sum of individual times          ...       13.040 sec (=   0.217 min)
Startup calculation              ...        1.048 sec (=   0.017 min)   8.0 %
SCF iterations                   ...        5.398 sec (=   0.090 min)  41.4 %
Property calculations            ...        0.106 sec (=   0.002 min)   0.8 %
SCF Gradient evaluation          ...        6.488 sec (=   0.108 min)  49.8 %
                             ****ORCA TERMINATED NORMALLY****
TOTAL RUN TIME: 0 days 0 hours 0 minutes 13 seconds 900 msec
  ------------------------------------------------------------------------
          * successful ORCA run, taking over control again...

         :::::::::::::::::::::::::::::::::::::::::::::::::::::
         ::                  ORCA SUMMARY                   ::
         :::::::::::::::::::::::::::::::::::::::::::::::::::::
         :: total energy            -272.904713704505 Eh    ::
         :: gradient norm              0.000302017111 Eh/a0 ::
         :: HOMO-LUMO gap              0.000000000000 eV    ::
         :::::::::::::::::::::::::::::::::::::::::::::::::::::

           -------------------------------------------------
          |                Property Printout                |
           -------------------------------------------------
           -------------------------------------------------
          |                Geometry Summary                 |
           -------------------------------------------------

      molecular mass/u    :       88.1483734
   center of mass at/Å    :        0.0008151      -0.0089353       0.0073865
  moments of inertia/u·Å² :        0.1250048E+03   0.1834991E+03   0.2267713E+03
rotational constants/cm⁻¹ :        0.1348559E+00   0.9186768E-01   0.7433760E-01

 * 16 selected distances

     #   Z          #   Z                                           value/Å
     1   6 C        2   6 C                                       1.5267552
     2   6 C        3   6 C                                       1.5311545
     3   6 C        4   6 C                                       1.5322691 (max)
     4   6 C        5   6 C                                       1.5294738
     1   6 C        7   1 H                                       1.0949777
     1   6 C        8   1 H                                       1.0936020
     1   6 C        9   1 H                                       1.0950029
     2   6 C       10   1 H                                       1.0974775
     2   6 C       11   1 H                                       1.0988631
     3   6 C       12   1 H                                       1.1009631
     4   6 C       13   1 H                                       1.0967102
     4   6 C       14   1 H                                       1.0968591
     5   6 C       15   1 H                                       1.0935717
     5   6 C       16   1 H                                       1.0918735
     5   6 C       17   1 H                                       1.0950791
     6   8 O       18   1 H                                       0.9661212 (min)

 * 3 distinct bonds (by element types)

   Z      Z             #   av. dist./Å        max./Å        min./Å
   1 H    6 C          11     1.0959073     1.1009631     1.0918735
   6 C    6 C           4     1.5299132     1.5322691     1.5267552
   1 H    8 O           1     0.9661212     0.9661212     0.9661212


optimized geometry written to: xtbopt.coord


           -------------------------------------------------
          | TOTAL ENERGY             -272.904713704505 Eh   |
          | GRADIENT NORM               0.000302017111 Eh/α |
           -------------------------------------------------

------------------------------------------------------------------------
 * finished run on 2025/04/11 at 12:07:01.073     
------------------------------------------------------------------------
 total:
 * wall-time:     0 d,  0 h,  3 min, 13.249 sec
 *  cpu-time:     0 d,  0 h,  0 min,  2.984 sec
 * ratio c/w:     0.015 speedup
 SCF:
 * wall-time:     0 d,  0 h,  0 min, 20.043 sec
 *  cpu-time:     0 d,  0 h,  0 min,  1.135 sec
 * ratio c/w:     0.057 speedup
 ANC optimizer:
 * wall-time:     0 d,  0 h,  2 min, 53.088 sec
 *  cpu-time:     0 d,  0 h,  0 min,  1.515 sec
 * ratio c/w:     0.009 speedup

