      -----------------------------------------------------------      
     |                   =====================                   |     
     |                           x T B                           |     
     |                   =====================                   |     
     |                         S. Grimme                         |     
     |          Mulliken Center for Theoretical Chemistry        |     
     |                    University of Bonn                     |     
      -----------------------------------------------------------      

   * xtb version 6.7.1 (edcfbbe) compiled by 'albert@albert-system' on 2024-07-22

   xtb is free software: you can redistribute it and/or modify it under
   the terms of the GNU Lesser General Public License as published by
   the Free Software Foundation, either version 3 of the License, or
   (at your option) any later version.
   
   xtb is distributed in the hope that it will be useful,
   but WITHOUT ANY WARRANTY; without even the implied warranty of
   MERCHANTABILITY or FITNESS FOR A PARTICULAR PURPOSE.  See the
   GNU Lesser General Public License for more details.
   
   Cite this work as:
   * C. Bannwarth, E. Caldeweyher, S. Ehlert, A. Hansen, P. Pracht,
     J. Seibert, S. Spicher, S. Grimme, WIREs Comput. Mol. Sci., 2020, 11,
     e01493. DOI: 10.1002/wcms.1493
   
   for GFN2-xTB:
   * C. Bannwarth, S. Ehlert and S. Grimme., J. Chem. Theory Comput., 2019,
     15, 1652-1671. DOI: 10.1021/acs.jctc.8b01176
   for GFN1-xTB:
   * S. Grimme, C. Bannwarth, P. Shushkov, J. Chem. Theory Comput., 2017,
     13, 1989-2009. DOI: 10.1021/acs.jctc.7b00118
   for GFN0-xTB:
   * P. Pracht, E. Caldeweyher, S. Ehlert, S. Grimme, ChemRxiv, 2019, preprint.
     DOI: 10.26434/chemrxiv.8326202.v1
   for GFN-FF:
   * S. Spicher and S. Grimme, Angew. Chem. Int. Ed., 2020, 59, 15665-15673.
     DOI: 10.1002/anie.202004239
   
   for ALPB and GBSA implicit solvation:
   * S. Ehlert, M. Stahn, S. Spicher, S. Grimme, J. Chem. Theory Comput.,
     2021, 17, 4250-4261. DOI: 10.1021/acs.jctc.1c00471
   
   for ddCOSMO and CPCM-X implicit solvation:
   * M. Stahn, S. Ehlert, S. Grimme, J. Phys. Chem. A,
     2023, XX, XXXX-XXXX. DOI: 10.1021/acs.jpca.3c04382
   
   for DFT-D4:
   * E. Caldeweyher, C. Bannwarth and S. Grimme, J. Chem. Phys., 2017,
     147, 034112. DOI: 10.1063/1.4993215
   * E. Caldeweyher, S. Ehlert, A. Hansen, H. Neugebauer, S. Spicher,
     C. Bannwarth and S. Grimme, J. Chem. Phys., 2019, 150, 154122.
     DOI: 10.1063/1.5090222
   * E. Caldeweyher, J.-M. Mewes, S. Ehlert and S. Grimme, Phys. Chem. Chem. Phys.
     2020, 22, 8499-8512. DOI: 10.1039/D0CP00502A
   
   for sTDA-xTB:
   * S. Grimme and C. Bannwarth, J. Chem. Phys., 2016, 145, 054103.
     DOI: 10.1063/1.4959605
   
   in the mass-spec context:
   * V. Asgeirsson, C. Bauer and S. Grimme, Chem. Sci., 2017, 8, 4879.
     DOI: 10.1039/c7sc00601b
   * J. Koopman and S. Grimme, ACS Omega 2019, 4, 12, 15120-15133.
     DOI: 10.1021/acsomega.9b02011
   
   for metadynamics refer to:
   * S. Grimme, J. Chem. Theory Comput., 2019, 155, 2847-2862
     DOI: 10.1021/acs.jctc.9b00143
   
   for SPH calculations refer to:
   * S. Spicher and S. Grimme, J. Chem. Theory Comput., 2021, 17, 1701-1714
     DOI: 10.1021/acs.jctc.0c01306
   
   for ONIOM refer to:
   * C. Plett, A. Katbashev, S. Ehlert, S. Grimme, M. Bursch,
     Phys. Chem. Chem. Phys., 2023, 25, 17860-17868. DOI: 10.1039/D3CP02178E
   
   for DIPRO refer to:
   * J. Kohn, N. Gildemeister, S. Grimme, D. Fazzi, A. Hansen,
     J. Chem. Phys., 2023, just accepted.
   
   for PTB refer to:
   * S. Grimme, M. Mueller, A. Hansen, J. Chem. Phys., 2023, 158, 124111.
     DOI: 10.1063/5.0137838
   
   with help from (in alphabetical order)
   P. Atkinson, C. Bannwarth, F. Bohle, G. Brandenburg, E. Caldeweyher
   M. Checinski, S. Dohm, S. Ehlert, S. Ehrlich, I. Gerasimov, C. Hölzer
   A. Katbashev, J. Kohn, J. Koopman, C. Lavigne, S. Lehtola, F. März, M. Müller,
   F. Musil, H. Neugebauer, J. Pisarek, C. Plett, P. Pracht, F. Pultar,
   J. Seibert, P. Shushkov, S. Spicher, M. Stahn, M. Steiner, T. Strunk,
   J. Stückrath, T. Rose, and J. Unsleber
   
 * started run on 2025/04/11 at 11:04:51.133     
   ID    Z sym.   atoms
    1    6 C      1-3, 5-11
    2    1 H      4, 12-24

           -------------------------------------------------
          |                Calculation Setup                |
           -------------------------------------------------

          program call               : /srv/scratch/z5358697/.xtb/bin/xtb xtb_opt.coord --opt normal --orca -I xtb_opt-xcontrol-inp
          hostname                   : k112
          coordinate file            : xtb_opt.coord
          omp threads                :                     7

           -------------------------------------------------
          |                   Orca driver                   |
           -------------------------------------------------
orca executable           : /apps/z_install_tree/linux-rocky8-ivybridge/gcc-12.2.0/orca-6.0.0-srtngmq3qlimg2qxbl6avaaiffipurdx/bin/orca
orca input file           : xtb_opt.inp
orca input line           : 
orca parallel             : true
orca number of threads    : 7
                         * ORCA takes the control...
  ------------------------------------------------------------------------

                                 *****************
                                 * O   R   C   A *
                                 *****************

                                            #,                                       
                                            ###                                      
                                            ####                                     
                                            #####                                    
                                            ######                                   
                                           ########,                                 
                                     ,,################,,,,,                         
                               ,,#################################,,                 
                          ,,##########################################,,             
                       ,#########################################, ''#####,          
                    ,#############################################,,   '####,        
                  ,##################################################,,,,####,       
                ,###########''''           ''''###############################       
              ,#####''   ,,,,##########,,,,          '''####'''          '####       
            ,##' ,,,,###########################,,,                        '##       
           ' ,,###''''                  '''############,,,                           
         ,,##''                                '''############,,,,        ,,,,,,###''
      ,#''                                            '''#######################'''  
     '                                                          ''''####''''         
             ,#######,   #######,   ,#######,      ##                                
            ,#'     '#,  ##    ##  ,#'     '#,    #''#        ,####,   ,####,        
            ##       ##  ##   ,#'  ##            #'  '#       #'       #'  '#        
            ##       ##  #######   ##           ,######,      #####,   #    #        
            '#,     ,#'  ##    ##  '#,     ,#' ,#      #,     #,   #   #,  ,#        
             '#######'   ##     ##  '#######'  #'      '#     '####' # '####'        



                #########################################################
                #                        -***-                          #
                #          Department of theory and spectroscopy        #
                #                                                       #
                #                      Frank Neese                      #
                #                                                       #
                #     Directorship, Architecture, Infrastructure        #
                #                    SHARK, DRIVERS                     #
                #        Core code/Algorithms in most modules           #
                #                                                       #
                #        Max Planck Institute fuer Kohlenforschung      #
                #                Kaiser Wilhelm Platz 1                 #
                #                 D-45470 Muelheim/Ruhr                 #
                #                      Germany                          #
                #                                                       #
                #                  All rights reserved                  #
                #                        -***-                          #
                #########################################################


                         Program Version 6.0.0  -   RELEASE  -


 With contributions from (in alphabetic order):
   Daniel Aravena         : Magnetic Suceptibility
   Michael Atanasov       : Ab Initio Ligand Field Theory (pilot matlab implementation)
   Alexander A. Auer      : GIAO ZORA, VPT2 properties, NMR spectrum
   Ute Becker             : All parallelization in ORCA, NUMFREQ, NUMCALC
   Giovanni Bistoni       : ED, misc. LED, open-shell LED, HFLD
   Martin Brehm           : Molecular dynamics
   Dmytro Bykov           : pre 5.0 version of the SCF Hessian
   Marcos Casanova-Páez   : Triplet and SCS-CIS(D). UHF-(DLPNO)-IP/EA/STEOM-CCSD. UHF-CVS-IP/STEOM-CCSD
   Vijay G. Chilkuri      : MRCI spin determinant printing, contributions to CSF-ICE
   Pauline Colinet        : FMM embedding
   Dipayan Datta          : RHF DLPNO-CCSD density
   Achintya Kumar Dutta   : EOM-CC, STEOM-CC
   Nicolas Foglia         : Exact transition moments, OPA infrastructure, MCD improvements
   Dmitry Ganyushin       : Spin-Orbit,Spin-Spin,Magnetic field MRCI
   Miquel Garcia          : C-PCM and meta-GGA Hessian, CCSD/C-PCM, Gaussian charge scheme
   Tiago L. C. Gouveia    : GS-ROHF, GS-ROCIS
   Yang Guo               : DLPNO-NEVPT2, F12-NEVPT2, CIM, IAO-localization
   Andreas Hansen         : Spin unrestricted coupled pair/coupled cluster methods
   Ingolf Harden          : AUTO-CI MPn and infrastructure 
   Benjamin Helmich-Paris : MC-RPA, TRAH-(SCF,CASSCF), AVAS, COSX integrals, SCF dyn. polar.
   Lee Huntington         : MR-EOM, pCC
   Robert Izsak           : Overlap fitted RIJCOSX, COSX-SCS-MP3, EOM
   Riya Kayal             : Wick's Theorem for AUTO-CI, AUTO-CI UHF-CCSDT
   Emily Kempfer          : AUTO-CI, RHF CISDT and CCSDT
   Christian Kollmar      : KDIIS, OOCD, Brueckner-CCSD(T), CCSD density, CASPT2, CASPT2-K, improved NEVPT2
   Axel Koslowski         : Symmetry handling
   Simone Kossmann        : Meta GGA functionals, TD-DFT gradient, OOMP2, (MP2 Hessian; deprecated post 5.0)
   Lucas Lang             : DCDCAS
   Marvin Lechner         : AUTO-CI (C++ implementation), FIC-MRCC
   Spencer Leger          : CASSCF response
   Dagmar Lenk            : GEPOL surface, SMD, ORCA-2-JSON
   Dimitrios Liakos       : Extrapolation schemes; Compound Job, initial MDCI parallelization
   Dimitrios Manganas     : Further ROCIS development; embedding schemes. LFT, Crystal Embedding
   Dimitrios Pantazis     : SARC Basis sets
   Anastasios Papadopoulos: AUTO-CI, single reference methods and gradients
   Taras Petrenko         : pre 6.0 DFT Hessian and TD-DFT gradient, (ASA, deprecated), ECA, 1-Electron XAS/XES, NRVS
   Peter Pinski           : DLPNO-MP2, DLPNO-MP2 Gradient
   Christoph Reimann      : Effective Core Potentials
   Marius Retegan         : Local ZFS, SOC
   Christoph Riplinger    : Optimizer, TS searches, QM/MM, DLPNO-CCSD(T), (RO)-DLPNO pert. Triples
   Michael Roemelt        : Original ROCIS implementation
   Masaaki Saitow         : Open-shell DLPNO-CCSD energy and density
   Barbara Sandhoefer     : DKH picture change effects
   Kantharuban Sivalingam : CASSCF convergence/infrastructure, NEVPT2 and variants, FIC-MRCI
   Bernardo de Souza      : ESD, SOC TD-DFT
   Georgi Stoychev        : AutoAux, RI-MP2 NMR, DLPNO-MP2 response, X2C
   Van Anh Tran           : RI-MP2 g-tensors
   Willem Van den Heuvel  : Paramagnetic NMR
   Zikuan Wang            : NOTCH, Electric field optimization 
   Frank Wennmohs         : Technical directorship and infrastructure
   Hang Xu                : AUTO-CI-Response properties 


 We gratefully acknowledge several colleagues who have allowed us to
 interface, adapt or use parts of their codes:
   Stefan Grimme, W. Hujo, H. Kruse, P. Pracht,  : VdW corrections, initial TS optimization,
                  C. Bannwarth, S. Ehlert,         DFT functionals, gCP, sTDA/sTD-DF
                  L. Wittmann, M. Mueller
   Ed Valeev, F. Pavosevic, A. Kumar             : LibInt (2-el integral package), F12 methods
   Garnet Chan, S. Sharma, J. Yang, R. Olivares  : DMRG
   Ulf Ekstrom                                   : XCFun DFT Library
   Mihaly Kallay                                 : mrcc  (arbitrary order and MRCC methods)
   Frank Weinhold                                : gennbo (NPA and NBO analysis)
   Simon Mueller                                 : openCOSMO-RS
   Christopher J. Cramer and Donald G. Truhlar   : smd solvation model
   Lars Goerigk                                  : TD-DFT with DH, B97 family of functionals
   V. Asgeirsson, H. Jonsson                     : NEB implementation
   FAccTs GmbH                                   : IRC, NEB, NEB-TS, DLPNO-Multilevel, CI-OPT
                                                   MM, QMMM, 2- and 3-layer-ONIOM, Crystal-QMMM,
                                                   LR-CPCM, SF, NACMEs, symmetry and pop. for TD-DFT,
                                                   nearIR, NL-DFT gradient (VV10), updates on ESD,
                                                   ML-optimized integration grids, MBIS, APM,
                                                   GOAT, DOCKER, SOLVATOR, interface openCOSMO-RS
   S Lehtola, MJT Oliveira, MAL Marques          : LibXC Library
   Liviu Ungur et al                             : ANISO software


 Your calculation uses the libint2 library for the computation of 2-el integrals
 For citations please refer to: http://libint.valeyev.net

 Your ORCA version has been built with support for libXC version: 6.2.2
 For citations please refer to: https://libxc.gitlab.io

 This ORCA versions uses:
   CBLAS   interface :  Fast vector & matrix operations
   LAPACKE interface :  Fast linear algebra routines
   SCALAPACK package :  Parallel linear algebra routines
   Shared memory     :  Shared parallel matrices
   BLAS/LAPACK       :  OpenBLAS 0.3.27  USE64BITINT DYNAMIC_ARCH NO_AFFINITY SkylakeX SINGLE_THREADED
        Core in use  :  SkylakeX
   Copyright (c) 2011-2014, The OpenBLAS Project




***************************************
The coordinates will be read from file: xtb_opt.xyz
***************************************


Your calculation utilizes the geometrical counterpoise correction gCP
Please cite in your paper:
H.Kruse, S. Grimme J.Chem.Phys., 136, (2012), 154101 
   

Your calculation utilizes the atom-pairwise dispersion correction
based on EEQ partial charges (D4)


Your calculation utilizes the SMD solvation module
Please cite in your paper:
A.V. Marenich, C.J. Cramer, D.G. Truhlar J. Phys. Chem. B, 113, (2009), 6378 

================================================================================

----- Orbital basis set information -----
Your calculation utilizes the basis: def2-mTZVPP
   Stefan Grimme, Andreas Hansen, Sebastian Ehlert, and Jan-Michael Mewes 
   J. Chem. Phys. 154, 064103 (2021). DOI: 10.1063/5.0040021

----- AuxJ basis set information -----
Your calculation utilizes the auxiliary basis: def2/J
   F. Weigend, Phys. Chem. Chem. Phys. 8, 1057 (2006).

================================================================================
                                        WARNINGS
                       Please study these warnings very carefully!
================================================================================

WARNING: Old DensityContainer found on disk!
         Will remove this file - 
         If you want to keep old densities, please start your calculation with a different basename. 

Using LibXC functional ID 497 : Re-regularized SCAN exchange by Furness et al
[ 1]  J. W. Furness, A. D. Kaplan, J. Ning, J. P. Perdew, and J. Sun.,  J. Phys. Chem. Lett. 11, 8208-8215 (2020)
[ 2]  J. W. Furness, A. D. Kaplan, J. Ning, J. P. Perdew, and J. Sun.,  J. Phys. Chem. Lett. 11, 9248-9248 (2020)
Using LibXC functional ID 498 : Re-regularized SCAN correlation by Furness et al
[ 1]  J. W. Furness, A. D. Kaplan, J. Ning, J. P. Perdew, and J. Sun.,  J. Phys. Chem. Lett. 11, 8208-8215 (2020)
[ 2]  J. W. Furness, A. D. Kaplan, J. Ning, J. P. Perdew, and J. Sun.,  J. Phys. Chem. Lett. 11, 9248-9248 (2020)
Using LibXC functional ID 497 : Re-regularized SCAN exchange by Furness et al
[ 1]  J. W. Furness, A. D. Kaplan, J. Ning, J. P. Perdew, and J. Sun.,  J. Phys. Chem. Lett. 11, 8208-8215 (2020)
[ 2]  J. W. Furness, A. D. Kaplan, J. Ning, J. P. Perdew, and J. Sun.,  J. Phys. Chem. Lett. 11, 9248-9248 (2020)
Using LibXC functional ID 498 : Re-regularized SCAN correlation by Furness et al
[ 1]  J. W. Furness, A. D. Kaplan, J. Ning, J. P. Perdew, and J. Sun.,  J. Phys. Chem. Lett. 11, 8208-8215 (2020)
[ 2]  J. W. Furness, A. D. Kaplan, J. Ning, J. P. Perdew, and J. Sun.,  J. Phys. Chem. Lett. 11, 9248-9248 (2020)

================================================================================
                                       INPUT FILE
================================================================================
NAME = xtb_opt.inp
|  1> ! r2scan-3c def2/J RI DEFGRID2 scfconv7 ENGRAD tightSCF miniprint
|  2> %cpcm
|  3>     smd true
|  4>     smdsolvent "water"
|  5> end
|  6> * xyzfile 0 1 xtb_opt.xyz
|  7> 
|  8>                          ****END OF INPUT****
================================================================================

                     *******************************
                     * Energy+Gradient Calculation *
                     *******************************

---------------------------------
CARTESIAN COORDINATES (ANGSTROEM)
---------------------------------
  C      2.658398    0.203052   -1.526535
  C      2.238217    0.945342   -0.255238
  C      1.339887    0.156818    0.713461
  H      1.355900    0.701626    1.668118
  C      1.911580   -1.241767    0.992053
  C     -0.126713    0.076778    0.315526
  C     -1.039391   -0.477972    1.226673
  C     -2.397574   -0.552763    0.940257
  C     -2.883332   -0.074503   -0.276314
  C     -1.993448    0.481063   -1.190591
  C     -0.631237    0.559233   -0.896204
  H      3.310749   -0.643002   -1.293050
  H      1.803859   -0.186738   -2.087076
  H      3.215063    0.872589   -2.190125
  H      3.146129    1.223472    0.293297
  H      1.743545    1.888342   -0.517643
  H      2.963055   -1.169709    1.288897
  H      1.369003   -1.739706    1.800453
  H      1.849380   -1.879954    0.105420
  H     -0.679811   -0.842761    2.185221
  H     -3.079766   -0.978190    1.671518
  H     -3.943478   -0.127428   -0.502799
  H     -2.356250    0.863983   -2.140229
  H      0.029595    1.013570   -1.626447

----------------------------
CARTESIAN COORDINATES (A.U.)
----------------------------
  NO LB      ZA    FRAG     MASS         X           Y           Z
   0 C     6.0000    0    12.011    5.023645    0.383713   -2.884733
   1 C     6.0000    0    12.011    4.229618    1.786437   -0.482330
   2 C     6.0000    0    12.011    2.532020    0.296343    1.348245
   3 H     1.0000    0     1.008    2.562280    1.325880    3.152285
   4 C     6.0000    0    12.011    3.612363   -2.346600    1.874708
   5 C     6.0000    0    12.011   -0.239453    0.145090    0.596258
   6 C     6.0000    0    12.011   -1.964164   -0.903235    2.318075
   7 C     6.0000    0    12.011   -4.530758   -1.044571    1.776829
   8 C     6.0000    0    12.011   -5.448708   -0.140791   -0.522158
   9 C     6.0000    0    12.011   -3.767071    0.909078   -2.249892
  10 C     6.0000    0    12.011   -1.192865    1.056797   -1.693580
  11 H     1.0000    0     1.008    6.256408   -1.215098   -2.443510
  12 H     1.0000    0     1.008    3.408800   -0.352883   -3.944002
  13 H     1.0000    0     1.008    6.075589    1.648954   -4.138737
  14 H     1.0000    0     1.008    5.945322    2.312027    0.554250
  15 H     1.0000    0     1.008    3.294823    3.568449   -0.978203
  16 H     1.0000    0     1.008    5.599362   -2.210429    2.435662
  17 H     1.0000    0     1.008    2.587041   -3.287568    3.402364
  18 H     1.0000    0     1.008    3.494821   -3.552599    0.199216
  19 H     1.0000    0     1.008   -1.284657   -1.592588    4.129469
  20 H     1.0000    0     1.008   -5.819914   -1.848511    3.158711
  21 H     1.0000    0     1.008   -7.452093   -0.240804   -0.950153
  22 H     1.0000    0     1.008   -4.452667    1.632690   -4.044447
  23 H     1.0000    0     1.008    0.055927    1.915370   -3.073538

------------------------------------------------------------------------------
                   ___                                                        
                  /   \      - P O W E R E D   B Y -                         
                 /     \                                                     
                 |  |  |   _    _      __       _____    __    __             
                 |  |  |  | |  | |    /  \     |  _  \  |  |  /  |          
                  \  \/   | |  | |   /    \    | | | |  |  | /  /          
                 / \  \   | |__| |  /  /\  \   | |_| |  |  |/  /          
                |  |  |   |  __  | /  /__\  \  |    /   |      \           
                |  |  |   | |  | | |   __   |  |    \   |  |\   \          
                \     /   | |  | | |  |  |  |  | |\  \  |  | \   \       
                 \___/    |_|  |_| |__|  |__|  |_| \__\ |__|  \__/        
                                                                              
                      - O R C A' S   B I G   F R I E N D -                    
                                      &                                       
                       - I N T E G R A L  F E E D E R -                       
                                                                              
 v1 FN, 2020, v2 2021, v3 2022-2024                                           
------------------------------------------------------------------------------


----------------------
SHARK INTEGRAL PACKAGE
----------------------

Number of atoms                             ...     24
Number of basis functions                   ...    260
Number of shells                            ...    132
Maximum angular momentum                    ...      2
Integral batch strategy                     ... SHARK/LIBINT Hybrid
RI-J (if used) integral strategy            ... SPLIT-RIJ (Revised 2003 algorithm where possible)
Printlevel                                  ...      1
Contraction scheme used                     ... SEGMENTED contraction
Prescreening option                         ... SCHWARTZ
   Thresh                                   ... 3.000e-11
   Tcut                                     ... 1.000e-12
   Tpresel                                  ... 1.000e-12 
Coulomb Range Separation                    ... NOT USED
Exchange Range Separation                   ... NOT USED
Multipole approximations                    ... NOT USED
Finite Nucleus Model                        ... NOT USED
CABS basis                                  ... NOT available
Auxiliary Coulomb fitting basis             ... AVAILABLE
   # of basis functions in Aux-J            ...    644
   # of shells in Aux-J                     ...    220
   Maximum angular momentum in Aux-J        ...      4
Auxiliary J/K fitting basis                 ... NOT available
Auxiliary Correlation fitting basis         ... NOT available
Auxiliary 'external' fitting basis          ... NOT available

Checking pre-screening integrals            ... done (  0.0 sec) Dimension = 132
Check shell pair data                       ... done (  0.0 sec)
Shell pair information
Shell pair cut-off parameter TPreSel        ...   1.0e-12
Total number of shell pairs                 ...      8778
Shell pairs after pre-screening             ...      7732
Total number of primitive shell pairs       ...     31637
Primitive shell pairs kept                  ...     19458
          la=0 lb=0:   2676 shell pairs
          la=1 lb=0:   3043 shell pairs
          la=1 lb=1:    893 shell pairs
          la=2 lb=0:    680 shell pairs
          la=2 lb=1:    390 shell pairs
          la=2 lb=2:     50 shell pairs

Calculating one electron integrals          ... done (  0.0 sec)
Calculating RI/J V-Matrix + Cholesky decomp.... done (  0.1 sec)
Calculating Nuclear repulsion               ... done (  0.0 sec) ENN=    509.476153226496 Eh

Diagonalization of the overlap matrix:
Smallest eigenvalue                        ... 3.066e-05
Time for diagonalization                   ...    0.007 sec
Threshold for overlap eigenvalues          ... 1.000e-07
Number of eigenvalues below threshold      ... 0
Time for construction of square roots      ...    0.018 sec
Total time needed                          ...    0.035 sec

-------------------
DFT GRID GENERATION
-------------------

General Integration Accuracy     IntAcc      ... 4.388
Radial Grid Type                 RadialGrid  ... OptM3 with GC (2021)
Angular Grid (max. ang.)         AngularGrid ... 4 (Lebedev-302)
Angular grid pruning method      GridPruning ... 4 (adaptive)
Weight generation scheme         WeightScheme... mBecke (2022)
Basis function cutoff            BFCut       ... 1.0000e-11
Integration weight cutoff        WCut        ... 1.0000e-14
Partially contracted basis set               ... off
Rotationally invariant grid construction     ... off
Angular grids for H and He will be reduced by one unit

Total number of grid points                  ...   104487
Total number of batches                      ...     1645
Average number of points per batch           ...       63
Average number of grid points per atom       ...     4354
Initializing property integral containers    ... done (  0.0 sec)

SHARK setup successfully completed in   1.5 seconds

Maximum memory used throughout the entire STARTUP-calculation: 46.6 MB
Occupation numbers will be reassigned to an Aufbau configuration
             **** ENERGY FILE WAS UPDATED (xtb_opt.en.tmp) ****
Finished Guess after   0.3 sec
Maximum memory used throughout the entire GUESS-calculation: 19.0 MB
--------------------
CPCM SOLVATION MODEL
--------------------
CPCM parameters:
  Epsilon                                         ...      78.3550
  Refrac                                          ...       1.3328
  Rsolv                                           ...       1.3000
  Surface type                                    ... GAUSSIAN VDW
  Discretization scheme                           ... Constant charge density
    Threshold for H atoms                         ...       5.0000 (charges/Ang^2)
    Threshold for non-H atoms                     ...       5.0000 (charges/Ang^2)
  Epsilon function type                           ...         CPCM
Solvent:                                          ... WATER
SMD-CDS solvent descriptors:
  Soln                                            ...       1.3328
  Soln25                                          ...       1.3323
  Sola                                            ...       0.0000
  Solb                                            ...       0.0000
  Solg                                            ...       0.0000
  Solc                                            ...       0.0000
  Solh                                            ...       0.0000
Radii:
  Scheme                                          ... Element-dependent radii
  Radius for C  used is    3.4960 Bohr (=   1.8500 Ang.)
  Radius for H  used is    2.2677 Bohr (=   1.2000 Ang.)
Calculating surface                               ...        done! (  0.0s)
Cavity surface points                             ...         1795
Cavity Volume                                     ...    1098.4369
Cavity Surface-area                               ...     662.8224
Calculating surface distance matrix               ...        done! (  0.0s)
Performing Cholesky decomposition & store         ...        done! (  0.2s)
Overall time for CPCM initialization              ...                 0.2s

----------------------------------------D-I-I-S--------------------------------------------
Iteration    Energy (Eh)           Delta-E    RMSDP     MaxDP     DIISErr   Damp  Time(sec)
-------------------------------------------------------------------------------------------
               ***  Starting incremental Fock matrix formation  ***
                              *** Initializing SOSCF ***
---------------------------------------S-O-S-C-F--------------------------------------
Iteration    Energy (Eh)           Delta-E    RMSDP     MaxDP     MaxGrad    Time(sec)
--------------------------------------------------------------------------------------
    1    -389.3832476894278898     0.00e+00  2.30e-06  4.98e-05  1.92e-05     5.0
               *** Restarting incremental Fock matrix formation ***
    2    -389.3832476932618647    -3.83e-09  3.14e-06  7.02e-05  2.51e-05     4.9
    3    -389.3832476307798061     6.25e-08  2.07e-06  4.91e-05  6.45e-05     3.7
                 **** Energy Check signals convergence ****

               *****************************************************
               *                     SUCCESS                       *
               *           SCF CONVERGED AFTER   3 CYCLES          *
               *****************************************************


SMD CDS free energy correction energy :                 4.10442     Kcal/mol
Total Energy after SMD CDS correction =              -389.376706828 Eh
             **** ENERGY FILE WAS UPDATED (xtb_opt.en.tmp) ****

----------------
TOTAL SCF ENERGY
----------------

Total Energy       :       -389.37670682774967 Eh          -10595.47886 eV

Components:
Nuclear Repulsion  :        509.47615322649597 Eh           13863.55094 eV
Electronic Energy  :       -898.85061310377932 Eh          -24458.96865 eV
One Electron Energy:      -1533.99452799180403 Eh          -41742.11323 eV
Two Electron Energy:        635.14391488802471 Eh           17283.14458 eV
CPCM Dielectric    :         -0.00878775349640 Eh              -0.23913 eV
SMD CDS (Gcds)     :          0.00654080303014 Eh               0.17798 eV

Virial components:
Potential Energy   :       -776.81337078627325 Eh          -21138.16646 eV
Kinetic Energy     :        387.43666395852352 Eh           10542.68761 eV
Virial Ratio       :          2.00500738068877

DFT components:
N(Alpha)           :       36.999967295285 electrons
N(Beta)            :       36.999967295285 electrons
N(Total)           :       73.999934590570 electrons
E(X)               :      -57.012454305676 Eh       
E(C)               :       -2.334909021834 Eh       
E(XC)              :      -59.347363327510 Eh       

CPCM Solvation Model Properties:
Surface-charge          :         -0.05271505978063
Corrected charge        :         -0.00000000000000
Outlying charge corr.   :          0.00019843146693 Eh               0.00540 eV
Free-energy (cav+disp)  :          0.00654080303014 Eh               0.17798 eV

---------------
SCF CONVERGENCE
---------------

  Last Energy change         ...   -6.2482e-08  Tolerance :   1.0000e-07
  Last MAX-Density change    ...    4.9119e-05  Tolerance :   1.0000e-07
  Last RMS-Density change    ...    2.0680e-06  Tolerance :   5.0000e-09
  Last DIIS Error            ...    5.9889e-05  Tolerance :   1.0000e-07
  Last Orbital Gradient      ...    6.4504e-05  Tolerance :   1.0000e-04
  Last Orbital Rotation      ...    1.0539e-04  Tolerance :   1.0000e-04


----------------
ORBITAL ENERGIES
----------------

  NO   OCC          E(Eh)            E(eV) 
   0   2.0000     -10.042049      -273.2580 
   1   2.0000     -10.035674      -273.0846 
   2   2.0000     -10.033809      -273.0338 
   3   2.0000     -10.033681      -273.0303 
   4   2.0000     -10.031780      -272.9786 
   5   2.0000     -10.030745      -272.9505 
   6   2.0000     -10.030490      -272.9435 
   7   2.0000     -10.020600      -272.6744 
   8   2.0000     -10.013433      -272.4794 
   9   2.0000     -10.010517      -272.4000 
  10   2.0000      -0.824281       -22.4298 
  11   2.0000      -0.769085       -20.9279 
  12   2.0000      -0.712092       -19.3770 
  13   2.0000      -0.705761       -19.2047 
  14   2.0000      -0.674868       -18.3641 
  15   2.0000      -0.609203       -16.5773 
  16   2.0000      -0.570992       -15.5375 
  17   2.0000      -0.563898       -15.3444 
  18   2.0000      -0.516193       -14.0463 
  19   2.0000      -0.473410       -12.8821 
  20   2.0000      -0.433421       -11.7940 
  21   2.0000      -0.417037       -11.3481 
  22   2.0000      -0.413458       -11.2508 
  23   2.0000      -0.404174       -10.9981 
  24   2.0000      -0.384182       -10.4541 
  25   2.0000      -0.369160       -10.0454 
  26   2.0000      -0.360178        -9.8009 
  27   2.0000      -0.342285        -9.3141 
  28   2.0000      -0.341228        -9.2853 
  29   2.0000      -0.334958        -9.1147 
  30   2.0000      -0.316960        -8.6249 
  31   2.0000      -0.308403        -8.3921 
  32   2.0000      -0.293446        -7.9851 
  33   2.0000      -0.280199        -7.6246 
  34   2.0000      -0.279129        -7.5955 
  35   2.0000      -0.235928        -6.4199 
  36   2.0000      -0.224354        -6.1050 
  37   0.0000      -0.033886        -0.9221 
  38   0.0000      -0.029416        -0.8004 
  39   0.0000       0.081943         2.2298 
  40   0.0000       0.101741         2.7685 
  41   0.0000       0.109237         2.9725 
  42   0.0000       0.115859         3.1527 
  43   0.0000       0.121483         3.3057 
  44   0.0000       0.127238         3.4623 
  45   0.0000       0.136473         3.7136 
  46   0.0000       0.145637         3.9630 
  47   0.0000       0.152218         4.1421 
*Only the first 10 virtual orbitals were printed.
Total SCF time: 0 days 0 hours 0 min 14 sec 
Finished LeanSCF after  14.4 sec

Maximum memory used throughout the entire LEANSCF-calculation: 41.8 MB


-------------------------------------------------------------------------------
                          DFT DISPERSION CORRECTION                            
                                                                               
                                DFTD4 V3.4.0                                   
-------------------------------------------------------------------------------
-------------------------   ----------------
Dispersion correction           -0.008406950
-------------------------   ----------------

------------------   -----------------
gCP correction             0.008464704
------------------   -----------------

-------------------------   --------------------
FINAL SINGLE POINT ENERGY      -389.376649073686
-------------------------   --------------------

------------------------------------------------------------------------------
                         ORCA SCF GRADIENT CALCULATION
------------------------------------------------------------------------------

Nuc. rep. gradient        (SHARK) ... done (  0.0 sec)
HCore & Overlap gradient  (SHARK) ... done (  0.5 sec)
Split-RIJ-J gradient      (SHARK) ... done (  2.7 sec)
XC gradient                       ... done ( 10.2 sec)
CPCM gradient                     ... done (  1.5 sec)
SMD gradient                      ... done (  0.0 sec)
Dispersion correction             ... done (  0.0 sec)

-------------------
DISPERSION GRADIENT
-------------------

   1   C   :    0.000096285    0.000006569   -0.000082713
   2   C   :    0.000092947    0.000058310   -0.000012327
   3   C   :    0.000069725    0.000010392    0.000050350
   4   H   :    0.000026987    0.000014025    0.000038614
   5   C   :    0.000083374   -0.000079436    0.000063869
   6   C   :   -0.000027830    0.000007871    0.000030744
   7   C   :   -0.000078341   -0.000030433    0.000086986
   8   C   :   -0.000117588   -0.000026833    0.000045588
   9   C   :   -0.000114770   -0.000002895   -0.000019047
  10   C   :   -0.000116735    0.000028964   -0.000074798
  11   C   :   -0.000069670    0.000049276   -0.000068630
  12   H   :    0.000040705   -0.000005864   -0.000028475
  13   H   :    0.000042967   -0.000000289   -0.000046927
  14   H   :    0.000036362    0.000011140   -0.000034991
  15   H   :    0.000039551    0.000024076    0.000001411
  16   H   :    0.000035864    0.000039832   -0.000010132
  17   H   :    0.000033966   -0.000027005    0.000026420
  18   H   :    0.000026862   -0.000039323    0.000036919
  19   H   :    0.000036656   -0.000045734    0.000012550
  20   H   :   -0.000019343   -0.000017717    0.000048951
  21   H   :   -0.000036175   -0.000015118    0.000024621
  22   H   :   -0.000037556   -0.000002384   -0.000008258
  23   H   :   -0.000031867    0.000013952   -0.000037472
  24   H   :   -0.000012377    0.000028622   -0.000043255

Difference to translation invariance:
           :   -0.0000000000   -0.0000000000   -0.0000000000

Difference to rotation invariance:
           :   -0.0000000000    0.0000000000   -0.0000000000

Norm of the Dispersion gradient    ...    0.0004129857
RMS gradient                       ...    0.0000486708
MAX gradient                       ...    0.0001175876
gCP correction                   ... done

------------------
CARTESIAN GRADIENT
------------------

   1   C   :    0.000305760   -0.000355138   -0.000621609
   2   C   :   -0.000118354    0.000027722    0.000490097
   3   C   :   -0.000351954   -0.000189660    0.000027051
   4   H   :   -0.000181219   -0.000047277    0.000012629
   5   C   :    0.000464365    0.000148757   -0.000242848
   6   C   :    0.000713004    0.000239707   -0.000258114
   7   C   :   -0.000507625   -0.000211617    0.000182742
   8   C   :    0.000252232   -0.000019801    0.000057983
   9   C   :   -0.000433428   -0.000140927    0.000395036
  10   C   :    0.000447715    0.000170083   -0.000409689
  11   C   :    0.000040494   -0.000084859    0.000031275
  12   H   :   -0.000371459    0.000185723   -0.000049327
  13   H   :    0.000173853    0.000252969    0.000164965
  14   H   :    0.000117559   -0.000083381    0.000100041
  15   H   :   -0.000038012    0.000036165   -0.000076375
  16   H   :   -0.000152332    0.000001892    0.000011670
  17   H   :   -0.000414260    0.000041700    0.000018244
  18   H   :   -0.000186605   -0.000094845    0.000008140
  19   H   :    0.000113071    0.000124249    0.000205603
  20   H   :    0.000048375   -0.000105003    0.000076439
  21   H   :   -0.000240978   -0.000170852    0.000427383
  22   H   :    0.000106132    0.000114112    0.000189556
  23   H   :    0.000085410    0.000053602   -0.000184972
  24   H   :    0.000128255    0.000106677   -0.000555920

Difference to translation invariance:
           :    0.0000000000   -0.0000000000    0.0000000000

Difference to rotation invariance:
           :    0.0000574977   -0.0003626326    0.0000642060

Norm of the Cartesian gradient     ...    0.0021301996
RMS gradient                       ...    0.0002510464
MAX gradient                       ...    0.0007130038

-------
TIMINGS
-------

Total SCF gradient time     ....       16.228 sec

Densities                   ....       0.001 sec  (  0.0%)
One electron gradient       ....       0.535 sec  (  3.3%)
RI-J Coulomb gradient       ....       2.679 sec  ( 16.5%)
XC gradient                 ....      10.183 sec  ( 62.7%)
CPCM gradient               ....       1.544 sec  (  9.5%)
   A-Matrix (El+Nuc)        ....       0.103 sec  (  0.6%)
   Potential                ....       1.441 sec  (  8.9%)
SMD gradient                ....       0.012 sec  (  0.1%)

Maximum memory used throughout the entire SCFGRAD-calculation: 39.3 MB

------------------------------------------------------------------------------
                              ORCA PROPERTY CALCULATIONS
------------------------------------------------------------------------------

GBWName                                 ... xtb_opt.gbw
Number of atoms                         ...     24
Number of basis functions               ...    260
Max core memory                         ...   1024 MB

Electric properties:
Dipole moment                           ... YES
Quadrupole moment                       ...  NO
Static polarizability (Dipole/Dipole)   ...  NO
Static polarizability (Dipole/Quad.)    ...  NO
Static polarizability (Quad./Quad.)     ...  NO
Static polarizability (Velocity)        ...  NO

Atomic electric properties:
Dipole moment                           ...  NO
Quadrupole moment                       ...  NO
Static polarizability                   ...  NO

Choice of electric origin               ... Center of mass
Position of electric origin             ...    -0.003952    -0.001517    -0.011794

General magnetic properties:
Magnetizability                         ...  NO

EPR properties:
g-Tensor (aka g-matrix)                 ...  NO
Zero-Field splitting spin-orbit         ...  NO
Zero-field splitting spin-spin          ...  NO
Hyperfine couplings                     ...  NO (   0 nuclei)
Quadrupole couplings                    ...  NO (   0 nuclei)
Contact density                         ...  NO (   0 nuclei)

NMR properties:
Chemical shifts                         ...  NO (   0 nuclei)
Spin-rotation constants                 ...  NO (   0 nuclei)
Spin-spin couplings                     ...  NO (   0 nuclei,    0 pairs)

Choice of magnetic origin               ... GIAO
Position of magnetic origin             ...     0.000000     0.000000     0.000000

Properties with geometric perturbations:
SCF Hessian                             ...  NO
IR spectrum                             ...  NO
VCD spectrum                            ...  NO
X-ray spectroscopy properties:
SCF XES/XAS/RIXS spectra                ...  NO


-------------
DIPOLE MOMENT
-------------

Method             : SCF
Type of density    : Electron Density
Multiplicity       :   1
Irrep              :   0
Energy             :  -389.3767068277496719 Eh
Relativity type    : 
Basis              : AO
                                X                 Y                 Z
Electronic contribution:     -9.775498651       0.989511724       1.305363223
Nuclear contribution   :     10.091263706      -0.931298496      -1.179353500
                        -----------------------------------------
Total Dipole Moment    :      0.315765055       0.058213228       0.126009723
                        -----------------------------------------
Magnitude (a.u.)       :      0.344927239
Magnitude (Debye)      :      0.876735367



--------------------
Rotational spectrum 
--------------------
 
Rotational constants in cm-1:             0.085418             0.029932             0.024100 
Rotational constants in MHz :          2560.773435           897.323838           722.511210 

Dipole components along the rotational axes: 
x,y,z [a.u.] :     0.308288    -0.109268     0.109516 
x,y,z [Debye]:     0.783606    -0.277738     0.278368 

 

Dipole moment calculation done in   0.0 sec 

Maximum memory used throughout the entire PROP-calculation: 18.0 MB

--------------------------------
SUGGESTED CITATIONS FOR THIS RUN
--------------------------------

Below you find a list of papers that are relevant to this ORCA run
We neither can nor want to force you to cite these papers, but we appreciate if you do
You receive ORCA, which is the product of decades of hard work by many enthusiastic individuals, for free
The only thing we kindly ask in return is that you cite our papers,
We deeply appreciate it, if you show your appreciation for ORCA by not just citing the generic ORCA reference.

Please note that relegating all ORCA citations to the supporting information does *not* help us.
SI sections are not indexed - citations you put there will not count into any citation statistics
But we need these citations in order to attract the funding resources that allow us to do what we are doing

Therefore, if you are a happy ORCA user, please consider citing a few of the papers listed below in the main body of your paper

In addition to the list printed below, the program has created the file xtb_opt.bibtex that contains the list in bibtex format
You can import this file easily into all common literature databanks and citation aid programs


List of essential papers. We consider these as the minimum necessary citations

  1. Neese,F.
     Software update: the ORCA program system, version 5.0
     WIRES Comput. Molec. Sci., 2022 12(1)e1606
     doi.org/10.1002/wcms.1606
  2. Grimme,S.; Hansen,A.; Ehlert,S.; Mewes,J.
     r2SCAN-3c: A 'Swiss army knife' composite electronic-structure method
     J. Chem. Phys., 2021 154 064103
     doi.org/10.1063/5.0040021

List of papers to cite with high priority. The work reported in these papers was absolutely
necessary for this run to complete.
Our perspective: the developers of density functionals and basis sets usually get cited in chemistry papers
Good! But without the algorithms to do something with them, the functionals or basis sets would not do anything.
Hence, in our opinion, the algorithm design and method developments papers are equally worthy of getting cited

  1. Neese,F.
     An improvement of the resolution of the identity approximation for the formation of the Coulomb matrix
     J. Comp. Chem., 2003 24(14)1740-1747
     doi.org/10.1002/jcc.10318
  2. Garcia-Rates,M.; Neese,F.
     Effect of the Solute Cavity on the Solvation Energy and its Derivatives within the Framework of the Gaussian Charge Scheme
     J. Comput. Chem., 2020 41 922-939
     doi.org/10.1002/jcc.26139
  3. Neese,F.
     The SHARK Integral Generation and Digestion System
     J. Comp. Chem., 2022  1-16
     doi.org/10.1002/jcc.26942
  4. Lehtola,S.; Steigemann,C.; Oliveira,M.; Marques,M.
     Recent developments in Libxc - A comprehensive library of functionals for density functional theory
     Software X, 2018 7 
     doi.org/10.1016/j.softx.2017.11.002
  5. Caldeweyher,E.; Bannwarth,C.; Grimme,S.
     Extension of the D3 dispersion coefficient model
     J. Chem. Phys., 2017 147 034112-XXXX
     doi.org/10.1063/1.4993215
  6. Caldeweyher,E.; Ehlert,S.; Hansen,A.; Neugebauer,H.; Spicher,S.; Bannwarth,C.; Grimme,S.
     A generally applicable atomic-charge dependent London dispersion correction
     J. Chem. Phys., 2019 150 154122-XXXX
     doi.org/10.1063/1.5090222
  7. Caldeweyher,E.; Mewes,J.; Ehlert,S.; Grimme,S.
     Extension and evaluation of the D4 London-dispersion model for periodic systems
     Phys. Chem. Chem. Phys., 2020 22(16)8499-8512
     doi.org/10.1039/D0CP00502A

List of suggested additional citations. These are papers that are important in the 'surrounding' of 
of this run, or papers that preceded the highly important papers. If you like your results we are grateful for a citation.

  1. Neese,F.
     The ORCA program system
     WIRES Comput. Molec. Sci., 2012 2(1)73-78
     doi.org/10.1002/wcms.81
  2. Neese,F.
     Software update: the ORCA program system, version 4.0
     WIRES Comput. Molec. Sci., 2018 8(1)1-6
     doi.org/10.1002/wcms.1327
  3. Neese,F.; Wennmohs,F.; Becker,U.; Riplinger,C.
     The ORCA quantum chemistry program package
     J. Chem. Phys., 2020 152 Art. No. L224108
     doi.org/10.1063/5.0004608

List of optional additional citations

  1. Neese,F.
     Approximate second-order SCF convergence for spin unrestricted wavefunctions
     Chem. Phys. Lett., 2000 325(1-3)93-98
     doi.org/10.1016/s0009-2614(00)00662-x

Timings for individual modules:

Sum of individual times          ...       32.789 sec (=   0.546 min)
Startup calculation              ...        1.545 sec (=   0.026 min)   4.7 %
SCF iterations                   ...       14.796 sec (=   0.247 min)  45.1 %
Property calculations            ...        0.113 sec (=   0.002 min)   0.3 %
SCF Gradient evaluation          ...       16.335 sec (=   0.272 min)  49.8 %
                             ****ORCA TERMINATED NORMALLY****
TOTAL RUN TIME: 0 days 0 hours 0 minutes 33 seconds 687 msec
  ------------------------------------------------------------------------
          * successful ORCA run, taking over control again...

         :::::::::::::::::::::::::::::::::::::::::::::::::::::
         ::                  ORCA SUMMARY                   ::
         :::::::::::::::::::::::::::::::::::::::::::::::::::::
         :: total energy            -389.376649073686 Eh    ::
         :: gradient norm              0.002130199599 Eh/a0 ::
         :: HOMO-LUMO gap              0.000000000000 eV    ::
         :::::::::::::::::::::::::::::::::::::::::::::::::::::

      ----------------------------------------------------------- 
     |                       L-ANC optimizer                     |
      ----------------------------------------------------------- 
          low memory version by Sebastian Ehlert

          ...................................................
          :                      SETUP                      :
          :.................................................:
          :   energy convergence        0.5000000E-05 Eh    :
          :   grad. convergence         0.1000000E-02 Eh/a0 :
          :   optimization log               true           :
          :   writing optlog all                1     steps :
          :   Hessian reset                     8     steps :
          :   maximium step len.        1.0000000     a0    :
          :   LBFGS images                      8           :
          ...................................................
 * calculating model hessian...
Using Lindh-Hessian (1995)
 Shifting diagonal of input Hessian by   1.000000000000000E-002
 Lowest  eigenvalues of input Hessian
    0.000000    0.000000    0.000000    0.000000    0.000000    0.000000
    0.011440    0.012640    0.013151    0.015457    0.017811    0.019073
    0.020399    0.023771    0.024806    0.026835    0.032480    0.036236
 Highest eigenvalues
    1.353399    1.526864    1.565687    1.839873    1.930948    1.958518
 

........................................................................
.............................. CYCLE    1 ..............................
........................................................................
                         * ORCA takes the control...
  ------------------------------------------------------------------------

                                 *****************
                                 * O   R   C   A *
                                 *****************

                                            #,                                       
                                            ###                                      
                                            ####                                     
                                            #####                                    
                                            ######                                   
                                           ########,                                 
                                     ,,################,,,,,                         
                               ,,#################################,,                 
                          ,,##########################################,,             
                       ,#########################################, ''#####,          
                    ,#############################################,,   '####,        
                  ,##################################################,,,,####,       
                ,###########''''           ''''###############################       
              ,#####''   ,,,,##########,,,,          '''####'''          '####       
            ,##' ,,,,###########################,,,                        '##       
           ' ,,###''''                  '''############,,,                           
         ,,##''                                '''############,,,,        ,,,,,,###''
      ,#''                                            '''#######################'''  
     '                                                          ''''####''''         
             ,#######,   #######,   ,#######,      ##                                
            ,#'     '#,  ##    ##  ,#'     '#,    #''#        ,####,   ,####,        
            ##       ##  ##   ,#'  ##            #'  '#       #'       #'  '#        
            ##       ##  #######   ##           ,######,      #####,   #    #        
            '#,     ,#'  ##    ##  '#,     ,#' ,#      #,     #,   #   #,  ,#        
             '#######'   ##     ##  '#######'  #'      '#     '####' # '####'        



                #########################################################
                #                        -***-                          #
                #          Department of theory and spectroscopy        #
                #                                                       #
                #                      Frank Neese                      #
                #                                                       #
                #     Directorship, Architecture, Infrastructure        #
                #                    SHARK, DRIVERS                     #
                #        Core code/Algorithms in most modules           #
                #                                                       #
                #        Max Planck Institute fuer Kohlenforschung      #
                #                Kaiser Wilhelm Platz 1                 #
                #                 D-45470 Muelheim/Ruhr                 #
                #                      Germany                          #
                #                                                       #
                #                  All rights reserved                  #
                #                        -***-                          #
                #########################################################


                         Program Version 6.0.0  -   RELEASE  -


 With contributions from (in alphabetic order):
   Daniel Aravena         : Magnetic Suceptibility
   Michael Atanasov       : Ab Initio Ligand Field Theory (pilot matlab implementation)
   Alexander A. Auer      : GIAO ZORA, VPT2 properties, NMR spectrum
   Ute Becker             : All parallelization in ORCA, NUMFREQ, NUMCALC
   Giovanni Bistoni       : ED, misc. LED, open-shell LED, HFLD
   Martin Brehm           : Molecular dynamics
   Dmytro Bykov           : pre 5.0 version of the SCF Hessian
   Marcos Casanova-Páez   : Triplet and SCS-CIS(D). UHF-(DLPNO)-IP/EA/STEOM-CCSD. UHF-CVS-IP/STEOM-CCSD
   Vijay G. Chilkuri      : MRCI spin determinant printing, contributions to CSF-ICE
   Pauline Colinet        : FMM embedding
   Dipayan Datta          : RHF DLPNO-CCSD density
   Achintya Kumar Dutta   : EOM-CC, STEOM-CC
   Nicolas Foglia         : Exact transition moments, OPA infrastructure, MCD improvements
   Dmitry Ganyushin       : Spin-Orbit,Spin-Spin,Magnetic field MRCI
   Miquel Garcia          : C-PCM and meta-GGA Hessian, CCSD/C-PCM, Gaussian charge scheme
   Tiago L. C. Gouveia    : GS-ROHF, GS-ROCIS
   Yang Guo               : DLPNO-NEVPT2, F12-NEVPT2, CIM, IAO-localization
   Andreas Hansen         : Spin unrestricted coupled pair/coupled cluster methods
   Ingolf Harden          : AUTO-CI MPn and infrastructure 
   Benjamin Helmich-Paris : MC-RPA, TRAH-(SCF,CASSCF), AVAS, COSX integrals, SCF dyn. polar.
   Lee Huntington         : MR-EOM, pCC
   Robert Izsak           : Overlap fitted RIJCOSX, COSX-SCS-MP3, EOM
   Riya Kayal             : Wick's Theorem for AUTO-CI, AUTO-CI UHF-CCSDT
   Emily Kempfer          : AUTO-CI, RHF CISDT and CCSDT
   Christian Kollmar      : KDIIS, OOCD, Brueckner-CCSD(T), CCSD density, CASPT2, CASPT2-K, improved NEVPT2
   Axel Koslowski         : Symmetry handling
   Simone Kossmann        : Meta GGA functionals, TD-DFT gradient, OOMP2, (MP2 Hessian; deprecated post 5.0)
   Lucas Lang             : DCDCAS
   Marvin Lechner         : AUTO-CI (C++ implementation), FIC-MRCC
   Spencer Leger          : CASSCF response
   Dagmar Lenk            : GEPOL surface, SMD, ORCA-2-JSON
   Dimitrios Liakos       : Extrapolation schemes; Compound Job, initial MDCI parallelization
   Dimitrios Manganas     : Further ROCIS development; embedding schemes. LFT, Crystal Embedding
   Dimitrios Pantazis     : SARC Basis sets
   Anastasios Papadopoulos: AUTO-CI, single reference methods and gradients
   Taras Petrenko         : pre 6.0 DFT Hessian and TD-DFT gradient, (ASA, deprecated), ECA, 1-Electron XAS/XES, NRVS
   Peter Pinski           : DLPNO-MP2, DLPNO-MP2 Gradient
   Christoph Reimann      : Effective Core Potentials
   Marius Retegan         : Local ZFS, SOC
   Christoph Riplinger    : Optimizer, TS searches, QM/MM, DLPNO-CCSD(T), (RO)-DLPNO pert. Triples
   Michael Roemelt        : Original ROCIS implementation
   Masaaki Saitow         : Open-shell DLPNO-CCSD energy and density
   Barbara Sandhoefer     : DKH picture change effects
   Kantharuban Sivalingam : CASSCF convergence/infrastructure, NEVPT2 and variants, FIC-MRCI
   Bernardo de Souza      : ESD, SOC TD-DFT
   Georgi Stoychev        : AutoAux, RI-MP2 NMR, DLPNO-MP2 response, X2C
   Van Anh Tran           : RI-MP2 g-tensors
   Willem Van den Heuvel  : Paramagnetic NMR
   Zikuan Wang            : NOTCH, Electric field optimization 
   Frank Wennmohs         : Technical directorship and infrastructure
   Hang Xu                : AUTO-CI-Response properties 


 We gratefully acknowledge several colleagues who have allowed us to
 interface, adapt or use parts of their codes:
   Stefan Grimme, W. Hujo, H. Kruse, P. Pracht,  : VdW corrections, initial TS optimization,
                  C. Bannwarth, S. Ehlert,         DFT functionals, gCP, sTDA/sTD-DF
                  L. Wittmann, M. Mueller
   Ed Valeev, F. Pavosevic, A. Kumar             : LibInt (2-el integral package), F12 methods
   Garnet Chan, S. Sharma, J. Yang, R. Olivares  : DMRG
   Ulf Ekstrom                                   : XCFun DFT Library
   Mihaly Kallay                                 : mrcc  (arbitrary order and MRCC methods)
   Frank Weinhold                                : gennbo (NPA and NBO analysis)
   Simon Mueller                                 : openCOSMO-RS
   Christopher J. Cramer and Donald G. Truhlar   : smd solvation model
   Lars Goerigk                                  : TD-DFT with DH, B97 family of functionals
   V. Asgeirsson, H. Jonsson                     : NEB implementation
   FAccTs GmbH                                   : IRC, NEB, NEB-TS, DLPNO-Multilevel, CI-OPT
                                                   MM, QMMM, 2- and 3-layer-ONIOM, Crystal-QMMM,
                                                   LR-CPCM, SF, NACMEs, symmetry and pop. for TD-DFT,
                                                   nearIR, NL-DFT gradient (VV10), updates on ESD,
                                                   ML-optimized integration grids, MBIS, APM,
                                                   GOAT, DOCKER, SOLVATOR, interface openCOSMO-RS
   S Lehtola, MJT Oliveira, MAL Marques          : LibXC Library
   Liviu Ungur et al                             : ANISO software


 Your calculation uses the libint2 library for the computation of 2-el integrals
 For citations please refer to: http://libint.valeyev.net

 Your ORCA version has been built with support for libXC version: 6.2.2
 For citations please refer to: https://libxc.gitlab.io

 This ORCA versions uses:
   CBLAS   interface :  Fast vector & matrix operations
   LAPACKE interface :  Fast linear algebra routines
   SCALAPACK package :  Parallel linear algebra routines
   Shared memory     :  Shared parallel matrices
   BLAS/LAPACK       :  OpenBLAS 0.3.27  USE64BITINT DYNAMIC_ARCH NO_AFFINITY SkylakeX SINGLE_THREADED
        Core in use  :  SkylakeX
   Copyright (c) 2011-2014, The OpenBLAS Project




***************************************
The coordinates will be read from file: xtb_opt.xyz
***************************************


Your calculation utilizes the geometrical counterpoise correction gCP
Please cite in your paper:
H.Kruse, S. Grimme J.Chem.Phys., 136, (2012), 154101 
   

Your calculation utilizes the atom-pairwise dispersion correction
based on EEQ partial charges (D4)


Your calculation utilizes the SMD solvation module
Please cite in your paper:
A.V. Marenich, C.J. Cramer, D.G. Truhlar J. Phys. Chem. B, 113, (2009), 6378 

================================================================================

----- Orbital basis set information -----
Your calculation utilizes the basis: def2-mTZVPP
   Stefan Grimme, Andreas Hansen, Sebastian Ehlert, and Jan-Michael Mewes 
   J. Chem. Phys. 154, 064103 (2021). DOI: 10.1063/5.0040021

----- AuxJ basis set information -----
Your calculation utilizes the auxiliary basis: def2/J
   F. Weigend, Phys. Chem. Chem. Phys. 8, 1057 (2006).

================================================================================
                                        WARNINGS
                       Please study these warnings very carefully!
================================================================================

WARNING: Old DensityContainer found on disk!
         Will remove this file - 
         If you want to keep old densities, please start your calculation with a different basename. 

Using LibXC functional ID 497 : Re-regularized SCAN exchange by Furness et al
[ 1]  J. W. Furness, A. D. Kaplan, J. Ning, J. P. Perdew, and J. Sun.,  J. Phys. Chem. Lett. 11, 8208-8215 (2020)
[ 2]  J. W. Furness, A. D. Kaplan, J. Ning, J. P. Perdew, and J. Sun.,  J. Phys. Chem. Lett. 11, 9248-9248 (2020)
Using LibXC functional ID 498 : Re-regularized SCAN correlation by Furness et al
[ 1]  J. W. Furness, A. D. Kaplan, J. Ning, J. P. Perdew, and J. Sun.,  J. Phys. Chem. Lett. 11, 8208-8215 (2020)
[ 2]  J. W. Furness, A. D. Kaplan, J. Ning, J. P. Perdew, and J. Sun.,  J. Phys. Chem. Lett. 11, 9248-9248 (2020)
Using LibXC functional ID 497 : Re-regularized SCAN exchange by Furness et al
[ 1]  J. W. Furness, A. D. Kaplan, J. Ning, J. P. Perdew, and J. Sun.,  J. Phys. Chem. Lett. 11, 8208-8215 (2020)
[ 2]  J. W. Furness, A. D. Kaplan, J. Ning, J. P. Perdew, and J. Sun.,  J. Phys. Chem. Lett. 11, 9248-9248 (2020)
Using LibXC functional ID 498 : Re-regularized SCAN correlation by Furness et al
[ 1]  J. W. Furness, A. D. Kaplan, J. Ning, J. P. Perdew, and J. Sun.,  J. Phys. Chem. Lett. 11, 8208-8215 (2020)
[ 2]  J. W. Furness, A. D. Kaplan, J. Ning, J. P. Perdew, and J. Sun.,  J. Phys. Chem. Lett. 11, 9248-9248 (2020)

================================================================================
                                       INPUT FILE
================================================================================
NAME = xtb_opt.inp
|  1> ! r2scan-3c def2/J RI DEFGRID2 scfconv7 ENGRAD tightSCF miniprint
|  2> %cpcm
|  3>     smd true
|  4>     smdsolvent "water"
|  5> end
|  6> * xyzfile 0 1 xtb_opt.xyz
|  7> 
|  8>                          ****END OF INPUT****
================================================================================

                     *******************************
                     * Energy+Gradient Calculation *
                     *******************************

---------------------------------
CARTESIAN COORDINATES (ANGSTROEM)
---------------------------------
  C      2.657662    0.201644   -1.526057
  C      2.238828    0.945228   -0.255783
  C      1.340594    0.157663    0.713908
  H      1.359172    0.702671    1.668398
  C      1.911125   -1.241834    0.991808
  C     -0.127176    0.078605    0.317511
  C     -1.039898   -0.476620    1.227423
  C     -2.397750   -0.553166    0.938894
  C     -2.883216   -0.076207   -0.278140
  C     -1.993669    0.482115   -1.189884
  C     -0.631912    0.561803   -0.893641
  H      3.313781   -0.642102   -1.292626
  H      1.803247   -0.191689   -2.085061
  H      3.210900    0.872077   -2.191791
  H      3.147127    1.222872    0.292503
  H      1.745222    1.888594   -0.518536
  H      2.964248   -1.171278    1.285003
  H      1.370984   -1.738433    1.802442
  H      1.845066   -1.880424    0.105363
  H     -0.680997   -0.841048    2.186200
  H     -3.080019   -0.979879    1.668464
  H     -3.942918   -0.132138   -0.506822
  H     -2.356406    0.865110   -2.139317
  H      0.029366    1.017811   -1.621611

----------------------------
CARTESIAN COORDINATES (A.U.)
----------------------------
  NO LB      ZA    FRAG     MASS         X           Y           Z
   0 C     6.0000    0    12.011    5.022253    0.381051   -2.883830
   1 C     6.0000    0    12.011    4.230771    1.786222   -0.483359
   2 C     6.0000    0    12.011    2.533356    0.297940    1.349090
   3 H     1.0000    0     1.008    2.568462    1.327855    3.152815
   4 C     6.0000    0    12.011    3.611503   -2.346725    1.874246
   5 C     6.0000    0    12.011   -0.240328    0.148541    0.600009
   6 C     6.0000    0    12.011   -1.965123   -0.900682    2.319494
   7 C     6.0000    0    12.011   -4.531090   -1.045332    1.774252
   8 C     6.0000    0    12.011   -5.448489   -0.144010   -0.525609
   9 C     6.0000    0    12.011   -3.767489    0.911065   -2.248555
  10 C     6.0000    0    12.011   -1.194141    1.061654   -1.688737
  11 H     1.0000    0     1.008    6.262139   -1.213397   -2.442710
  12 H     1.0000    0     1.008    3.407643   -0.362240   -3.940194
  13 H     1.0000    0     1.008    6.067721    1.647987   -4.141885
  14 H     1.0000    0     1.008    5.947209    2.310893    0.552751
  15 H     1.0000    0     1.008    3.297992    3.568926   -0.979891
  16 H     1.0000    0     1.008    5.601617   -2.213394    2.428304
  17 H     1.0000    0     1.008    2.590785   -3.285163    3.406122
  18 H     1.0000    0     1.008    3.486669   -3.553486    0.199108
  19 H     1.0000    0     1.008   -1.286897   -1.589351    4.131319
  20 H     1.0000    0     1.008   -5.820392   -1.851703    3.152939
  21 H     1.0000    0     1.008   -7.451034   -0.249704   -0.957755
  22 H     1.0000    0     1.008   -4.452962    1.634821   -4.042724
  23 H     1.0000    0     1.008    0.055493    1.923384   -3.064401

------------------------------------------------------------------------------
                   ___                                                        
                  /   \      - P O W E R E D   B Y -                         
                 /     \                                                     
                 |  |  |   _    _      __       _____    __    __             
                 |  |  |  | |  | |    /  \     |  _  \  |  |  /  |          
                  \  \/   | |  | |   /    \    | | | |  |  | /  /          
                 / \  \   | |__| |  /  /\  \   | |_| |  |  |/  /          
                |  |  |   |  __  | /  /__\  \  |    /   |      \           
                |  |  |   | |  | | |   __   |  |    \   |  |\   \          
                \     /   | |  | | |  |  |  |  | |\  \  |  | \   \       
                 \___/    |_|  |_| |__|  |__|  |_| \__\ |__|  \__/        
                                                                              
                      - O R C A' S   B I G   F R I E N D -                    
                                      &                                       
                       - I N T E G R A L  F E E D E R -                       
                                                                              
 v1 FN, 2020, v2 2021, v3 2022-2024                                           
------------------------------------------------------------------------------


----------------------
SHARK INTEGRAL PACKAGE
----------------------

Number of atoms                             ...     24
Number of basis functions                   ...    260
Number of shells                            ...    132
Maximum angular momentum                    ...      2
Integral batch strategy                     ... SHARK/LIBINT Hybrid
RI-J (if used) integral strategy            ... SPLIT-RIJ (Revised 2003 algorithm where possible)
Printlevel                                  ...      1
Contraction scheme used                     ... SEGMENTED contraction
Prescreening option                         ... SCHWARTZ
   Thresh                                   ... 3.000e-11
   Tcut                                     ... 1.000e-12
   Tpresel                                  ... 1.000e-12 
Coulomb Range Separation                    ... NOT USED
Exchange Range Separation                   ... NOT USED
Multipole approximations                    ... NOT USED
Finite Nucleus Model                        ... NOT USED
CABS basis                                  ... NOT available
Auxiliary Coulomb fitting basis             ... AVAILABLE
   # of basis functions in Aux-J            ...    644
   # of shells in Aux-J                     ...    220
   Maximum angular momentum in Aux-J        ...      4
Auxiliary J/K fitting basis                 ... NOT available
Auxiliary Correlation fitting basis         ... NOT available
Auxiliary 'external' fitting basis          ... NOT available

Checking pre-screening integrals            ... done (  0.0 sec) Dimension = 132
Check shell pair data                       ... done (  0.0 sec)
Shell pair information
Shell pair cut-off parameter TPreSel        ...   1.0e-12
Total number of shell pairs                 ...      8778
Shell pairs after pre-screening             ...      7732
Total number of primitive shell pairs       ...     31637
Primitive shell pairs kept                  ...     19458
          la=0 lb=0:   2676 shell pairs
          la=1 lb=0:   3043 shell pairs
          la=1 lb=1:    893 shell pairs
          la=2 lb=0:    680 shell pairs
          la=2 lb=1:    390 shell pairs
          la=2 lb=2:     50 shell pairs

Calculating one electron integrals          ... done (  0.0 sec)
Calculating RI/J V-Matrix + Cholesky decomp.... done (  0.1 sec)
Calculating Nuclear repulsion               ... done (  0.0 sec) ENN=    509.487307626183 Eh

Diagonalization of the overlap matrix:
Smallest eigenvalue                        ... 3.062e-05
Time for diagonalization                   ...    0.007 sec
Threshold for overlap eigenvalues          ... 1.000e-07
Number of eigenvalues below threshold      ... 0
Time for construction of square roots      ...    0.019 sec
Total time needed                          ...    0.034 sec

-------------------
DFT GRID GENERATION
-------------------

General Integration Accuracy     IntAcc      ... 4.388
Radial Grid Type                 RadialGrid  ... OptM3 with GC (2021)
Angular Grid (max. ang.)         AngularGrid ... 4 (Lebedev-302)
Angular grid pruning method      GridPruning ... 4 (adaptive)
Weight generation scheme         WeightScheme... mBecke (2022)
Basis function cutoff            BFCut       ... 1.0000e-11
Integration weight cutoff        WCut        ... 1.0000e-14
Partially contracted basis set               ... off
Rotationally invariant grid construction     ... off
Angular grids for H and He will be reduced by one unit

Total number of grid points                  ...   104483
Total number of batches                      ...     1644
Average number of points per batch           ...       63
Average number of grid points per atom       ...     4353
Initializing property integral containers    ... done (  0.0 sec)

SHARK setup successfully completed in   1.5 seconds

Maximum memory used throughout the entire STARTUP-calculation: 46.6 MB
Occupation numbers will be reassigned to an Aufbau configuration
             **** ENERGY FILE WAS UPDATED (xtb_opt.en.tmp) ****
Finished Guess after   0.3 sec
Maximum memory used throughout the entire GUESS-calculation: 19.0 MB
--------------------
CPCM SOLVATION MODEL
--------------------
CPCM parameters:
  Epsilon                                         ...      78.3550
  Refrac                                          ...       1.3328
  Rsolv                                           ...       1.3000
  Surface type                                    ... GAUSSIAN VDW
  Discretization scheme                           ... Constant charge density
    Threshold for H atoms                         ...       5.0000 (charges/Ang^2)
    Threshold for non-H atoms                     ...       5.0000 (charges/Ang^2)
  Epsilon function type                           ...         CPCM
Solvent:                                          ... WATER
SMD-CDS solvent descriptors:
  Soln                                            ...       1.3328
  Soln25                                          ...       1.3323
  Sola                                            ...       0.0000
  Solb                                            ...       0.0000
  Solg                                            ...       0.0000
  Solc                                            ...       0.0000
  Solh                                            ...       0.0000
Radii:
  Scheme                                          ... Element-dependent radii
  Radius for C  used is    3.4960 Bohr (=   1.8500 Ang.)
  Radius for H  used is    2.2677 Bohr (=   1.2000 Ang.)
Calculating surface                               ...        done! (  0.0s)
Cavity surface points                             ...         1792
Cavity Volume                                     ...    1098.3337
Cavity Surface-area                               ...     662.7917
Calculating surface distance matrix               ...        done! (  0.0s)
Performing Cholesky decomposition & store         ...        done! (  0.1s)
Overall time for CPCM initialization              ...                 0.2s

----------------------------------------D-I-I-S--------------------------------------------
Iteration    Energy (Eh)           Delta-E    RMSDP     MaxDP     DIISErr   Damp  Time(sec)
-------------------------------------------------------------------------------------------
               ***  Starting incremental Fock matrix formation  ***
                              *** Initializing SOSCF ***
---------------------------------------S-O-S-C-F--------------------------------------
Iteration    Energy (Eh)           Delta-E    RMSDP     MaxDP     MaxGrad    Time(sec)
--------------------------------------------------------------------------------------
    1    -389.3832408260374223     0.00e+00  4.61e-05  9.28e-04  8.83e-05     5.0
               *** Restarting incremental Fock matrix formation ***
    2    -389.3832569531961099    -1.61e-05  2.00e-05  5.23e-04  8.42e-05     4.9
    3    -389.3832582215586626    -1.27e-06  5.48e-06  1.22e-04  3.64e-05     3.9
    4    -389.3832581791339180     4.24e-08  3.14e-06  9.43e-05  6.16e-05     3.8
                 **** Energy Check signals convergence ****

               *****************************************************
               *                     SUCCESS                       *
               *           SCF CONVERGED AFTER   4 CYCLES          *
               *****************************************************


SMD CDS free energy correction energy :                 4.10179     Kcal/mol
Total Energy after SMD CDS correction =              -389.376721566 Eh
             **** ENERGY FILE WAS UPDATED (xtb_opt.en.tmp) ****

----------------
TOTAL SCF ENERGY
----------------

Total Energy       :       -389.37672156576127 Eh          -10595.47926 eV

Components:
Nuclear Repulsion  :        509.48730762618311 Eh           13863.85447 eV
Electronic Energy  :       -898.86178589820872 Eh          -24459.27268 eV
One Electron Energy:      -1534.01523783100583 Eh          -41742.67678 eV
Two Electron Energy:        635.15345193279711 Eh           17283.40410 eV
CPCM Dielectric    :         -0.00877990710827 Eh              -0.23891 eV
SMD CDS (Gcds)     :          0.00653661337264 Eh               0.17787 eV

Virial components:
Potential Energy   :       -776.81579813869757 Eh          -21138.23251 eV
Kinetic Energy     :        387.43907657293630 Eh           10542.75326 eV
Virial Ratio       :          2.00500116046622

DFT components:
N(Alpha)           :       36.999969459987 electrons
N(Beta)            :       36.999969459987 electrons
N(Total)           :       73.999938919974 electrons
E(X)               :      -57.012939537304 Eh       
E(C)               :       -2.334920177212 Eh       
E(XC)              :      -59.347859714516 Eh       

CPCM Solvation Model Properties:
Surface-charge          :         -0.05271773518188
Corrected charge        :         -0.00000000000000
Outlying charge corr.   :          0.00019845331904 Eh               0.00540 eV
Free-energy (cav+disp)  :          0.00653661337264 Eh               0.17787 eV

---------------
SCF CONVERGENCE
---------------

  Last Energy change         ...   -4.2425e-08  Tolerance :   1.0000e-07
  Last MAX-Density change    ...    9.4301e-05  Tolerance :   1.0000e-07
  Last RMS-Density change    ...    3.1359e-06  Tolerance :   5.0000e-09
  Last DIIS Error            ...    1.1299e-03  Tolerance :   1.0000e-07
  Last Orbital Gradient      ...    6.1566e-05  Tolerance :   1.0000e-04
  Last Orbital Rotation      ...    1.2078e-04  Tolerance :   1.0000e-04


----------------
ORBITAL ENERGIES
----------------

  NO   OCC          E(Eh)            E(eV) 
   0   2.0000     -10.042358      -273.2665 
   1   2.0000     -10.035974      -273.0927 
   2   2.0000     -10.033648      -273.0294 
   3   2.0000     -10.033249      -273.0186 
   4   2.0000     -10.031332      -272.9664 
   5   2.0000     -10.030694      -272.9491 
   6   2.0000     -10.030544      -272.9450 
   7   2.0000     -10.020473      -272.6709 
   8   2.0000     -10.013631      -272.4848 
   9   2.0000     -10.010692      -272.4048 
  10   2.0000      -0.824356       -22.4319 
  11   2.0000      -0.769101       -20.9283 
  12   2.0000      -0.712101       -19.3772 
  13   2.0000      -0.705796       -19.2057 
  14   2.0000      -0.674919       -18.3655 
  15   2.0000      -0.609171       -16.5764 
  16   2.0000      -0.571026       -15.5384 
  17   2.0000      -0.563884       -15.3441 
  18   2.0000      -0.516212       -14.0468 
  19   2.0000      -0.473479       -12.8840 
  20   2.0000      -0.433411       -11.7937 
  21   2.0000      -0.417058       -11.3487 
  22   2.0000      -0.413484       -11.2515 
  23   2.0000      -0.404220       -10.9994 
  24   2.0000      -0.384115       -10.4523 
  25   2.0000      -0.369166       -10.0455 
  26   2.0000      -0.360200        -9.8015 
  27   2.0000      -0.342372        -9.3164 
  28   2.0000      -0.341238        -9.2855 
  29   2.0000      -0.334941        -9.1142 
  30   2.0000      -0.316909        -8.6235 
  31   2.0000      -0.308375        -8.3913 
  32   2.0000      -0.293493        -7.9863 
  33   2.0000      -0.280191        -7.6244 
  34   2.0000      -0.279170        -7.5966 
  35   2.0000      -0.235825        -6.4171 
  36   2.0000      -0.224495        -6.1088 
[...]
  15   2.0000      -0.609063       -16.5734 
  16   2.0000      -0.571002       -15.5377 
  17   2.0000      -0.563864       -15.3435 
  18   2.0000      -0.516197       -14.0464 
  19   2.0000      -0.473689       -12.8897 
  20   2.0000      -0.433402       -11.7935 
  21   2.0000      -0.416911       -11.3447 
  22   2.0000      -0.413668       -11.2565 
  23   2.0000      -0.404521       -11.0076 
  24   2.0000      -0.384017       -10.4496 
  25   2.0000      -0.368644       -10.0313 
  26   2.0000      -0.359919        -9.7939 
  27   2.0000      -0.342612        -9.3230 
  28   2.0000      -0.341353        -9.2887 
  29   2.0000      -0.334821        -9.1109 
  30   2.0000      -0.316847        -8.6218 
  31   2.0000      -0.308462        -8.3937 
  32   2.0000      -0.293551        -7.9879 
  33   2.0000      -0.280047        -7.6205 
  34   2.0000      -0.279116        -7.5951 
  35   2.0000      -0.235763        -6.4154 
  36   2.0000      -0.224598        -6.1116 
  37   0.0000      -0.033714        -0.9174 
  38   0.0000      -0.029345        -0.7985 
  39   0.0000       0.082435         2.2432 
  40   0.0000       0.102261         2.7827 
  41   0.0000       0.109500         2.9797 
  42   0.0000       0.116396         3.1673 
  43   0.0000       0.121702         3.3117 
  44   0.0000       0.127084         3.4581 
  45   0.0000       0.136341         3.7100 
  46   0.0000       0.144933         3.9438 
  47   0.0000       0.151978         4.1355 
*Only the first 10 virtual orbitals were printed.
Total SCF time: 0 days 0 hours 0 min 10 sec 
Finished LeanSCF after  11.1 sec

Maximum memory used throughout the entire LEANSCF-calculation: 41.6 MB


-------------------------------------------------------------------------------
                          DFT DISPERSION CORRECTION                            
                                                                               
                                DFTD4 V3.4.0                                   
-------------------------------------------------------------------------------
-------------------------   ----------------
Dispersion correction           -0.008417362
-------------------------   ----------------

------------------   -----------------
gCP correction             0.008453486
------------------   -----------------

-------------------------   --------------------
FINAL SINGLE POINT ENERGY      -389.376715657356
-------------------------   --------------------

------------------------------------------------------------------------------
                         ORCA SCF GRADIENT CALCULATION
------------------------------------------------------------------------------

Nuc. rep. gradient        (SHARK) ... done (  0.0 sec)
HCore & Overlap gradient  (SHARK) ... done (  0.5 sec)
Split-RIJ-J gradient      (SHARK) ... done (  2.6 sec)
XC gradient                       ... done ( 10.0 sec)
CPCM gradient                     ... done (  1.5 sec)
SMD gradient                      ... done (  0.0 sec)
Dispersion correction             ... done (  0.0 sec)

-------------------
DISPERSION GRADIENT
-------------------

   1   C   :    0.000096292    0.000005293   -0.000083161
   2   C   :    0.000093206    0.000057924   -0.000012571
   3   C   :    0.000069936    0.000010928    0.000050548
   4   H   :    0.000027054    0.000014362    0.000038706
   5   C   :    0.000083413   -0.000079148    0.000063971
   6   C   :   -0.000027582    0.000008823    0.000031284
   7   C   :   -0.000078672   -0.000030879    0.000087038
   8   C   :   -0.000118178   -0.000027895    0.000044936
   9   C   :   -0.000115199   -0.000003476   -0.000019607
  10   C   :   -0.000117146    0.000030004   -0.000074576
  11   C   :   -0.000069332    0.000051267   -0.000067443
  12   H   :    0.000040500   -0.000006035   -0.000028641
  13   H   :    0.000043327   -0.000001199   -0.000046789
  14   H   :    0.000036527    0.000010720   -0.000035777
  15   H   :    0.000039676    0.000023730    0.000001217
  16   H   :    0.000035900    0.000039644   -0.000010169
  17   H   :    0.000034031   -0.000026960    0.000026066
  18   H   :    0.000026840   -0.000038851    0.000037398
  19   H   :    0.000036725   -0.000045851    0.000012887
  20   H   :   -0.000019405   -0.000018012    0.000048909
  21   H   :   -0.000036281   -0.000015731    0.000024213
  22   H   :   -0.000037504   -0.000002820   -0.000008618
  23   H   :   -0.000032015    0.000014383   -0.000037401
  24   H   :   -0.000012112    0.000029781   -0.000042422

Difference to translation invariance:
           :    0.0000000000    0.0000000000    0.0000000000

Difference to rotation invariance:
           :   -0.0000000000   -0.0000000000   -0.0000000000

Norm of the Dispersion gradient    ...    0.0004138484
RMS gradient                       ...    0.0000487725
MAX gradient                       ...    0.0001181781
gCP correction                   ... done

------------------
CARTESIAN GRADIENT
------------------

   1   C   :   -0.000016193    0.000193510   -0.000025509
   2   C   :    0.000025156   -0.000098865   -0.000055874
   3   C   :    0.000063756    0.000048067   -0.000070230
   4   H   :   -0.000012116    0.000028872    0.000111817
   5   C   :   -0.000033200   -0.000033738    0.000005247
   6   C   :    0.000046352   -0.000003216    0.000105641
   7   C   :   -0.000083723   -0.000004575    0.000005617
   8   C   :   -0.000127941    0.000048604   -0.000090226
   9   C   :    0.000196008    0.000116425   -0.000201182
  10   C   :   -0.000281666   -0.000147458    0.000222200
  11   C   :   -0.000073909   -0.000021671   -0.000125601
  12   H   :    0.000082453   -0.000053523    0.000058674
  13   H   :    0.000001420    0.000020162    0.000028009
  14   H   :   -0.000033998   -0.000028691    0.000054152
  15   H   :   -0.000018313    0.000000228    0.000025070
  16   H   :   -0.000013118   -0.000026232   -0.000002319
  17   H   :    0.000086718   -0.000024694    0.000004317
  18   H   :   -0.000005963    0.000019693   -0.000008121
  19   H   :   -0.000037079   -0.000034653   -0.000079001
  20   H   :    0.000080313    0.000049185   -0.000004236
  21   H   :    0.000147663    0.000110706   -0.000122245
  22   H   :    0.000041338    0.000000600   -0.000027625
  23   H   :    0.000022819   -0.000087355    0.000104744
  24   H   :   -0.000056778   -0.000071381    0.000086680

Difference to translation invariance:
           :    0.0000000000   -0.0000000000   -0.0000000000

Difference to rotation invariance:
           :   -0.0001052679   -0.0004434411    0.0001200308

Norm of the Cartesian gradient     ...    0.0007243074
RMS gradient                       ...    0.0000853605
MAX gradient                       ...    0.0002816659

-------
TIMINGS
-------

Total SCF gradient time     ....       15.971 sec

Densities                   ....       0.001 sec  (  0.0%)
One electron gradient       ....       0.533 sec  (  3.3%)
RI-J Coulomb gradient       ....       2.628 sec  ( 16.5%)
XC gradient                 ....      10.019 sec  ( 62.7%)
CPCM gradient               ....       1.521 sec  (  9.5%)
   A-Matrix (El+Nuc)        ....       0.101 sec  (  0.6%)
   Potential                ....       1.420 sec  (  8.9%)
SMD gradient                ....       0.015 sec  (  0.1%)

Maximum memory used throughout the entire SCFGRAD-calculation: 39.3 MB

------------------------------------------------------------------------------
                              ORCA PROPERTY CALCULATIONS
------------------------------------------------------------------------------

GBWName                                 ... xtb_opt.gbw
Number of atoms                         ...     24
Number of basis functions               ...    260
Max core memory                         ...   1024 MB

Electric properties:
Dipole moment                           ... YES
Quadrupole moment                       ...  NO
Static polarizability (Dipole/Dipole)   ...  NO
Static polarizability (Dipole/Quad.)    ...  NO
Static polarizability (Quad./Quad.)     ...  NO
Static polarizability (Velocity)        ...  NO

Atomic electric properties:
Dipole moment                           ...  NO
Quadrupole moment                       ...  NO
Static polarizability                   ...  NO

Choice of electric origin               ... Center of mass
Position of electric origin             ...    -0.001566     0.003439    -0.010377

General magnetic properties:
Magnetizability                         ...  NO

EPR properties:
g-Tensor (aka g-matrix)                 ...  NO
Zero-Field splitting spin-orbit         ...  NO
Zero-field splitting spin-spin          ...  NO
Hyperfine couplings                     ...  NO (   0 nuclei)
Quadrupole couplings                    ...  NO (   0 nuclei)
Contact density                         ...  NO (   0 nuclei)

NMR properties:
Chemical shifts                         ...  NO (   0 nuclei)
Spin-rotation constants                 ...  NO (   0 nuclei)
Spin-spin couplings                     ...  NO (   0 nuclei,    0 pairs)

Choice of magnetic origin               ... GIAO
Position of magnetic origin             ...     0.000000     0.000000     0.000000

Properties with geometric perturbations:
SCF Hessian                             ...  NO
IR spectrum                             ...  NO
VCD spectrum                            ...  NO
X-ray spectroscopy properties:
SCF XES/XAS/RIXS spectra                ...  NO


-------------
DIPOLE MOMENT
-------------

Method             : SCF
Type of density    : Electron Density
Multiplicity       :   1
Irrep              :   0
Energy             :  -389.3767517814596886 Eh
Relativity type    : 
Basis              : AO
                                X                 Y                 Z
Electronic contribution:     -9.744239623       1.047212792       1.318854992
Nuclear contribution   :     10.060225560      -0.995761026      -1.197723323
                        -----------------------------------------
Total Dipole Moment    :      0.315985938       0.051451767       0.121131669
                        -----------------------------------------
Magnitude (a.u.)       :      0.342297061
Magnitude (Debye)      :      0.870049986



--------------------
Rotational spectrum 
--------------------
 
Rotational constants in cm-1:             0.085238             0.030049             0.024190 
Rotational constants in MHz :          2555.382220           900.834426           725.210925 

Dipole components along the rotational axes: 
x,y,z [a.u.] :     0.309072    -0.106945     0.101019 
x,y,z [Debye]:     0.785598    -0.271833     0.256769 

 

Dipole moment calculation done in   0.0 sec 

Maximum memory used throughout the entire PROP-calculation: 18.1 MB

--------------------------------
SUGGESTED CITATIONS FOR THIS RUN
--------------------------------

Below you find a list of papers that are relevant to this ORCA run
We neither can nor want to force you to cite these papers, but we appreciate if you do
You receive ORCA, which is the product of decades of hard work by many enthusiastic individuals, for free
The only thing we kindly ask in return is that you cite our papers,
We deeply appreciate it, if you show your appreciation for ORCA by not just citing the generic ORCA reference.

Please note that relegating all ORCA citations to the supporting information does *not* help us.
SI sections are not indexed - citations you put there will not count into any citation statistics
But we need these citations in order to attract the funding resources that allow us to do what we are doing

Therefore, if you are a happy ORCA user, please consider citing a few of the papers listed below in the main body of your paper

In addition to the list printed below, the program has created the file xtb_opt.bibtex that contains the list in bibtex format
You can import this file easily into all common literature databanks and citation aid programs


List of essential papers. We consider these as the minimum necessary citations

  1. Neese,F.
     Software update: the ORCA program system, version 5.0
     WIRES Comput. Molec. Sci., 2022 12(1)e1606
     doi.org/10.1002/wcms.1606
  2. Grimme,S.; Hansen,A.; Ehlert,S.; Mewes,J.
     r2SCAN-3c: A 'Swiss army knife' composite electronic-structure method
     J. Chem. Phys., 2021 154 064103
     doi.org/10.1063/5.0040021

List of papers to cite with high priority. The work reported in these papers was absolutely
necessary for this run to complete.
Our perspective: the developers of density functionals and basis sets usually get cited in chemistry papers
Good! But without the algorithms to do something with them, the functionals or basis sets would not do anything.
Hence, in our opinion, the algorithm design and method developments papers are equally worthy of getting cited

  1. Neese,F.
     An improvement of the resolution of the identity approximation for the formation of the Coulomb matrix
     J. Comp. Chem., 2003 24(14)1740-1747
     doi.org/10.1002/jcc.10318
  2. Garcia-Rates,M.; Neese,F.
     Effect of the Solute Cavity on the Solvation Energy and its Derivatives within the Framework of the Gaussian Charge Scheme
     J. Comput. Chem., 2020 41 922-939
     doi.org/10.1002/jcc.26139
  3. Neese,F.
     The SHARK Integral Generation and Digestion System
     J. Comp. Chem., 2022  1-16
     doi.org/10.1002/jcc.26942
  4. Lehtola,S.; Steigemann,C.; Oliveira,M.; Marques,M.
     Recent developments in Libxc - A comprehensive library of functionals for density functional theory
     Software X, 2018 7 
     doi.org/10.1016/j.softx.2017.11.002
  5. Caldeweyher,E.; Bannwarth,C.; Grimme,S.
     Extension of the D3 dispersion coefficient model
     J. Chem. Phys., 2017 147 034112-XXXX
     doi.org/10.1063/1.4993215
  6. Caldeweyher,E.; Ehlert,S.; Hansen,A.; Neugebauer,H.; Spicher,S.; Bannwarth,C.; Grimme,S.
     A generally applicable atomic-charge dependent London dispersion correction
     J. Chem. Phys., 2019 150 154122-XXXX
     doi.org/10.1063/1.5090222
  7. Caldeweyher,E.; Mewes,J.; Ehlert,S.; Grimme,S.
     Extension and evaluation of the D4 London-dispersion model for periodic systems
     Phys. Chem. Chem. Phys., 2020 22(16)8499-8512
     doi.org/10.1039/D0CP00502A

List of suggested additional citations. These are papers that are important in the 'surrounding' of 
of this run, or papers that preceded the highly important papers. If you like your results we are grateful for a citation.

  1. Neese,F.
     The ORCA program system
     WIRES Comput. Molec. Sci., 2012 2(1)73-78
     doi.org/10.1002/wcms.81
  2. Neese,F.
     Software update: the ORCA program system, version 4.0
     WIRES Comput. Molec. Sci., 2018 8(1)1-6
     doi.org/10.1002/wcms.1327
  3. Neese,F.; Wennmohs,F.; Becker,U.; Riplinger,C.
     The ORCA quantum chemistry program package
     J. Chem. Phys., 2020 152 Art. No. L224108
     doi.org/10.1063/5.0004608

List of optional additional citations

  1. Neese,F.
     Approximate second-order SCF convergence for spin unrestricted wavefunctions
     Chem. Phys. Lett., 2000 325(1-3)93-98
     doi.org/10.1016/s0009-2614(00)00662-x

Timings for individual modules:

Sum of individual times          ...       29.151 sec (=   0.486 min)
Startup calculation              ...        1.534 sec (=   0.026 min)   5.3 %
SCF iterations                   ...       11.414 sec (=   0.190 min)  39.2 %
Property calculations            ...        0.121 sec (=   0.002 min)   0.4 %
SCF Gradient evaluation          ...       16.082 sec (=   0.268 min)  55.2 %
                             ****ORCA TERMINATED NORMALLY****
TOTAL RUN TIME: 0 days 0 hours 0 minutes 30 seconds 36 msec
  ------------------------------------------------------------------------
          * successful ORCA run, taking over control again...

         :::::::::::::::::::::::::::::::::::::::::::::::::::::
         ::                  ORCA SUMMARY                   ::
         :::::::::::::::::::::::::::::::::::::::::::::::::::::
         :: total energy            -389.376715657356 Eh    ::
         :: gradient norm              0.000724307444 Eh/a0 ::
         :: HOMO-LUMO gap              0.000000000000 eV    ::
         :::::::::::::::::::::::::::::::::::::::::::::::::::::

           -------------------------------------------------
          |                Property Printout                |
           -------------------------------------------------
           -------------------------------------------------
          |                Geometry Summary                 |
           -------------------------------------------------

      molecular mass/u    :      134.2185295
   center of mass at/Å    :       -0.0008316       0.0018202      -0.0054908
  moments of inertia/u·Å² :        0.1977644E+03   0.5609968E+03   0.6968526E+03
rotational constants/cm⁻¹ :        0.8524099E-01   0.3004943E-01   0.2419110E-01

 * 23 selected distances

     #   Z          #   Z                                           value/Å
     1   6 C        2   6 C                                       1.5300942
     2   6 C        3   6 C                                       1.5382990 (max)
     3   6 C        4   1 H                                       1.0994510
     3   6 C        5   6 C                                       1.5373068
     6   6 C        7   6 C                                       1.4030679
     7   6 C        8   6 C                                       1.3905179
     8   6 C        9   6 C                                       1.3941260
     9   6 C       10   6 C                                       1.3900786
     6   6 C       11   6 C                                       1.3985142
    10   6 C       11   6 C                                       1.3956567
     1   6 C       12   1 H                                       1.0943286
     1   6 C       13   1 H                                       1.0943625
     1   6 C       14   1 H                                       1.0947698
     2   6 C       15   1 H                                       1.0966673
     2   6 C       16   1 H                                       1.0964674
     5   6 C       17   1 H                                       1.0956721
     5   6 C       18   1 H                                       1.0932108
     5   6 C       19   1 H                                       1.0947351
     7   6 C       20   1 H                                       1.0866045
     8   6 C       21   1 H                                       1.0857563
     9   6 C       22   1 H                                       1.0855034
    10   6 C       23   1 H                                       1.0859016
    11   6 C       24   1 H                                       1.0837818 (min)

 * 2 distinct bonds (by element types)

   Z      Z             #   av. dist./Å        max./Å        min./Å
   1 H    6 C          14     1.0919437     1.0994510     1.0837818
   6 C    6 C           9     1.4419624     1.5382990     1.3900786


optimized geometry written to: xtbopt.coord


           -------------------------------------------------
          | TOTAL ENERGY             -389.376715657356 Eh   |
          | GRADIENT NORM               0.000724307444 Eh/α |
           -------------------------------------------------

------------------------------------------------------------------------
 * finished run on 2025/04/11 at 11:09:53.820     
------------------------------------------------------------------------
 total:
 * wall-time:     0 d,  0 h,  5 min,  2.687 sec
 *  cpu-time:     0 d,  0 h,  0 min,  1.462 sec
 * ratio c/w:     0.005 speedup
 SCF:
 * wall-time:     0 d,  0 h,  0 min, 33.743 sec
 *  cpu-time:     0 d,  0 h,  0 min,  0.423 sec
 * ratio c/w:     0.013 speedup
 ANC optimizer:
 * wall-time:     0 d,  0 h,  4 min, 28.880 sec
 *  cpu-time:     0 d,  0 h,  0 min,  0.968 sec
 * ratio c/w:     0.004 speedup

