 Entering Gaussian System
 *********************************************
 Gaussian 98:
 frequency output generated by the xtb code
 *********************************************
                         Standard orientation:
 --------------------------------------------------------------------
  Center     Atomic     Atomic              Coordinates (Angstroms)
  Number     Number      Type              X           Y           Z
 --------------------------------------------------------------------
    1          6             0        3.273049   -0.964725    0.065941
    2          6             0        2.016723   -0.247400    0.460550
    3          6             0        1.519327   -0.338488    1.683940
    4          6             0        1.385252    0.566466   -0.646524
    5          1             0        2.198775    0.948905   -1.272003
    6          6             0        0.486296   -0.314843   -1.528774
    7          6             0       -0.690174   -0.861753   -0.729506
    8          6             0       -1.411441    0.242099   -0.013863
    9          6             0       -0.818163    1.416547    0.255857
   10          6             0        0.569649    1.761264   -0.140333
   11          6             0       -2.779688    0.008915    0.399278
   12          8             0       -3.420597   -1.007945    0.196676
   13          1             0        3.627440   -1.602856    0.870468
   14          1             0        3.101675   -1.577617   -0.817061
   15          1             0        4.053628   -0.244809   -0.177241
   16          1             0        0.620547    0.168745    1.989057
   17          1             0        1.996290   -0.941145    2.439125
   18          1             0        0.109467    0.289222   -2.355979
   19          1             0        1.059974   -1.141518   -1.948025
   20          1             0       -1.396618   -1.385522   -1.376950
   21          1             0       -0.336093   -1.584145    0.012060
   22          1             0       -1.375448    2.188961    0.770306
   23          1             0        0.502751    2.514353   -0.932337
   24          1             0        1.081170    2.238824    0.698362
   25          1             0       -3.249488    0.852863    0.940639
 --------------------------------------------------------------------
     1 basis functions        1 primitive gaussians
     1 alpha electrons        1 beta electrons
 
 Harmonic frequencies (cm**-1), IR intensities (km*mol⁻¹),
 Raman scattering activities (A**4/amu), Raman depolarization ratios,
 reduced masses (AMU), force constants (mDyne/A) and normal coordinates:
                      1                      2                      3
                        a                      a                      a 
 Frequencies --    46.4115                67.6716               119.6996
 Red. masses --    10.2645                10.6152                 9.7697
 Frc consts  --     0.0000                 0.0000                 0.0000
 IR Inten    --     1.2514                 2.9883                 6.2207
 Raman Activ --     0.0000                 0.0000                 0.0000
 Depolar     --     0.0000                 0.0000                 0.0000
 Atom AN      X      Y      Z        X      Y      Z        X      Y      Z
   1   6    -0.38  -0.39   0.06     0.13   0.22   0.22     0.03   0.12   0.18
   2   6    -0.16   0.01   0.05    -0.10  -0.07   0.01    -0.07   0.05  -0.02
   3   6    -0.11   0.26   0.09    -0.39  -0.34  -0.13    -0.15   0.14  -0.04
   4   6     0.03   0.10   0.00     0.03  -0.03  -0.04    -0.01  -0.05  -0.13
   5   1     0.04   0.02   0.04     0.03  -0.02   0.01     0.00  -0.03  -0.04
   6   6     0.08   0.19  -0.14     0.04   0.02  -0.10    -0.02  -0.05  -0.11
   7   6     0.05   0.11  -0.23    -0.06   0.08  -0.20    -0.06  -0.03  -0.15
   8   6     0.07   0.01  -0.06     0.00   0.08  -0.13     0.12  -0.13   0.19
   9   6     0.03   0.02  -0.00     0.04   0.06  -0.12     0.17  -0.16   0.25
  10   6     0.00   0.10  -0.05     0.06   0.01  -0.08     0.01  -0.03  -0.18
  11   6     0.15  -0.13   0.10     0.08   0.04   0.08     0.17  -0.12   0.35
  12   8     0.27  -0.23   0.18     0.18  -0.08   0.45    -0.16   0.23  -0.32
  13   1    -0.14  -0.09   0.04    -0.02   0.01   0.04    -0.02   0.03   0.06
  14   1    -0.18  -0.15   0.06     0.15   0.14  -0.01     0.06   0.04   0.04
  15   1    -0.06  -0.19  -0.05     0.03   0.12   0.21     0.01   0.05   0.10
  16   1     0.01   0.15   0.03    -0.16  -0.15  -0.08    -0.06   0.04  -0.04
  17   1    -0.07   0.06   0.03    -0.14  -0.11  -0.03    -0.05   0.07   0.01
  18   1     0.03   0.08  -0.02     0.04   0.01  -0.04     0.01  -0.01  -0.04
  19   1     0.03   0.07  -0.06     0.01  -0.01  -0.01    -0.01  -0.02  -0.03
  20   1     0.01   0.06  -0.09    -0.02   0.06  -0.08    -0.05   0.07  -0.07
  21   1     0.01  -0.01  -0.10    -0.05  -0.01  -0.07    -0.04  -0.07  -0.10
  22   1     0.01  -0.02   0.03     0.02   0.02  -0.02     0.08  -0.08   0.15
  23   1    -0.01   0.01  -0.03     0.04   0.00  -0.02    -0.09  -0.07  -0.10
  24   1    -0.00   0.05  -0.03     0.01  -0.01  -0.02     0.05   0.06  -0.13
  25   1     0.04  -0.06   0.05     0.02   0.03   0.00     0.14  -0.11   0.29
                      4                      5                      6
                        a                      a                      a 
 Frequencies --   133.9749               160.6505               209.0275
 Red. masses --     1.6628                10.0028                11.7509
 Frc consts  --     0.0000                 0.0000                 0.0000
 IR Inten    --     0.4469                 2.7168                11.2098
 Raman Activ --     0.0000                 0.0000                 0.0000
 Depolar     --     0.0000                 0.0000                 0.0000
 Atom AN      X      Y      Z        X      Y      Z        X      Y      Z
   1   6     0.09   0.07   0.07     0.14   0.04   0.04     0.06   0.03   0.01
   2   6     0.03   0.01   0.01     0.12  -0.02   0.09    -0.00  -0.08   0.02
   3   6    -0.06  -0.10  -0.03     0.35   0.20   0.20     0.12   0.02   0.07
   4   6     0.01  -0.02   0.00     0.01  -0.10   0.08    -0.09  -0.17  -0.01
   5   1    -0.00   0.00  -0.00     0.00  -0.01   0.03    -0.03  -0.08  -0.03
   6   6     0.01   0.02  -0.03     0.08  -0.02  -0.08    -0.17  -0.15   0.06
   7   6    -0.05   0.03  -0.10    -0.22   0.06  -0.44    -0.34   0.21   0.01
   8   6    -0.02   0.01  -0.04    -0.14  -0.02  -0.23    -0.10   0.31   0.07
   9   6     0.01  -0.02   0.03    -0.04  -0.14   0.03     0.04   0.22   0.11
  10   6     0.01  -0.02   0.04    -0.03  -0.13   0.09     0.07  -0.03  -0.06
  11   6    -0.00   0.01   0.01    -0.11   0.04  -0.04    -0.05  -0.02   0.03
  12   8    -0.02   0.02   0.05    -0.23   0.05   0.25     0.45  -0.28  -0.29
  13   1     0.31   0.43   0.22     0.02  -0.03  -0.02     0.04   0.02   0.00
  14   1    -0.12  -0.41   0.35     0.06   0.06  -0.03     0.04   0.01   0.00
  15   1    -0.14   0.02  -0.52     0.05   0.03   0.07    -0.00   0.03   0.01
  16   1    -0.05  -0.07  -0.03     0.10   0.05   0.07     0.03  -0.01   0.02
  17   1    -0.01  -0.02  -0.00     0.15   0.10   0.06     0.06   0.04   0.03
  18   1     0.02   0.01  -0.01     0.11   0.01  -0.05     0.01  -0.06  -0.02
  19   1     0.00   0.01  -0.01     0.02  -0.02   0.01    -0.08  -0.10   0.08
  20   1    -0.02   0.03  -0.05    -0.05   0.11  -0.22    -0.14   0.13  -0.01
  21   1    -0.03  -0.01  -0.04    -0.16  -0.07  -0.17    -0.18   0.02  -0.00
  22   1     0.01  -0.01   0.02     0.01  -0.06   0.07     0.06   0.08   0.06
  23   1     0.01   0.00   0.02    -0.00  -0.03   0.03     0.03  -0.03  -0.04
  24   1     0.01  -0.02   0.02    -0.02  -0.04   0.03     0.06   0.00  -0.05
  25   1     0.01   0.01   0.01     0.01   0.03  -0.01    -0.11  -0.09   0.05
                      7                      8                      9
                        a                      a                      a 
 Frequencies --   241.9432               275.9374               305.3713
 Red. masses --     8.6222                 7.3970                 9.5335
 Frc consts  --     0.0000                 0.0000                 0.0000
 IR Inten    --     1.0788                 4.6264                 1.0202
 Raman Activ --     0.0000                 0.0000                 0.0000
 Depolar     --     0.0000                 0.0000                 0.0000
 Atom AN      X      Y      Z        X      Y      Z        X      Y      Z
   1   6     0.08  -0.01   0.19     0.15  -0.05   0.20    -0.22   0.30  -0.16
   2   6    -0.02  -0.02  -0.15     0.02  -0.13  -0.03    -0.32  -0.10   0.19
   3   6    -0.10   0.28  -0.15     0.13   0.07   0.04     0.07  -0.06   0.35
   4   6    -0.02  -0.08  -0.19    -0.02  -0.11  -0.03    -0.17  -0.15   0.07
   5   1    -0.02  -0.02  -0.07     0.00  -0.04  -0.01    -0.00  -0.09   0.05
   6   6    -0.23   0.10  -0.17    -0.26   0.25  -0.16    -0.15   0.03  -0.13
   7   6     0.00  -0.05   0.06     0.01  -0.00   0.04     0.03  -0.17  -0.05
   8   6     0.02  -0.04   0.06    -0.04  -0.01  -0.01     0.21  -0.11   0.02
   9   6     0.17  -0.16   0.31    -0.12   0.13  -0.40     0.11  -0.05  -0.05
  10   6     0.13  -0.14   0.19     0.09  -0.07   0.09     0.06  -0.01  -0.04
  11   6    -0.10   0.12  -0.29     0.05  -0.12   0.23     0.17   0.11  -0.11
  12   8     0.08  -0.08   0.10    -0.06   0.00  -0.10     0.18   0.12   0.00
  13   1    -0.03   0.02   0.10     0.02   0.01   0.09     0.07   0.08  -0.11
  14   1     0.09  -0.02   0.06     0.10  -0.04   0.06    -0.07   0.12  -0.07
  15   1     0.03   0.00   0.10     0.04   0.00   0.09    -0.16   0.18  -0.07
  16   1    -0.04   0.09  -0.09     0.02  -0.00   0.01     0.02  -0.06   0.17
  17   1    -0.04   0.14   0.01     0.07   0.07   0.03     0.12   0.01   0.06
  18   1    -0.13   0.08   0.02    -0.15   0.19   0.07    -0.09   0.08   0.03
  19   1    -0.09   0.06  -0.14    -0.12   0.12  -0.20    -0.04   0.06  -0.13
  20   1    -0.01  -0.06   0.07    -0.01  -0.05   0.06    -0.03  -0.04   0.01
  21   1     0.08   0.03   0.02     0.09   0.04   0.00     0.05  -0.06  -0.04
  22   1     0.07  -0.06   0.13    -0.06   0.08  -0.22     0.01  -0.03  -0.03
  23   1    -0.01   0.01   0.10     0.18   0.08   0.12     0.03  -0.01  -0.02
  24   1     0.09  -0.09   0.05    -0.04  -0.16   0.15     0.03  -0.01  -0.02
  25   1    -0.11   0.12  -0.29     0.07  -0.11   0.23     0.04   0.08  -0.12
                     10                     11                     12
                        a                      a                      a 
 Frequencies --   324.2440               406.8927               422.5632
 Red. masses --     7.0716                 7.8265                 8.3921
 Frc consts  --     0.0000                 0.0000                 0.0000
 IR Inten    --     3.0251                 6.8479                 0.8815
 Raman Activ --     0.0000                 0.0000                 0.0000
 Depolar     --     0.0000                 0.0000                 0.0000
 Atom AN      X      Y      Z        X      Y      Z        X      Y      Z
   1   6    -0.12   0.10  -0.15    -0.04   0.09  -0.09    -0.06  -0.07   0.30
   2   6    -0.08   0.08  -0.07    -0.13  -0.17   0.04    -0.15   0.06  -0.19
   3   6    -0.19   0.23  -0.10    -0.04   0.06   0.10     0.31  -0.19  -0.02
   4   6    -0.08   0.01  -0.06     0.03  -0.13  -0.03    -0.26   0.11  -0.15
   5   1    -0.05   0.01  -0.04     0.04  -0.02   0.05    -0.08   0.07  -0.03
   6   6     0.09  -0.30   0.07     0.13  -0.02  -0.18     0.00  -0.16  -0.17
   7   6    -0.06  -0.12  -0.05     0.23   0.20   0.10     0.07  -0.04  -0.03
   8   6     0.06   0.01  -0.13    -0.22   0.25  -0.39     0.06   0.03  -0.14
   9   6     0.01   0.01  -0.08     0.03  -0.00   0.20    -0.13   0.05   0.14
  10   6     0.13  -0.06   0.40     0.03  -0.16   0.00    -0.23   0.11   0.07
  11   6     0.14  -0.00   0.08    -0.04  -0.08   0.07     0.15   0.08  -0.02
  12   8     0.09   0.08  -0.03    -0.12  -0.04   0.02     0.15   0.13   0.00
  13   1    -0.02   0.01  -0.06     0.06   0.03  -0.06    -0.13   0.04   0.18
  14   1    -0.05   0.05  -0.05     0.00   0.04  -0.04     0.09  -0.09   0.12
  15   1    -0.04   0.03  -0.05    -0.07   0.09  -0.03     0.03  -0.06   0.14
  16   1    -0.06   0.07  -0.07    -0.01   0.03   0.01     0.11  -0.12   0.16
  17   1    -0.08   0.08   0.00    -0.00   0.05   0.05     0.23  -0.09  -0.12
  18   1     0.07  -0.18  -0.07     0.05  -0.02  -0.07     0.01  -0.14  -0.12
  19   1     0.08  -0.12   0.15     0.01  -0.04  -0.02     0.06  -0.06   0.06
  20   1    -0.03   0.00  -0.03     0.14  -0.21   0.16     0.01  -0.08   0.06
  21   1    -0.08  -0.05   0.00     0.19   0.29   0.20     0.06   0.06   0.04
  22   1    -0.03  -0.00  -0.05     0.07  -0.01   0.14    -0.07  -0.03   0.07
  23   1     0.17   0.18   0.29    -0.03  -0.08  -0.03    -0.08   0.07   0.06
  24   1     0.02  -0.25   0.27     0.05  -0.02  -0.05    -0.03  -0.02   0.03
  25   1     0.09  -0.04   0.13     0.05  -0.10   0.20     0.07   0.02   0.02
                     13                     14                     15
                        a                      a                      a 
 Frequencies --   470.4092               484.7463               550.8242
 Red. masses --     9.5438                 9.7775                 9.4089
 Frc consts  --     0.0000                 0.0000                 0.0000
 IR Inten    --     1.0071                 0.1165                 0.7062
 Raman Activ --     0.0000                 0.0000                 0.0000
 Depolar     --     0.0000                 0.0000                 0.0000
 Atom AN      X      Y      Z        X      Y      Z        X      Y      Z
   1   6     0.04   0.00  -0.04     0.25  -0.13  -0.11    -0.00   0.01  -0.02
   2   6    -0.20  -0.35  -0.12     0.10  -0.29  -0.02     0.30   0.40   0.24
   3   6     0.01   0.12  -0.01    -0.11   0.15  -0.08    -0.10  -0.09   0.06
   4   6    -0.02  -0.07  -0.02    -0.15  -0.07   0.26    -0.02  -0.20  -0.07
   5   1     0.03   0.03   0.08    -0.06   0.04   0.08    -0.02   0.01  -0.00
   6   6     0.26  -0.05  -0.19    -0.05   0.03   0.07     0.03  -0.07  -0.29
   7   6     0.19   0.24  -0.02     0.00  -0.14  -0.03     0.09   0.13  -0.05
   8   6     0.13  -0.05   0.46     0.04  -0.03  -0.17     0.00  -0.01   0.15
   9   6    -0.19   0.22  -0.01    -0.24   0.01   0.07    -0.20   0.06   0.05
  10   6    -0.11  -0.09   0.01    -0.32  -0.01   0.08    -0.19  -0.33  -0.00
  11   6    -0.06  -0.04  -0.02     0.20   0.17   0.01     0.02   0.11   0.05
  12   8    -0.12  -0.03   0.03     0.30   0.20  -0.03     0.15   0.08  -0.02
  13   1     0.07   0.06   0.01     0.11  -0.02  -0.04    -0.05  -0.11  -0.07
  14   1     0.13  -0.02  -0.02     0.11  -0.03  -0.04    -0.23   0.06  -0.01
  15   1    -0.08   0.11   0.02     0.03   0.02  -0.02     0.12  -0.15  -0.08
  16   1     0.01   0.07  -0.03    -0.04   0.12  -0.19    -0.13  -0.16  -0.04
  17   1    -0.00   0.07   0.03    -0.15   0.10   0.10     0.03   0.07   0.06
  18   1     0.15  -0.09  -0.14    -0.03   0.05   0.06     0.04   0.04  -0.05
  19   1     0.07  -0.08   0.07     0.01   0.05  -0.04    -0.05  -0.04  -0.12
  20   1    -0.01   0.16  -0.01     0.01  -0.06  -0.00    -0.01   0.01   0.05
  21   1     0.06  -0.03  -0.10    -0.00  -0.02   0.02     0.10   0.05  -0.03
  22   1    -0.06   0.11  -0.08    -0.13  -0.04   0.01    -0.04   0.05  -0.02
  23   1     0.03  -0.01   0.02    -0.13  -0.12  -0.09    -0.02  -0.05   0.04
  24   1    -0.02  -0.06   0.02    -0.10   0.14  -0.06    -0.03  -0.14   0.02
  25   1    -0.07   0.05  -0.15     0.09   0.03   0.05    -0.02   0.04  -0.03
                     16                     17                     18
                        a                      a                      a 
 Frequencies --   618.1337               706.8780               717.6821
 Red. masses --    11.1076                 6.5538                 3.6875
 Frc consts  --     0.0000                 0.0000                 0.0000
 IR Inten    --    15.9156                18.2290                 4.5328
 Raman Activ --     0.0000                 0.0000                 0.0000
 Depolar     --     0.0000                 0.0000                 0.0000
 Atom AN      X      Y      Z        X      Y      Z        X      Y      Z
   1   6    -0.13   0.07   0.03     0.14  -0.09  -0.04    -0.14   0.07   0.03
   2   6    -0.14  -0.04  -0.10     0.01  -0.12   0.07    -0.14  -0.04  -0.18
   3   6     0.05   0.03  -0.03    -0.03  -0.02   0.09     0.05   0.02  -0.16
   4   6     0.24   0.09  -0.09    -0.13   0.10   0.04     0.02  -0.04   0.05
   5   1     0.08   0.05   0.00     0.01  -0.02   0.04     0.03   0.00   0.05
   6   6     0.14   0.12   0.10    -0.01   0.03  -0.15     0.10   0.10   0.24
   7   6     0.01   0.02   0.04    -0.03  -0.04  -0.10     0.08   0.02   0.09
   8   6    -0.27  -0.14   0.06    -0.11  -0.12   0.10    -0.01   0.04  -0.07
   9   6    -0.04  -0.32  -0.13     0.12  -0.16  -0.15     0.02  -0.01   0.04
  10   6    -0.08  -0.30  -0.04     0.07   0.37  -0.06     0.02  -0.15   0.04
  11   6    -0.22   0.33   0.23    -0.23   0.13   0.20     0.03  -0.01  -0.06
  12   8     0.37   0.10  -0.10     0.10  -0.02  -0.06    -0.01   0.00   0.02
  13   1    -0.02   0.06   0.03     0.04  -0.06  -0.04    -0.13  -0.00   0.03
  14   1     0.05  -0.00   0.01    -0.02  -0.01  -0.01    -0.08   0.00   0.03
  15   1    -0.08   0.08   0.03     0.06  -0.06  -0.04     0.03  -0.06  -0.00
  16   1     0.09   0.08   0.10    -0.18  -0.21  -0.13    -0.26  -0.43  -0.14
  17   1    -0.01  -0.12  -0.10     0.12   0.28   0.17     0.38   0.44   0.07
  18   1     0.04   0.03   0.03     0.10  -0.11  -0.17    -0.03   0.04   0.10
  19   1     0.01   0.01   0.03     0.07  -0.04   0.15     0.03   0.06   0.01
  20   1     0.08  -0.01  -0.06     0.03  -0.18   0.07     0.05   0.12  -0.10
  21   1    -0.01  -0.00   0.00     0.15   0.11   0.02    -0.11  -0.10  -0.02
  22   1     0.03  -0.05  -0.05     0.07  -0.14   0.14    -0.02   0.06  -0.12
  23   1    -0.05  -0.04   0.03     0.07   0.16   0.04    -0.05  -0.12  -0.06
  24   1    -0.09  -0.09   0.03    -0.04   0.03   0.07     0.02   0.05  -0.05
  25   1    -0.11   0.05   0.07    -0.14   0.05  -0.04     0.05  -0.03   0.06
                     19                     20                     21
                        a                      a                      a 
 Frequencies --   779.1309               806.2340               824.5340
 Red. masses --     4.5778                 7.7464                 7.9414
 Frc consts  --     0.0000                 0.0000                 0.0000
 IR Inten    --    13.9001                30.7666                 2.5374
 Raman Activ --     0.0000                 0.0000                 0.0000
 Depolar     --     0.0000                 0.0000                 0.0000
 Atom AN      X      Y      Z        X      Y      Z        X      Y      Z
   1   6     0.01  -0.02  -0.00     0.07  -0.05  -0.01    -0.18   0.13   0.02
   2   6    -0.03  -0.06  -0.00    -0.03  -0.07   0.06     0.05   0.13  -0.14
   3   6    -0.00   0.01   0.03    -0.02   0.00   0.11     0.07  -0.00  -0.25
   4   6     0.09  -0.02  -0.09     0.13   0.05  -0.19    -0.19  -0.23   0.36
   5   1     0.03  -0.03  -0.03     0.05   0.03  -0.02    -0.06  -0.06   0.09
   6   6     0.01   0.04   0.23     0.21  -0.21  -0.13     0.14  -0.08  -0.01
   7   6    -0.01   0.13   0.07     0.16  -0.36   0.03     0.08  -0.18  -0.16
   8   6     0.04  -0.01  -0.04    -0.06   0.14  -0.06     0.01   0.05   0.07
   9   6    -0.16   0.06  -0.12    -0.11   0.20   0.21    -0.03   0.20  -0.13
  10   6    -0.18  -0.05  -0.25    -0.03   0.20  -0.07     0.14  -0.02   0.09
  11   6     0.23  -0.13   0.01    -0.26   0.12   0.10    -0.16   0.03   0.19
  12   8    -0.03   0.06  -0.02     0.02  -0.05  -0.01    -0.02  -0.03  -0.05
  13   1     0.02  -0.01  -0.01     0.07  -0.03  -0.04    -0.16   0.08   0.09
  14   1     0.01   0.00  -0.01    -0.00   0.01  -0.02    -0.00  -0.02   0.03
  15   1    -0.01   0.01  -0.00    -0.01   0.01  -0.01     0.01  -0.01   0.04
  16   1    -0.04  -0.05  -0.01    -0.04  -0.05   0.01     0.09   0.10  -0.05
  17   1     0.03   0.04   0.02     0.00   0.02   0.04    -0.00  -0.04  -0.09
  18   1    -0.05   0.06   0.12    -0.19   0.07   0.17     0.05   0.12   0.09
  19   1    -0.07   0.01  -0.03     0.05   0.09  -0.34     0.09   0.08  -0.12
  20   1     0.05   0.04  -0.04     0.03   0.08  -0.14     0.05  -0.12  -0.01
  21   1    -0.11   0.04   0.08    -0.16  -0.23  -0.03     0.07   0.02   0.01
  22   1     0.17  -0.23   0.57    -0.03   0.06   0.06     0.12  -0.06   0.29
  23   1     0.16   0.17   0.09     0.01   0.15   0.07     0.17  -0.15  -0.12
  24   1    -0.13  -0.25   0.12     0.05  -0.07   0.02     0.03   0.09  -0.03
  25   1     0.02   0.09  -0.22    -0.10  -0.04   0.10    -0.14   0.04  -0.09
                     22                     23                     24
                        a                      a                      a 
 Frequencies --   897.9492               903.5324               919.9258
 Red. masses --     6.2618                 5.6889                 6.1196
 Frc consts  --     0.0000                 0.0000                 0.0000
 IR Inten    --     8.8828                10.9399                 1.6144
 Raman Activ --     0.0000                 0.0000                 0.0000
 Depolar     --     0.0000                 0.0000                 0.0000
 Atom AN      X      Y      Z        X      Y      Z        X      Y      Z
   1   6     0.06  -0.05  -0.06    -0.05  -0.02   0.03    -0.04   0.01   0.02
   2   6     0.05   0.11   0.03     0.03   0.03   0.03     0.01  -0.01  -0.01
   3   6    -0.18  -0.26  -0.08    -0.22  -0.25  -0.09    -0.00  -0.01  -0.02
   4   6    -0.36  -0.10   0.05     0.35   0.08  -0.11     0.12   0.01  -0.00
   5   1    -0.10  -0.06  -0.00     0.10   0.04  -0.01     0.04  -0.00   0.00
   6   6     0.05   0.06   0.13    -0.03  -0.06  -0.10    -0.02  -0.01  -0.03
   7   6     0.19   0.12   0.03    -0.16  -0.08  -0.01    -0.05  -0.02   0.00
   8   6    -0.01   0.00  -0.01    -0.00  -0.01  -0.01     0.08  -0.10   0.22
   9   6     0.15  -0.13   0.08    -0.16   0.09  -0.06    -0.11   0.08  -0.14
  10   6    -0.06   0.01  -0.24     0.06   0.02   0.23     0.01   0.01   0.05
  11   6    -0.10   0.07  -0.08     0.09  -0.07   0.10    -0.16   0.20  -0.49
  12   8     0.02  -0.02   0.03    -0.01   0.03  -0.03     0.05  -0.05   0.13
  13   1    -0.02   0.03   0.04     0.07  -0.00  -0.03     0.00   0.00  -0.00
  14   1     0.10  -0.05  -0.00     0.01   0.02  -0.02    -0.01   0.01  -0.00
  15   1     0.02   0.00   0.03    -0.08   0.07   0.01    -0.02   0.01   0.00
  16   1     0.25   0.37   0.11     0.22   0.29   0.18     0.01   0.01  -0.00
  17   1     0.15   0.28   0.13     0.32   0.39   0.10     0.03   0.03   0.00
  18   1     0.00   0.04   0.05    -0.02  -0.03  -0.04     0.02  -0.01  -0.02
  19   1     0.05   0.05   0.02    -0.05  -0.04  -0.03    -0.02  -0.02   0.01
  20   1     0.08   0.11  -0.09    -0.06  -0.07   0.05    -0.04  -0.03   0.05
  21   1    -0.02  -0.05  -0.04    -0.02   0.03   0.04     0.04   0.01  -0.01
  22   1     0.02   0.03  -0.10    -0.05  -0.04   0.07     0.08  -0.13   0.30
  23   1     0.07   0.16   0.09    -0.07  -0.12  -0.05     0.02  -0.04  -0.03
  24   1     0.04  -0.21   0.03    -0.03   0.19  -0.02    -0.03   0.05   0.01
  25   1     0.03  -0.05   0.13    -0.03   0.06  -0.14     0.22  -0.24   0.55
                     25                     26                     27
                        a                      a                      a 
 Frequencies --   945.8526               956.6655               971.2387
 Red. masses --     6.7028                 7.3563                 6.1484
 Frc consts  --     0.0000                 0.0000                 0.0000
 IR Inten    --     1.6110                 4.3720                 6.2427
 Raman Activ --     0.0000                 0.0000                 0.0000
 Depolar     --     0.0000                 0.0000                 0.0000
 Atom AN      X      Y      Z        X      Y      Z        X      Y      Z
   1   6     0.30  -0.17  -0.06     0.06  -0.07  -0.01    -0.15   0.09   0.01
   2   6    -0.13   0.10   0.04    -0.05   0.02  -0.01     0.09  -0.06   0.06
   3   6    -0.23   0.13   0.11    -0.10   0.08  -0.02     0.20  -0.21   0.12
   4   6    -0.24   0.09  -0.10     0.11  -0.01  -0.01    -0.05   0.22  -0.16
   5   1    -0.10   0.07  -0.04     0.01  -0.08  -0.07    -0.01   0.11  -0.01
   6   6    -0.06   0.13   0.02     0.01   0.21   0.24    -0.10   0.24  -0.02
   7   6     0.17  -0.08   0.05    -0.18  -0.30  -0.30     0.02  -0.25   0.02
   8   6     0.00   0.07  -0.02     0.05   0.02   0.08     0.00   0.09  -0.02
   9   6     0.04   0.11  -0.20    -0.14   0.22   0.28    -0.02   0.17  -0.02
  10   6     0.08  -0.23   0.16     0.02  -0.10  -0.23     0.03  -0.28  -0.03
  11   6    -0.04   0.01   0.06     0.00   0.01  -0.03     0.01  -0.01   0.02
  12   8    -0.02  -0.02  -0.01    -0.00  -0.00   0.01    -0.02  -0.01  -0.01
  13   1     0.14  -0.09  -0.07     0.07  -0.02  -0.03    -0.11   0.05   0.06
  14   1     0.04  -0.02  -0.03     0.03  -0.00  -0.02     0.00  -0.01   0.02
  15   1     0.08  -0.05  -0.04    -0.02   0.02  -0.01    -0.01   0.00   0.03
  16   1    -0.03  -0.09   0.34    -0.02  -0.07   0.15     0.03   0.14  -0.34
  17   1     0.13  -0.09  -0.18     0.12  -0.00  -0.11    -0.23   0.08   0.32
  18   1    -0.09  -0.13  -0.08     0.18   0.06  -0.01    -0.06  -0.18  -0.16
  19   1     0.13   0.08   0.13     0.09   0.06   0.17     0.16   0.08   0.21
  20   1     0.07   0.09  -0.11     0.02  -0.33   0.05     0.01  -0.01  -0.05
  21   1    -0.04  -0.12  -0.05     0.21   0.12  -0.00    -0.00  -0.12  -0.04
  22   1     0.16  -0.02   0.18    -0.06   0.16  -0.09     0.14   0.08   0.10
  23   1    -0.05  -0.20  -0.09     0.10   0.07   0.03    -0.02  -0.07  -0.00
  24   1     0.07   0.09  -0.08     0.09  -0.19  -0.01     0.07  -0.07  -0.05
  25   1    -0.04   0.00  -0.01    -0.01  -0.02   0.02    -0.02  -0.00  -0.01
                     28                     29                     30
                        a                      a                      a 
 Frequencies --   983.9381              1024.8349              1036.7806
 Red. masses --     7.2780                 5.1007                 4.5253
 Frc consts  --     0.0000                 0.0000                 0.0000
 IR Inten    --    23.3417                 8.8040                 8.5264
 Raman Activ --     0.0000                 0.0000                 0.0000
 Depolar     --     0.0000                 0.0000                 0.0000
 Atom AN      X      Y      Z        X      Y      Z        X      Y      Z
   1   6     0.09  -0.03  -0.13     0.11   0.06  -0.42     0.20   0.32   0.07
   2   6    -0.08   0.04  -0.02    -0.15   0.11   0.03    -0.16  -0.21  -0.09
   3   6    -0.07   0.03   0.02    -0.07  -0.02   0.24    -0.04   0.01  -0.06
   4   6     0.01   0.26   0.25     0.11  -0.05  -0.10     0.08  -0.05   0.07
   5   1     0.06   0.24   0.25     0.06  -0.12  -0.04     0.14  -0.04   0.15
   6   6     0.17  -0.08  -0.22    -0.01  -0.04   0.06    -0.04   0.11  -0.09
   7   6    -0.30  -0.11   0.08     0.01   0.05  -0.05    -0.01  -0.08   0.13
   8   6     0.02   0.13   0.07    -0.01  -0.07   0.01    -0.03  -0.01  -0.07
   9   6     0.28  -0.04  -0.05    -0.15   0.02   0.01    -0.07  -0.01   0.09
  10   6    -0.17  -0.21  -0.12     0.11   0.04   0.08     0.02   0.04  -0.08
  11   6     0.06  -0.04  -0.07     0.01   0.00   0.00     0.01  -0.00  -0.01
  12   8    -0.05  -0.02   0.01     0.02   0.02  -0.00     0.01   0.01   0.00
  13   1    -0.09   0.05   0.06    -0.39   0.20   0.23    -0.18  -0.11  -0.03
  14   1     0.13  -0.09   0.01     0.33  -0.27   0.04    -0.41   0.07   0.11
  15   1     0.08  -0.05   0.03     0.27  -0.18   0.09     0.36  -0.33  -0.17
  16   1    -0.02  -0.03   0.07    -0.05  -0.02   0.04     0.13   0.18   0.11
  17   1     0.05   0.04  -0.01    -0.08   0.01   0.12     0.01  -0.04  -0.07
  18   1    -0.02   0.05   0.03     0.01   0.04   0.05     0.02  -0.08  -0.11
  19   1     0.11   0.08  -0.16    -0.07  -0.04  -0.02    -0.00  -0.03   0.10
  20   1    -0.21  -0.06   0.18     0.05  -0.03  -0.02    -0.03   0.06  -0.01
  21   1    -0.09   0.05   0.11     0.02   0.04   0.00    -0.04  -0.09  -0.02
  22   1     0.20   0.10  -0.05    -0.10  -0.04   0.01    -0.06  -0.02   0.01
  23   1     0.01   0.03   0.04    -0.03  -0.03  -0.01     0.13   0.02  -0.02
  24   1    -0.15  -0.10   0.06     0.09   0.05  -0.04    -0.03  -0.04   0.03
  25   1     0.02  -0.02   0.00     0.01   0.01  -0.01     0.01   0.00   0.00
                     31                     32                     33
                        a                      a                      a 
 Frequencies --  1055.4682              1100.4906              1132.4355
 Red. masses --     6.0912                 6.3358                 4.0320
 Frc consts  --     0.0000                 0.0000                 0.0000
 IR Inten    --     6.8304                22.5320                11.5913
 Raman Activ --     0.0000                 0.0000                 0.0000
 Depolar     --     0.0000                 0.0000                 0.0000
 Atom AN      X      Y      Z        X      Y      Z        X      Y      Z
   1   6     0.12   0.11   0.10     0.00   0.06  -0.02     0.01  -0.04   0.02
   2   6    -0.12  -0.15  -0.04    -0.01  -0.08  -0.02    -0.01   0.04  -0.01
   3   6     0.04  -0.07   0.08    -0.02   0.00   0.00     0.01   0.00  -0.01
   4   6    -0.17   0.10  -0.23     0.18   0.06   0.08    -0.02   0.23   0.13
   5   1    -0.12   0.07  -0.14    -0.02  -0.03  -0.08     0.06   0.25   0.23
   6   6     0.20  -0.14   0.22    -0.30  -0.19   0.13    -0.17  -0.15  -0.02
   7   6    -0.11   0.12  -0.24     0.26  -0.03  -0.25     0.06   0.14  -0.18
   8   6     0.03  -0.03   0.18     0.06   0.15   0.02     0.00  -0.13   0.09
   9   6     0.08   0.02  -0.16     0.23   0.08   0.00    -0.10  -0.01   0.13
  10   6    -0.02  -0.05   0.14    -0.24  -0.04   0.05     0.16  -0.07  -0.11
  11   6     0.02  -0.01  -0.02    -0.05   0.02   0.02    -0.01   0.01  -0.03
  12   8    -0.01  -0.01   0.00    -0.03  -0.04  -0.00     0.03   0.02   0.01
  13   1    -0.01  -0.10  -0.06    -0.07   0.01   0.02     0.04  -0.01  -0.01
  14   1    -0.23   0.07   0.04    -0.03  -0.01   0.02     0.01   0.01  -0.01
  15   1     0.13  -0.13  -0.10     0.05  -0.04  -0.01    -0.02   0.02  -0.00
  16   1     0.05   0.10  -0.05     0.01   0.01   0.03    -0.01  -0.01  -0.02
  17   1    -0.07   0.03   0.11     0.02   0.03   0.00     0.00   0.01   0.00
  18   1    -0.05   0.12   0.21    -0.06  -0.05   0.03    -0.34  -0.20   0.01
  19   1     0.05   0.09  -0.18    -0.22  -0.15   0.02    -0.12  -0.07  -0.03
  20   1     0.09  -0.19  -0.00     0.15  -0.05  -0.12     0.30  -0.12  -0.22
  21   1    -0.04   0.25   0.16     0.21  -0.02  -0.15    -0.17   0.16   0.17
  22   1     0.06   0.03  -0.04     0.28   0.20  -0.03    -0.12   0.00  -0.07
  23   1    -0.26  -0.00   0.06    -0.08   0.03   0.05     0.36  -0.11  -0.14
  24   1     0.16   0.03  -0.09    -0.38   0.11   0.14     0.09  -0.07  -0.02
  25   1     0.01   0.00  -0.00    -0.05  -0.02   0.02     0.03   0.01   0.01
                     34                     35                     36
                        a                      a                      a 
 Frequencies --  1142.5412              1165.8737              1195.6625
 Red. masses --     1.9660                 4.8729                 7.0396
 Frc consts  --     0.0000                 0.0000                 0.0000
 IR Inten    --     1.6532                59.5726                18.0460
 Raman Activ --     0.0000                 0.0000                 0.0000
 Depolar     --     0.0000                 0.0000                 0.0000
 Atom AN      X      Y      Z        X      Y      Z        X      Y      Z
   1   6    -0.01   0.01  -0.01    -0.06   0.01  -0.03    -0.11   0.09  -0.05
   2   6     0.01   0.01   0.01     0.12   0.01   0.05     0.23  -0.16   0.08
   3   6    -0.00  -0.01   0.04    -0.02   0.05  -0.07    -0.07   0.07  -0.03
   4   6    -0.00  -0.09  -0.13    -0.01  -0.28  -0.00     0.11  -0.14  -0.01
   5   1    -0.07  -0.27  -0.28     0.15  -0.11   0.17     0.00   0.05   0.02
   6   6     0.08   0.05  -0.05     0.05   0.18  -0.15    -0.07   0.10   0.03
   7   6    -0.02   0.04  -0.04    -0.08  -0.13   0.07     0.02   0.05  -0.10
   8   6    -0.07   0.01   0.10    -0.22   0.02   0.19     0.46   0.07  -0.08
   9   6     0.00  -0.08   0.13     0.04   0.04  -0.06     0.17   0.05  -0.07
  10   6    -0.00   0.02   0.03    -0.06   0.14   0.05    -0.17  -0.05  -0.01
  11   6     0.05  -0.01  -0.05     0.16  -0.06  -0.09    -0.20   0.09   0.11
  12   8     0.01   0.02   0.01     0.02   0.04   0.01    -0.07  -0.08  -0.01
  13   1    -0.01  -0.00  -0.00    -0.03   0.04   0.03    -0.12   0.06   0.06
  14   1     0.00  -0.01   0.01     0.03  -0.01  -0.00     0.01  -0.02   0.01
  15   1     0.01  -0.00   0.00    -0.02   0.02   0.03    -0.00   0.01   0.03
  16   1    -0.00   0.00   0.01     0.00  -0.02   0.03    -0.01  -0.04   0.10
  17   1    -0.03  -0.01   0.03     0.03  -0.05  -0.09     0.06  -0.03  -0.09
  18   1    -0.16  -0.10  -0.02    -0.01  -0.08  -0.12    -0.19  -0.16  -0.05
  19   1     0.39   0.26  -0.01    -0.02  -0.03   0.06     0.13   0.09   0.08
  20   1    -0.01  -0.02   0.02     0.36  -0.15  -0.30    -0.03  -0.01   0.04
  21   1    -0.18   0.10   0.16    -0.26   0.03   0.20    -0.18   0.12   0.17
  22   1     0.01   0.07  -0.08     0.18   0.14  -0.02    -0.29  -0.24  -0.01
  23   1     0.30  -0.12  -0.13    -0.30   0.14   0.13    -0.17   0.06   0.08
  24   1    -0.47   0.19   0.19     0.03   0.02  -0.01     0.02  -0.06  -0.01
  25   1     0.04   0.00   0.00     0.08   0.01  -0.02    -0.19  -0.07   0.04
                     37                     38                     39
                        a                      a                      a 
 Frequencies --  1200.3751              1231.1896              1265.7320
 Red. masses --     5.4865                 6.2053                 4.6662
 Frc consts  --     0.0000                 0.0000                 0.0000
 IR Inten    --     1.5390                38.9276                19.9312
 Raman Activ --     0.0000                 0.0000                 0.0000
 Depolar     --     0.0000                 0.0000                 0.0000
 Atom AN      X      Y      Z        X      Y      Z        X      Y      Z
   1   6    -0.05   0.05  -0.01     0.15  -0.14   0.05    -0.04   0.01  -0.01
   2   6     0.11  -0.11   0.04    -0.39   0.38  -0.12     0.07   0.02   0.05
   3   6    -0.04   0.05  -0.07     0.15  -0.09  -0.03    -0.00   0.01  -0.02
   4   6     0.09   0.16   0.28     0.04  -0.05   0.05    -0.06  -0.27  -0.30
   5   1     0.05  -0.23  -0.06     0.35  -0.35   0.25     0.23   0.20   0.40
   6   6    -0.17  -0.18  -0.02    -0.07  -0.00   0.04     0.09  -0.01   0.23
   7   6     0.15   0.13  -0.12     0.04   0.02  -0.07    -0.09   0.06  -0.07
   8   6    -0.18  -0.08   0.02     0.20   0.01  -0.05    -0.18   0.07   0.04
   9   6    -0.22  -0.05  -0.02    -0.00   0.03  -0.01     0.08  -0.02  -0.02
  10   6     0.17  -0.02  -0.11    -0.02  -0.07   0.02    -0.08   0.12   0.07
  11   6     0.05  -0.02  -0.01    -0.08   0.04   0.05     0.07  -0.03  -0.04
  12   8     0.04   0.03  -0.00    -0.02  -0.03  -0.00     0.01   0.02   0.00
  13   1    -0.05   0.01   0.02     0.21  -0.09  -0.11     0.00   0.02   0.01
  14   1    -0.01  -0.01   0.01     0.03   0.02  -0.03     0.02  -0.00  -0.00
  15   1    -0.00   0.00   0.01     0.00  -0.01  -0.04     0.00  -0.00   0.01
  16   1    -0.00  -0.02   0.04     0.01   0.07  -0.21     0.01   0.01   0.01
  17   1     0.08  -0.00  -0.09    -0.10   0.01   0.08    -0.00  -0.03  -0.03
  18   1    -0.26  -0.16   0.01    -0.07  -0.04   0.01    -0.31  -0.18   0.08
  19   1     0.30   0.20  -0.01     0.05   0.03   0.04     0.15   0.12  -0.00
  20   1    -0.18   0.10   0.14    -0.05   0.01   0.04    -0.09  -0.01   0.07
  21   1     0.06   0.02  -0.06    -0.07   0.05   0.07     0.37  -0.04  -0.27
  22   1     0.17   0.13   0.03    -0.05  -0.03  -0.00    -0.02  -0.03   0.00
  23   1    -0.29   0.13   0.13    -0.18   0.03   0.07     0.07  -0.01  -0.03
  24   1     0.19  -0.10  -0.06    -0.07  -0.00   0.04    -0.02   0.05   0.01
  25   1     0.10   0.05  -0.03    -0.07  -0.02   0.01     0.04   0.01  -0.01
                     40                     41                     42
                        a                      a                      a 
 Frequencies --  1287.0731              1327.8018              1331.3474
 Red. masses --     4.9824                 5.7353                 5.5606
 Frc consts  --     0.0000                 0.0000                 0.0000
 IR Inten    --    46.7353                 9.8806                 6.7241
 Raman Activ --     0.0000                 0.0000                 0.0000
 Depolar     --     0.0000                 0.0000                 0.0000
 Atom AN      X      Y      Z        X      Y      Z        X      Y      Z
   1   6    -0.02   0.01  -0.01     0.01  -0.00  -0.00    -0.01   0.00  -0.01
   2   6     0.07  -0.02   0.03    -0.05   0.03  -0.02     0.12  -0.08   0.05
   3   6    -0.01   0.01   0.00     0.01  -0.01  -0.00    -0.02   0.03  -0.04
   4   6    -0.07  -0.11  -0.16     0.16   0.05   0.12    -0.25   0.22   0.03
   5   1     0.06   0.09   0.12     0.01  -0.31  -0.20     0.07  -0.35  -0.07
   6   6     0.07   0.14   0.09     0.10   0.05  -0.06     0.41   0.18  -0.00
   7   6     0.10  -0.00  -0.11    -0.09   0.02   0.04    -0.13  -0.04   0.00
   8   6     0.21  -0.27  -0.17    -0.01   0.02   0.01     0.04   0.02  -0.03
   9   6    -0.17  -0.06   0.05     0.16  -0.04  -0.08    -0.04   0.04   0.03
  10   6    -0.05   0.14   0.08    -0.52   0.10   0.20     0.17  -0.11  -0.05
  11   6    -0.16   0.08   0.09     0.01  -0.00  -0.00     0.02   0.00  -0.01
  12   8     0.00  -0.07  -0.03    -0.01  -0.01  -0.00    -0.01   0.02   0.01
  13   1    -0.02   0.02   0.02     0.02  -0.01  -0.01    -0.03   0.03   0.03
  14   1     0.00   0.00  -0.00     0.01  -0.01   0.00    -0.04   0.01   0.00
  15   1    -0.00   0.01   0.01     0.00  -0.00   0.00    -0.02   0.03   0.03
  16   1    -0.00  -0.01   0.02    -0.00   0.01  -0.03     0.00  -0.01   0.04
  17   1     0.00  -0.02  -0.02     0.01   0.01   0.00     0.02  -0.01  -0.03
  18   1    -0.03  -0.02   0.00    -0.17  -0.14  -0.04    -0.32  -0.20   0.01
  19   1    -0.17  -0.11   0.05    -0.02  -0.01  -0.03    -0.38  -0.25  -0.08
  20   1    -0.25   0.07   0.21     0.04  -0.03  -0.03    -0.05  -0.05   0.04
  21   1    -0.22   0.09   0.18     0.07  -0.03  -0.07     0.11  -0.03  -0.08
  22   1     0.45   0.36  -0.03     0.09   0.03  -0.03    -0.06  -0.03   0.02
  23   1     0.11  -0.03  -0.06     0.32  -0.10  -0.10    -0.11  -0.03   0.00
  24   1     0.05   0.03  -0.01     0.43  -0.15  -0.19    -0.16   0.02   0.08
  25   1     0.11   0.09   0.00     0.02   0.01  -0.00    -0.09  -0.06   0.01
                     43                     44                     45
                        a                      a                      a 
 Frequencies --  1350.0883              1359.4967              1382.2208
 Red. masses --     6.7705                 6.7771                 3.2516
 Frc consts  --     0.0000                 0.0000                 0.0000
 IR Inten    --    32.6780                51.4880                13.2129
 Raman Activ --     0.0000                 0.0000                 0.0000
 Depolar     --     0.0000                 0.0000                 0.0000
 Atom AN      X      Y      Z        X      Y      Z        X      Y      Z
   1   6     0.06  -0.03   0.01    -0.04   0.01  -0.02     0.01  -0.01  -0.01
   2   6    -0.20   0.14  -0.08     0.17  -0.11   0.07     0.03  -0.02   0.01
   3   6     0.04  -0.04   0.04    -0.03   0.03  -0.04    -0.00   0.00  -0.01
   4   6     0.16  -0.25   0.16    -0.15   0.23  -0.19    -0.03   0.06  -0.02
   5   1    -0.27   0.26  -0.16     0.27  -0.24   0.18     0.05  -0.08   0.01
   6   6     0.11   0.19   0.02    -0.13  -0.05   0.08     0.00   0.02   0.02
   7   6     0.24  -0.16  -0.23     0.31  -0.15  -0.20     0.06  -0.06  -0.05
   8   6    -0.28   0.11   0.15    -0.25   0.14   0.16    -0.07   0.10   0.07
   9   6     0.07  -0.01  -0.04     0.09  -0.04  -0.05     0.14   0.11  -0.01
  10   6     0.01   0.06  -0.04    -0.10  -0.03   0.08    -0.03  -0.08  -0.00
  11   6     0.11  -0.04  -0.06     0.14  -0.05  -0.07    -0.20   0.05   0.09
  12   8     0.01   0.05   0.02     0.01   0.08   0.03    -0.01  -0.22  -0.09
  13   1     0.03  -0.03  -0.02    -0.03   0.04   0.03    -0.02   0.01   0.02
  14   1     0.02   0.01  -0.01    -0.04   0.00   0.01    -0.03   0.00   0.00
  15   1     0.01  -0.02  -0.03    -0.02   0.03   0.05    -0.01   0.02   0.02
  16   1     0.00   0.02  -0.05    -0.00  -0.03   0.06     0.00  -0.01   0.01
  17   1    -0.03   0.01   0.05     0.01  -0.01  -0.03    -0.00   0.00  -0.00
  18   1    -0.21  -0.17  -0.03     0.23   0.15   0.02     0.02   0.01  -0.01
  19   1    -0.17  -0.13   0.07    -0.07  -0.03   0.01    -0.05  -0.03  -0.00
  20   1    -0.25   0.05   0.21    -0.18   0.07   0.14    -0.03  -0.01   0.03
  21   1    -0.15   0.03   0.10    -0.19   0.04   0.15    -0.03  -0.00   0.02
  22   1    -0.11  -0.10   0.00    -0.12  -0.11  -0.01    -0.20  -0.14   0.01
  23   1    -0.05   0.06   0.04     0.14  -0.07  -0.06    -0.01   0.01   0.02
  24   1     0.02  -0.02  -0.00     0.07  -0.01  -0.04    -0.04   0.02  -0.00
  25   1    -0.02  -0.04  -0.01    -0.16  -0.12   0.00     0.71   0.48  -0.05
                     46                     47                     48
                        a                      a                      a 
 Frequencies --  1396.6683              1418.9920              1431.1890
 Red. masses --     3.0877                 2.4214                 2.0801
 Frc consts  --     0.0000                 0.0000                 0.0000
 IR Inten    --     4.8320                15.5387                64.1950
 Raman Activ --     0.0000                 0.0000                 0.0000
 Depolar     --     0.0000                 0.0000                 0.0000
 Atom AN      X      Y      Z        X      Y      Z        X      Y      Z
   1   6     0.34  -0.19  -0.11    -0.16   0.06   0.11    -0.06   0.01   0.07
   2   6    -0.03   0.07  -0.12     0.10  -0.00  -0.19     0.06   0.01  -0.14
   3   6     0.04  -0.01  -0.04     0.03   0.01  -0.07     0.03   0.01  -0.07
   4   6     0.04  -0.05   0.03     0.01  -0.01   0.03    -0.02  -0.02   0.03
   5   1     0.01   0.01   0.02     0.03  -0.03   0.02     0.03  -0.03   0.03
   6   6    -0.02  -0.00   0.01    -0.01  -0.00  -0.00     0.02   0.00  -0.03
   7   6    -0.01   0.00   0.01    -0.00  -0.02  -0.00    -0.01   0.03   0.01
   8   6     0.01   0.00  -0.00     0.01   0.05   0.02    -0.02  -0.07  -0.03
   9   6    -0.01  -0.01  -0.00    -0.00  -0.02  -0.01    -0.00   0.03   0.02
  10   6     0.00   0.05   0.00     0.02   0.16   0.01    -0.04  -0.21  -0.02
  11   6     0.00  -0.00  -0.00    -0.01  -0.01  -0.00     0.01   0.02   0.01
  12   8     0.00   0.01   0.00     0.00  -0.00  -0.00    -0.01  -0.01  -0.00
  13   1    -0.33   0.11   0.25     0.12  -0.03  -0.07     0.03   0.00  -0.01
  14   1    -0.48   0.10   0.01     0.21   0.07  -0.07     0.08   0.07  -0.06
  15   1    -0.29   0.37   0.13     0.08  -0.16  -0.16     0.01  -0.05  -0.11
  16   1     0.02  -0.10   0.22     0.04  -0.18   0.43     0.02  -0.15   0.34
  17   1    -0.19   0.06   0.18    -0.33   0.12   0.31    -0.26   0.09   0.24
  18   1     0.01  -0.03  -0.03     0.00  -0.00  -0.00    -0.06   0.03   0.05
  19   1     0.03   0.04  -0.02     0.00   0.00  -0.00     0.01  -0.03   0.07
  20   1     0.01   0.01  -0.02    -0.00   0.02  -0.02    -0.00  -0.02   0.02
  21   1     0.02   0.01  -0.00     0.02   0.02   0.01    -0.01  -0.02  -0.02
  22   1     0.02   0.01  -0.00     0.01   0.00  -0.00    -0.01  -0.00   0.01
  23   1    -0.04  -0.05  -0.04    -0.18  -0.25  -0.23     0.23   0.35   0.32
  24   1     0.01  -0.07   0.04    -0.00  -0.34   0.20     0.03   0.46  -0.29
  25   1    -0.02  -0.01   0.00     0.03   0.02  -0.00    -0.03  -0.01   0.00
                     49                     50                     51
                        a                      a                      a 
 Frequencies --  1460.6254              1475.5130              1479.6902
 Red. masses --     1.9428                 1.6978                 1.6980
 Frc consts  --     0.0000                 0.0000                 0.0000
 IR Inten    --     1.4483                 2.8390                 1.7386
 Raman Activ --     0.0000                 0.0000                 0.0000
 Depolar     --     0.0000                 0.0000                 0.0000
 Atom AN      X      Y      Z        X      Y      Z        X      Y      Z
   1   6    -0.01  -0.00   0.00    -0.11  -0.13  -0.08    -0.05   0.17  -0.12
   2   6    -0.01   0.00  -0.01    -0.04  -0.01  -0.02     0.01   0.02  -0.02
   3   6    -0.00  -0.00   0.01     0.01  -0.00  -0.01     0.04   0.00  -0.08
   4   6     0.00   0.00   0.02     0.01  -0.01   0.03     0.00  -0.02   0.02
   5   1    -0.01  -0.00  -0.01    -0.03   0.02  -0.02    -0.02   0.03   0.01
   6   6     0.00   0.00   0.04    -0.03   0.02   0.14    -0.01   0.02   0.07
   7   6    -0.08  -0.27   0.02     0.01   0.04   0.00     0.00   0.01   0.00
   8   6     0.02   0.03   0.01     0.00  -0.01  -0.01    -0.00  -0.01  -0.01
   9   6    -0.03  -0.05  -0.01    -0.00   0.00   0.00    -0.00   0.00   0.00
  10   6     0.01  -0.02  -0.01     0.01  -0.01  -0.01     0.01  -0.01  -0.01
  11   6    -0.01  -0.01  -0.00     0.00   0.00   0.00     0.00   0.01   0.00
  12   8     0.00   0.00   0.00    -0.00  -0.00   0.00    -0.00  -0.00  -0.00
  13   1     0.02   0.02   0.01     0.37   0.45   0.19     0.19  -0.25  -0.31
  14   1     0.01   0.01  -0.01    -0.18   0.25  -0.15    -0.14  -0.50   0.38
  15   1     0.02  -0.02   0.00     0.26  -0.20   0.29     0.04   0.11   0.46
  16   1    -0.01   0.00  -0.01     0.01  -0.00   0.01     0.02  -0.06   0.12
  17   1     0.01  -0.00  -0.00    -0.01   0.01   0.01    -0.11   0.04   0.09
  18   1     0.04  -0.09  -0.08     0.15  -0.22  -0.22     0.07  -0.11  -0.11
  19   1    -0.03   0.03  -0.12    -0.05   0.13  -0.31    -0.05   0.05  -0.15
  20   1    -0.11   0.56  -0.35     0.01  -0.07   0.05     0.00  -0.02   0.02
  21   1     0.36   0.46   0.29    -0.05  -0.06  -0.03    -0.01  -0.02  -0.01
  22   1     0.01  -0.00  -0.00     0.00   0.00   0.00     0.00   0.00   0.00
  23   1     0.03   0.04   0.04     0.01   0.02   0.02     0.01   0.02   0.02
  24   1     0.01   0.05  -0.04    -0.00   0.02  -0.01     0.00   0.02  -0.01
  25   1     0.01   0.01  -0.00    -0.01  -0.00   0.00    -0.00  -0.00   0.00
                     52                     53                     54
                        a                      a                      a 
 Frequencies --  1483.5362              1622.2262              1686.3352
 Red. masses --     1.8248                12.1699                12.6512
 Frc consts  --     0.0000                 0.0000                 0.0000
 IR Inten    --     1.1008              1219.7489               156.7701
 Raman Activ --     0.0000                 0.0000                 0.0000
 Depolar     --     0.0000                 0.0000                 0.0000
 Atom AN      X      Y      Z        X      Y      Z        X      Y      Z
   1   6     0.07   0.03   0.11    -0.00   0.00  -0.00    -0.00   0.00   0.00
   2   6     0.01   0.02   0.01     0.00  -0.00  -0.00     0.01  -0.00  -0.01
   3   6    -0.01   0.00   0.02    -0.00   0.00   0.00    -0.00  -0.00   0.01
   4   6    -0.01  -0.00   0.01    -0.01  -0.01  -0.01     0.01   0.01   0.00
   5   1     0.01  -0.01   0.02    -0.00   0.01   0.00     0.01  -0.02  -0.00
   6   6    -0.04   0.04   0.22     0.00   0.02   0.01    -0.00  -0.00  -0.00
   7   6     0.02   0.04   0.00     0.00  -0.05  -0.03    -0.01   0.05   0.02
   8   6     0.00  -0.01  -0.01     0.24   0.47   0.11    -0.14  -0.43  -0.12
   9   6    -0.00   0.00   0.00    -0.23  -0.37  -0.07     0.29   0.40   0.06
  10   6     0.01  -0.02  -0.01     0.03   0.01   0.00    -0.06  -0.04   0.01
  11   6     0.00   0.01   0.00    -0.34  -0.45  -0.07    -0.32  -0.43  -0.07
  12   8    -0.00  -0.00  -0.00     0.20   0.33   0.07     0.25   0.38   0.07
  13   1    -0.28  -0.22  -0.04     0.00  -0.00  -0.00     0.00  -0.00  -0.00
  14   1     0.22  -0.00  -0.03     0.00  -0.00   0.00    -0.00   0.00   0.00
  15   1    -0.17   0.07  -0.36     0.00   0.00   0.00    -0.00   0.00   0.00
  16   1    -0.01   0.01  -0.02    -0.00  -0.00   0.00    -0.00   0.00   0.00
  17   1     0.02  -0.01  -0.02    -0.00  -0.00   0.00     0.00  -0.00   0.00
  18   1     0.24  -0.33  -0.34    -0.00  -0.00  -0.00     0.00  -0.00  -0.00
  19   1    -0.11   0.18  -0.49    -0.02  -0.02   0.01     0.01   0.01  -0.01
  20   1     0.01  -0.07   0.06     0.04  -0.07   0.00    -0.04   0.05   0.01
  21   1    -0.06  -0.06  -0.03    -0.01  -0.04  -0.03    -0.01   0.03   0.03
  22   1    -0.00   0.00  -0.00     0.07  -0.00  -0.03    -0.07   0.01   0.03
  23   1     0.02   0.03   0.03     0.05   0.04   0.03    -0.05  -0.01  -0.01
  24   1    -0.00   0.04  -0.02     0.04   0.06  -0.05    -0.04  -0.02   0.03
  25   1    -0.00  -0.00   0.00     0.10   0.03  -0.02     0.01  -0.03  -0.02
                     55                     56                     57
                        a                      a                      a 
 Frequencies --  1725.4394              2747.9793              2926.6494
 Red. masses --    11.2822                 1.6650                 1.7776
 Frc consts  --     0.0000                 0.0000                 0.0000
 IR Inten    --    30.4384               274.3477                33.2875
 Raman Activ --     0.0000                 0.0000                 0.0000
 Depolar     --     0.0000                 0.0000                 0.0000
 Atom AN      X      Y      Z        X      Y      Z        X      Y      Z
   1   6     0.05  -0.02  -0.05    -0.00   0.00  -0.00     0.00   0.00  -0.00
   2   6    -0.29  -0.05   0.68     0.00  -0.00   0.00    -0.00  -0.00   0.01
   3   6     0.23   0.04  -0.57    -0.00   0.00   0.00     0.00  -0.00   0.00
   4   6     0.01   0.03  -0.06    -0.00  -0.00   0.00    -0.16  -0.07   0.12
   5   1    -0.06   0.04  -0.06     0.00   0.00  -0.00     0.57   0.27  -0.44
   6   6    -0.01  -0.00  -0.01    -0.00   0.00   0.00    -0.00  -0.01  -0.00
   7   6    -0.00  -0.00   0.00    -0.00  -0.00  -0.00     0.00   0.00  -0.00
   8   6    -0.00  -0.00  -0.00    -0.01   0.01   0.01    -0.00  -0.00  -0.00
   9   6     0.00   0.00  -0.00     0.00  -0.00  -0.00     0.00   0.01  -0.00
  10   6     0.00  -0.00   0.01    -0.00  -0.00   0.00    -0.03   0.08  -0.14
  11   6    -0.01  -0.01  -0.00    -0.12   0.17   0.12     0.00  -0.00   0.00
  12   8     0.00   0.01   0.00     0.01   0.03   0.01    -0.00  -0.00  -0.00
  13   1    -0.04   0.02   0.04     0.00  -0.00   0.00     0.00  -0.00   0.00
  14   1     0.07   0.01  -0.02     0.00  -0.00  -0.00     0.00   0.00   0.01
  15   1     0.03  -0.04  -0.04     0.00   0.00  -0.00    -0.01  -0.01   0.00
  16   1     0.09  -0.09   0.07     0.00  -0.00  -0.00     0.00  -0.00  -0.00
  17   1    -0.12   0.08   0.00     0.00  -0.00   0.00    -0.00   0.01  -0.00
  18   1     0.00   0.01   0.00    -0.00   0.00  -0.00     0.01  -0.01   0.02
  19   1     0.00  -0.00   0.00     0.00  -0.00  -0.00    -0.02   0.02   0.01
  20   1    -0.00   0.01  -0.00     0.00  -0.00  -0.00     0.00   0.00   0.00
  21   1     0.01   0.01   0.00     0.00   0.00   0.00     0.00  -0.00   0.00
  22   1     0.00   0.00  -0.00    -0.01  -0.00   0.00    -0.00  -0.00  -0.00
  23   1     0.01  -0.01  -0.01    -0.00   0.00  -0.00     0.03  -0.38   0.41
  24   1     0.00  -0.00   0.00     0.00   0.00   0.00     0.06   0.07   0.09
  25   1     0.00  -0.00  -0.00     0.41  -0.74  -0.47    -0.00   0.00   0.00
                     58                     59                     60
                        a                      a                      a 
 Frequencies --  2935.0439              2946.1825              2975.0030
 Red. masses --     1.8444                 1.8607                 1.6067
 Frc consts  --     0.0000                 0.0000                 0.0000
 IR Inten    --    54.2923                21.4761                27.7747
 Raman Activ --     0.0000                 0.0000                 0.0000
 Depolar     --     0.0000                 0.0000                 0.0000
 Atom AN      X      Y      Z        X      Y      Z        X      Y      Z
   1   6    -0.00  -0.00   0.00     0.00   0.00   0.00     0.00   0.00  -0.00
   2   6     0.00   0.00  -0.00    -0.00   0.00  -0.00     0.00  -0.00   0.00
   3   6    -0.00   0.00   0.00     0.00  -0.00   0.00    -0.00   0.00  -0.00
   4   6     0.11   0.06  -0.09    -0.00   0.00  -0.00    -0.01  -0.01   0.00
   5   1    -0.42  -0.20   0.33     0.00   0.00  -0.00     0.03   0.02  -0.03
   6   6     0.01  -0.00   0.01    -0.02   0.03  -0.01     0.01  -0.02   0.01
   7   6     0.00  -0.00   0.00     0.13  -0.11   0.21     0.01   0.01   0.01
   8   6    -0.00  -0.00  -0.00     0.00  -0.01   0.00     0.00   0.00   0.00
   9   6     0.00   0.00  -0.01     0.00   0.00   0.00    -0.01   0.00   0.00
  10   6    -0.04   0.10  -0.20     0.00   0.00   0.00    -0.11  -0.15  -0.13
  11   6    -0.00  -0.00   0.00    -0.00  -0.00  -0.00     0.00  -0.00  -0.00
  12   8     0.00   0.00  -0.00     0.00   0.00   0.00    -0.00  -0.00  -0.00
  13   1    -0.00   0.00  -0.00    -0.00   0.00  -0.00     0.00   0.00  -0.00
  14   1    -0.00  -0.00  -0.01    -0.00  -0.00  -0.00     0.00   0.00   0.00
  15   1     0.01   0.01  -0.00     0.00   0.00   0.00    -0.01  -0.01   0.00
  16   1     0.00  -0.00   0.00    -0.00   0.00   0.00     0.00  -0.00  -0.00
  17   1     0.00  -0.00   0.00    -0.00   0.00  -0.00     0.00  -0.00   0.00
  18   1    -0.02   0.03  -0.04     0.04  -0.07   0.10    -0.02   0.03  -0.04
  19   1     0.01  -0.01  -0.00     0.03  -0.04  -0.02    -0.02   0.03   0.02
  20   1    -0.00  -0.00  -0.00    -0.19  -0.17  -0.16    -0.05  -0.03  -0.04
  21   1    -0.00   0.01  -0.01    -0.29   0.60  -0.61     0.00  -0.00   0.01
  22   1    -0.00   0.00   0.00     0.00  -0.00  -0.00     0.02  -0.03  -0.02
  23   1     0.04  -0.50   0.53     0.00  -0.00   0.00    -0.03   0.18  -0.24
  24   1     0.12   0.13   0.18    -0.00  -0.00  -0.01     0.43   0.38   0.72
  25   1     0.00  -0.00  -0.00    -0.00   0.00   0.00    -0.00   0.00   0.00
                     61                     62                     63
                        a                      a                      a 
 Frequencies --  2976.7274              2982.9902              2997.2339
 Red. masses --     1.9195                 1.5917                 1.5651
 Frc consts  --     0.0000                 0.0000                 0.0000
 IR Inten    --    86.0323                46.1924                86.1717
 Raman Activ --     0.0000                 0.0000                 0.0000
 Depolar     --     0.0000                 0.0000                 0.0000
 Atom AN      X      Y      Z        X      Y      Z        X      Y      Z
   1   6    -0.00  -0.00  -0.00    -0.00   0.00   0.00     0.00   0.01   0.01
   2   6     0.00  -0.00   0.00    -0.00  -0.00   0.00     0.00  -0.00   0.00
   3   6    -0.00   0.00  -0.00     0.00  -0.00  -0.00    -0.00   0.00  -0.00
   4   6     0.00   0.01  -0.01     0.00  -0.00  -0.00     0.01   0.00  -0.01
   5   1    -0.02  -0.01   0.02    -0.01  -0.00   0.01    -0.03  -0.02   0.02
   6   6    -0.13   0.21  -0.14     0.03  -0.04  -0.03     0.09  -0.12  -0.16
   7   6    -0.01   0.03  -0.03     0.13   0.16   0.09    -0.03  -0.04  -0.02
   8   6    -0.00   0.00   0.00     0.00   0.01   0.01     0.00  -0.00  -0.00
   9   6    -0.00   0.00   0.00    -0.00  -0.00   0.00    -0.00   0.00   0.00
  10   6    -0.01  -0.01  -0.02     0.01   0.01   0.01    -0.00   0.00  -0.00
  11   6     0.00   0.00   0.00     0.00   0.00  -0.00    -0.00  -0.00   0.00
  12   8    -0.00  -0.00  -0.00    -0.00  -0.00  -0.00     0.00   0.00   0.00
  13   1    -0.00   0.00  -0.00    -0.00  -0.00   0.00    -0.00   0.00  -0.00
  14   1     0.00   0.01   0.01    -0.00  -0.00  -0.01    -0.01  -0.03  -0.05
  15   1     0.00   0.00  -0.00     0.00   0.00  -0.00    -0.01  -0.01   0.00
  16   1     0.00  -0.00  -0.00    -0.00   0.00   0.00     0.00  -0.00   0.00
  17   1     0.00  -0.00   0.00     0.00  -0.00   0.00     0.00  -0.00   0.00
  18   1     0.30  -0.48   0.66     0.02  -0.02   0.02     0.15  -0.23   0.26
  19   1     0.18  -0.26  -0.16    -0.12   0.17   0.08    -0.46   0.67   0.31
  20   1    -0.01  -0.00  -0.01    -0.57  -0.41  -0.54     0.13   0.09   0.13
  21   1     0.05  -0.10   0.10     0.12  -0.18   0.22    -0.03   0.04  -0.05
  22   1     0.00  -0.00  -0.00     0.00   0.00  -0.00     0.00  -0.00  -0.00
  23   1    -0.00  -0.01   0.00     0.00  -0.01   0.02     0.00  -0.00   0.00
  24   1     0.03   0.03   0.06    -0.03  -0.03  -0.06     0.00   0.00   0.00
  25   1     0.00  -0.00  -0.00     0.00   0.00   0.00     0.00  -0.00  -0.00
                     64                     65                     66
                        a                      a                      a 
 Frequencies --  3002.6577              3021.7167              3048.4131
 Red. masses --     1.8867                 1.6074                 1.6611
 Frc consts  --     0.0000                 0.0000                 0.0000
 IR Inten    --    44.3506                59.2011                74.4408
 Raman Activ --     0.0000                 0.0000                 0.0000
 Depolar     --     0.0000                 0.0000                 0.0000
 Atom AN      X      Y      Z        X      Y      Z        X      Y      Z
   1   6    -0.18  -0.22  -0.03    -0.02   0.04   0.23    -0.08   0.14  -0.15
   2   6    -0.01  -0.00   0.00    -0.01   0.00   0.01    -0.00   0.00  -0.01
   3   6    -0.00  -0.00  -0.00    -0.00   0.00  -0.00     0.00  -0.01   0.01
   4   6    -0.00  -0.00   0.00    -0.00  -0.00   0.00     0.00  -0.00   0.00
   5   1     0.01   0.00  -0.01     0.01   0.01  -0.01    -0.00  -0.00   0.00
   6   6     0.00  -0.01  -0.00    -0.00   0.01   0.01    -0.00   0.00   0.00
   7   6    -0.00  -0.00  -0.00    -0.00   0.00  -0.00     0.00  -0.00  -0.00
   8   6     0.00   0.00  -0.00    -0.00  -0.00  -0.00    -0.00  -0.00   0.00
   9   6    -0.00   0.00   0.00     0.00   0.00   0.00    -0.05   0.08   0.05
  10   6    -0.00  -0.00  -0.00    -0.00  -0.00  -0.00     0.00   0.00   0.00
  11   6     0.00  -0.00  -0.00     0.00   0.00  -0.00    -0.00  -0.00  -0.00
  12   8    -0.00   0.00   0.00    -0.00  -0.00  -0.00     0.00   0.00  -0.00
  13   1    -0.04  -0.01  -0.03    -0.04   0.07  -0.06     0.28  -0.52   0.67
  14   1     0.05   0.20   0.34    -0.16  -0.50  -0.70    -0.02  -0.03  -0.09
  15   1     0.62   0.58  -0.20     0.29   0.28  -0.06     0.04   0.06  -0.04
  16   1     0.00   0.00   0.00     0.01  -0.01  -0.00     0.00  -0.00   0.00
  17   1    -0.00   0.00  -0.00    -0.00   0.00  -0.00    -0.01   0.02  -0.02
  18   1     0.00  -0.00   0.00    -0.01   0.01  -0.01     0.00  -0.00   0.00
  19   1    -0.02   0.03   0.01     0.02  -0.04  -0.02     0.00  -0.00  -0.00
  20   1     0.00   0.00   0.00    -0.00  -0.00  -0.00     0.00   0.00   0.00
  21   1    -0.00   0.00  -0.00     0.00  -0.00   0.00    -0.00   0.00   0.00
  22   1     0.00  -0.00  -0.00     0.00  -0.00  -0.00     0.19  -0.26  -0.17
  23   1    -0.00   0.00  -0.00    -0.00   0.00  -0.00     0.00  -0.00   0.00
  24   1     0.00   0.00   0.01     0.00   0.00   0.00    -0.01  -0.01  -0.01
  25   1    -0.00   0.00   0.00    -0.00   0.00   0.00     0.00  -0.00  -0.00
                     67                     68                     69
                        a                      a                      a 
 Frequencies --  3049.0183              3098.6828              3121.5129
 Red. masses --     1.7890                 1.6212                 1.9782
 Frc consts  --     0.0000                 0.0000                 0.0000
 IR Inten    --    42.3828                72.7404                81.3406
 Raman Activ --     0.0000                 0.0000                 0.0000
 Depolar     --     0.0000                 0.0000                 0.0000
 Atom AN      X      Y      Z        X      Y      Z        X      Y      Z
   1   6    -0.03   0.06  -0.06    -0.00   0.00  -0.00    -0.00  -0.00   0.00
   2   6    -0.00   0.00  -0.00    -0.01   0.00   0.01     0.01  -0.01   0.01
   3   6     0.01  -0.00   0.00    -0.03   0.10  -0.21     0.25  -0.16  -0.02
   4   6    -0.00   0.00   0.00     0.00  -0.00   0.00    -0.00   0.00  -0.00
   5   1     0.00  -0.00  -0.00     0.01   0.00  -0.01    -0.00  -0.00   0.00
   6   6    -0.00   0.00  -0.00    -0.00   0.00   0.00    -0.00  -0.00  -0.00
   7   6    -0.00   0.00   0.00     0.00  -0.00   0.00    -0.00   0.00  -0.00
   8   6     0.01   0.00  -0.00     0.00   0.00   0.00     0.00   0.00   0.00
   9   6     0.12  -0.18  -0.12    -0.00   0.00   0.00    -0.00   0.00   0.00
  10   6    -0.00  -0.01  -0.01    -0.00   0.00   0.00    -0.00  -0.00  -0.00
  11   6     0.00   0.00  -0.00     0.00   0.00  -0.00    -0.00  -0.00   0.00
  12   8    -0.00  -0.00  -0.00    -0.00  -0.00  -0.00     0.00   0.00  -0.00
  13   1     0.11  -0.21   0.27     0.01  -0.02   0.02    -0.01   0.01  -0.01
  14   1    -0.01  -0.01  -0.04    -0.00  -0.00  -0.01     0.00  -0.00  -0.01
  15   1     0.02   0.03  -0.02     0.01   0.01  -0.00     0.00   0.00  -0.00
  16   1    -0.02   0.01   0.01    -0.28   0.17   0.07    -0.75   0.42   0.26
  17   1    -0.00   0.01  -0.01     0.41  -0.51   0.63    -0.12   0.17  -0.23
  18   1     0.00  -0.00   0.00    -0.00   0.00  -0.00     0.00   0.00   0.00
  19   1    -0.00   0.00   0.00     0.00  -0.00  -0.00     0.00   0.00   0.00
  20   1    -0.00  -0.00  -0.00     0.00   0.00   0.00     0.00   0.00   0.00
  21   1     0.00  -0.00  -0.00    -0.00   0.00  -0.00     0.00  -0.00   0.00
  22   1    -0.45   0.64   0.42     0.00  -0.01  -0.00     0.01  -0.01  -0.01
  23   1    -0.00   0.01  -0.01     0.00  -0.00   0.00     0.00  -0.00   0.00
  24   1     0.02   0.02   0.03    -0.00  -0.00  -0.00     0.00   0.00   0.01
  25   1    -0.01   0.00   0.00     0.00  -0.00  -0.00     0.00  -0.00  -0.00
