20
 energy: -27.124062755494 gnorm: 0.034675907663 xtb: 6.7.1 (edcfbbe)
C           -2.24373326909822        0.92074139310762        0.72568704867293
C           -1.77099673686839       -0.47598023982239        0.32596992438626
C           -2.81447723251682       -1.18096244996174       -0.54204245279055
C           -0.46428098481391       -0.42609045698405       -0.44417583321478
O            0.55714507841464        0.14622589310340        0.42914586740013
C            1.78533520571227        0.28871360012461       -0.09767182212034
O            2.06562981552828       -0.04517747895870       -1.23918207331479
C            2.74260144547340        0.92304396829696        0.85909285038445
H           -2.40207057921042        1.53888250583264       -0.16623120404034
H           -1.51775530814019        1.42837092387733        1.36758685568515
H           -3.19175738509143        0.86342546476013        1.27003904127660
H           -1.60562905754514       -1.07410876193455        1.23201264528494
H           -2.49575666205357       -2.19313193095114       -0.81221836878483
H           -2.99102926332926       -0.62023507067218       -1.46745586332113
H           -3.76676442896246       -1.25576399415285       -0.00844688250145
H           -0.13751959387904       -1.42666231643117       -0.74510973361293
H           -0.55439264364522        0.20505322646240       -1.33590763661846
H            2.80971336629855        1.98876662746926        0.61225088027676
H            3.73319929319544        0.48446936380026        0.72703210162124
H            2.41190135216385        0.82476676238508        1.89342664484417
20
 energy: -27.125254335993 gnorm: 0.012889585545 xtb: 6.7.1 (edcfbbe)
C           -2.24522086445589        0.91663279314928        0.71858371493425
C           -1.77515035716789       -0.47975840247560        0.32589790425582
C           -2.82205346907640       -1.17933792834345       -0.53841170010551
C           -0.45783249121302       -0.41599619621953       -0.43604769688936
O            0.56307065887591        0.14828420139854        0.42107355888482
C            1.78193199656717        0.29205744179690       -0.10100309661659
O            2.05846927070630       -0.04497909636743       -1.23503921713420
C            2.74008493470104        0.92339486610253        0.85741868134846
H           -2.40093753166369        1.53045678862387       -0.16877366436413
H           -1.50807208989317        1.40687116512895        1.35189474489478
H           -3.18487407729144        0.85739459579489        1.26527561108092
H           -1.60935982834445       -1.06761657244517        1.23537434567121
H           -2.49721782643608       -2.18405499262712       -0.80332707210382
H           -2.99074622567839       -0.62072437241070       -1.45869381326426
H           -3.76717510199145       -1.25287429572055       -0.00416095953156
H           -0.12540478431275       -1.41123038799215       -0.74435026840981
H           -0.53959074254709        0.21304925398475       -1.32783346774338
H            2.80958969632150        1.98484967763263        0.61670325954550
H            3.72625801635402        0.48394880262914        0.72849803633865
H            2.39359322817812        0.81397968771111        1.88072308872123
20
 energy: -27.125448487584 gnorm: 0.004011876891 xtb: 6.7.1 (edcfbbe)
C           -2.24184078978679        0.91920973349890        0.71754582261864
C           -1.77413309539047       -0.47916991364572        0.32626374115343
C           -2.81910601132406       -1.18167592160581       -0.53687362220841
C           -0.45330402986645       -0.41155099152835       -0.43537885340221
O            0.56215124905772        0.14777644727524        0.41507237185537
C            1.77570606106733        0.29121605546307       -0.10396389701579
O            2.05108625071315       -0.04436325899856       -1.23759955075975
C            2.73274730851933        0.92250998057773        0.85905727689452
H           -2.40062147217967        1.52690843895312       -0.16977951752974
H           -1.49738635836463        1.40445676076149        1.34245250005213
H           -3.17599547681259        0.86040795172688        1.26844316759856
H           -1.60510004259603       -1.06228930611528        1.23653704761229
H           -2.49406486274497       -2.18440521353511       -0.79982396129900
H           -2.98753234854197       -0.62274883548911       -1.45358358022700
H           -3.75889658967703       -1.25235334879387        0.00171180382161
H           -0.12228737880895       -1.40590950597925       -0.75132271149132
H           -0.53809772206002        0.21737025320474       -1.32715497611898
H            2.80343018077841        1.98255461145253        0.62397114721881
H            3.71693207935948        0.48238747170851        0.73224349577429
H            2.37567546029055        0.80401562041973        1.87598428496559
20
 energy: -27.125481345457 gnorm: 0.001539197576 xtb: 6.7.1 (edcfbbe)
C           -2.23863288228542        0.92086651387342        0.71654680476468
C           -1.77189248961043       -0.47905021264499        0.32626888010488
C           -2.81799585123748       -1.18312829266333       -0.53421987638674
C           -0.45198597702772       -0.40994945554810       -0.43817402956171
O            0.56094139833543        0.14746316203031        0.41070594529707
C            1.77353072417620        0.29274948177446       -0.10670716023414
O            2.05127905270106       -0.04143649407691       -1.24103090042167
C            2.72879920864811        0.92122249003586        0.86175440822106
H           -2.40258859340445        1.52573386884329       -0.17183222538745
H           -1.49006205526083        1.40716927110520        1.33556888165479
H           -3.16931310520623        0.86321277716793        1.27339243338736
H           -1.59973745277523       -1.06056284407013        1.23686829115427
H           -2.49188839336560       -2.18576413488582       -0.79622003444633
H           -2.98776753533067       -0.62512851896652       -1.45127927709269
H           -3.75678285102898       -1.25393418496580        0.00634640832854
H           -0.12368450980011       -1.40450918786603       -0.75856693887109
H           -0.54176615170438        0.21936362599805       -1.32999211196955
H            2.80013706923555        1.98192075485225        0.63102340370423
H            3.71291628144539        0.48045032858474        0.73731551783716
H            2.36585652512813        0.79765808077300        1.87603356943038
20
 energy: -27.125503872433 gnorm: 0.002837554751 xtb: 6.7.1 (edcfbbe)
C           -2.23284471879741        0.92375398806868        0.71443472776055
C           -1.76797550666626       -0.47793340248046        0.32481005936827
C           -2.81720546797644       -1.18653396167907       -0.52793210800198
C           -0.45169187861022       -0.40716626331717       -0.44662759666309
O            0.55945400789384        0.14552405518163        0.40141581317765
C            1.77329496476348        0.29343577626949       -0.11093539992441
O            2.05651939753384       -0.03191297081863       -1.24759819944356
C            2.72262388424311        0.91778107958974        0.86794917746799
H           -2.41027877131665        1.52312401479990       -0.17601324195210
H           -1.47655054337900        1.41570199171837        1.32041797240117
H           -3.15599266116153        0.86824741777998        1.28511511938417
H           -1.58903284099828       -1.05674606978682        1.23602162867938
H           -2.48996084454100       -2.18991277171294       -0.78815323392138
H           -2.99206684986867       -0.63184844422986       -1.44681705444325
H           -3.75432415337665       -1.25785794167634        0.01674373088321
H           -0.12781219028458       -1.40166599574535       -0.77435200171999
H           -0.54921048561167        0.22427570000902       -1.33737526417161
H            2.79366453130140        1.98060108949371        0.64613950383752
H            3.70804149343181        0.47820324237169        0.74834819538995
H            2.35071104505321        0.78527649551528        1.87821016140455
20
 energy: -27.125513241321 gnorm: 0.002009096556 xtb: 6.7.1 (edcfbbe)
C           -2.23248094793410        0.92387739857099        0.71325539997755
C           -1.76739508914547       -0.47752940195492        0.32390442813988
C           -2.81773741420236       -1.18744338686741       -0.52610463832434
C           -0.45228272546331       -0.40655298427034       -0.44926289094340
O            0.55968376803711        0.14537175092521        0.39936446739488
C            1.77409960466385        0.29533932785129       -0.11210263174952
O            2.05887283838402       -0.02847921138453       -1.24853884449378
C            2.72223123583246        0.91629880024143        0.86964933357552
H           -2.41440623874926        1.52204527675003       -0.17714791702623
H           -1.47457421143424        1.41800408595810        1.31547545469664
H           -3.15320807668538        0.86833856020881        1.28782411018121
H           -1.58657334959604       -1.05564150562357        1.23527906703113
H           -2.49081017570247       -2.19119158194631       -0.78558470341838
H           -2.99467320602677       -0.63427630226432       -1.44560617994422
H           -3.75403556727862       -1.25845305857378        0.02007333403833
H           -0.12839226151883       -1.40050815686419       -0.77812622259744
H           -0.55001440076028        0.22632660817553       -1.33882161530818
H            2.79380771019430        1.97963918729488        0.65022153810377
H            3.70787746702620        0.47700289970289        0.75072156131753
H            2.34937345199151        0.78217872342106        1.87932893886208
20
 energy: -27.125528945899 gnorm: 0.000878504821 xtb: 6.7.1 (edcfbbe)
C           -2.23210183860276        0.92434223123410        0.70945031581637
C           -1.76594523167071       -0.47612225710024        0.32099252297180
C           -2.81941150086992       -1.19009216407085       -0.52113958422536
C           -0.45367065560373       -0.40395444163999       -0.45644139404954
O            0.56104115285602        0.14362921407092        0.39504692466997
C            1.77716564421454        0.29701584642460       -0.11357783958659
O            2.06405036866516       -0.01800671862823       -1.25116342552027
C            2.72136665884157        0.91215155130635        0.87429086928893
H           -2.42756611913000        1.51837284658384       -0.18084264656394
H           -1.46919798917874        1.42456913222547        1.30023605816134
H           -3.14536229570818        0.86782683391917        1.29552173749846
H           -1.57969433015641       -1.05197704648080        1.23285041409201
H           -2.49354241490138       -2.19481482759098       -0.77806749099721
H           -3.00194322613549       -0.64132748402810       -1.44217842252853
H           -3.75291995581646       -1.25952282784089        0.02983651842432
H           -0.12993634071979       -1.39625695862327       -0.78879330983215
H           -0.55062550721773        0.23376292898737       -1.34205703045705
H            2.79268266783658        1.97698554958042        0.66160698851767
H            3.70802055753715        0.47518930050406        0.75574243003920
H            2.34695276739257        0.77257632051784        1.88248835379360
20
 energy: -27.125536069348 gnorm: 0.001251169341 xtb: 6.7.1 (edcfbbe)
C           -2.23191479852166        0.92561768206749        0.70533703807747
C           -1.76406951343191       -0.47455368013812        0.31830007335881
C           -2.82015800912728       -1.19368602171954       -0.51603875791590
C           -0.45415257425321       -0.40018251192624       -0.46315985773720
O            0.56187119377009        0.14223103765553        0.39122580717946
C            1.77811434735331        0.30029446807793       -0.11558128223291
O            2.06641750961590       -0.00706238170813       -1.25463718413951
C            2.72021588846258        0.90728093577865        0.87919818715051
H           -2.44233419966623        1.51361991300154       -0.18553250905243
H           -1.46318452309806        1.43249874644853        1.28285690418732
H           -3.13673237940651        0.86779105560160        1.30415524653412
H           -1.57167140558564       -1.04729425551435        1.23084223139798
H           -2.49470503841715       -2.19919276023250       -0.76974325240362
H           -3.00784458132657       -0.64929870374616       -1.43842644455879
H           -3.75053301224482       -1.26117534794953        0.04023470298042
H           -0.13120324476704       -1.39073561691887       -0.80092465713076
H           -0.55120439979788        0.24304985330312       -1.34447662859813
H            2.79226558830585        1.97367133505074        0.67470503005174
H            3.70721461542616        0.47133823532656        0.76015462525249
H            2.34297094834237        0.76013504689257        1.88531271711197
20
 energy: -27.125534106779 gnorm: 0.001971967644 xtb: 6.7.1 (edcfbbe)
C           -2.23172831218409        0.92689407993361        0.70122174553958
C           -1.76219291040076       -0.47298417128215        0.31560672057390
C           -2.82090423696065       -1.19728175775769       -0.51093567569478
C           -0.45463462040658       -0.39640821983255       -0.46988087795451
O            0.56270165037991        0.14083163868137        0.38740381847145
C            1.77906330956500        0.30357344830588       -0.11758502232714
O            2.06878451431938        0.00388783299555       -1.25811297773048
C            2.71906500917205        0.90240769084714        0.88410756596829
H           -2.45711005704093        1.50886463012561       -0.19022475722056
H           -1.45716935893893        1.44043293006006        1.26546933996400
H           -3.12809893982564        0.86775560089522        1.31279264934165
H           -1.56364482172738       -1.04260895276548        1.22883353065766
H           -2.49586694495319       -2.20357290168708       -0.76141486561103
H           -3.01374765457254       -0.65727400812500       -1.43467308513696
H           -3.74814468758944       -1.26282911071531        0.05063708378278
H           -0.13247118181712       -1.38521112422257       -0.81306172172059
H           -0.55178361676520        0.25234195142292       -1.34689671299362
H            2.79184804844561        1.97035530884628        0.68780941965951
H            3.70640872563411        0.46748525406131        0.76456752420748
H            2.33898849729868        0.74768690956370        1.88813828773640
20
 energy: -27.125540579380 gnorm: 0.000562898743 xtb: 6.7.1 (edcfbbe)
C           -2.23313398053256        0.92692010012010        0.70267296419902
C           -1.76297644567763       -0.47329961007783        0.31726682936717
C           -2.81951941068548       -1.19631931515616       -0.51323134825880
C           -0.45414214208079       -0.39675763087255       -0.46598932773913
O            0.56226853750621        0.14120726196036        0.39048246525188
C            1.77786789330135        0.30139090098377       -0.11596653268666
O            2.06524190929669        0.00050545923133       -1.25720413740395
C            2.72042295099739        0.90366401531100        0.88163460857314
H           -2.45243839989675        1.51046330577435       -0.18858537490903
H           -1.46197242036288        1.43840156477621        1.27215533168485
H           -3.13278063011974        0.86820959841779        1.30854562170256
H           -1.56706831117877       -1.04383807554380        1.23032615893338
H           -2.49314593198125       -2.20208513824948       -0.76434996171996
H           -3.00963607305551       -0.65476475994189       -1.43662757723289
H           -3.74842320042870       -1.26311189346255        0.04547125831143
H           -0.13222721902798       -1.38619094213933       -0.80810196782657
H           -0.55139951159728        0.25016563009977       -1.34455149621600
H            2.79269154676025        1.97101244298070        0.68284854470547
H            3.70721723425438        0.46787956432940        0.76040231879222
H            2.34251601614133        0.75089455080961        1.88660361198493
20
 energy: -27.125543513364 gnorm: 0.000278721659 xtb: 6.7.1 (edcfbbe)
C           -2.23536035921107        0.92746932185113        0.70274514481081
C           -1.76354018722830       -0.47270922543465        0.31826976206567
C           -2.81811944672670       -1.19682796876294       -0.51387699138456
C           -0.45418638721058       -0.39548500501293       -0.46386496966710
O            0.56214617619112        0.14150689733431        0.39255838614865
C            1.77694443157461        0.30147360673840       -0.11529750430256
O            2.06242265768659        0.00148640334657       -1.25751604096950
C            2.72220876547980        0.90270593251931        0.88070533448707
H           -2.45430217812945        1.50999255328250       -0.18928286845885
H           -1.46508050564946        1.43983766735515        1.27266923796561
H           -3.13556470091998        0.86810429992517        1.30782638092552
H           -1.56834158554807       -1.04282281128650        1.23168920383579
H           -2.49013334879831       -2.20232512698550       -0.76435148683167
H           -3.00687185381879       -0.65554008452334       -1.43780577011549
H           -3.74818001024716       -1.26459659556874        0.04291179285469
H           -0.13266810249218       -1.38485679159414       -0.80682426504631
H           -0.55150596421843        0.25165397418156       -1.34240488200363
H            2.79490374670016        1.97007595643640        0.68252894764850
H            3.70825850181925        0.46587472054353        0.75679413362797
H            2.34633276237923        0.74932930500552        1.88632844392244
20
 energy: -27.125545911890 gnorm: 0.000394803085 xtb: 6.7.1 (edcfbbe)
C           -2.23833684920672        0.92791541336544        0.70227202885699
C           -1.76416997844738       -0.47189558594378        0.31916139302518
C           -2.81665627239668       -1.19773884710633       -0.51416232217392
C           -0.45443006128082       -0.39373323153971       -0.46204397335480
O            0.56238226417343        0.14176088664454        0.39465661421889
C            1.77648854475500        0.30193998301322       -0.11474779038434
O            2.05985655960770        0.00375867102020       -1.25803530346944
C            2.72448277632679        0.90099921736037        0.87998499845417
H           -2.45818050091657        1.50935297382918       -0.19020714749637
H           -1.46906233798595        1.44209176355825        1.27188200881472
H           -3.13851875974745        0.86775535699598        1.30729384842513
H           -1.56941274597459       -1.04132132566273        1.23310769288165
H           -2.48710697465603       -2.20307751870269       -0.76332520297865
H           -3.00420815115835       -0.65736708098408       -1.43892949921236
H           -3.74777788168499       -1.26614476282568        0.04084280675938
H           -0.13325121242821       -1.38278960490710       -0.80632575095662
H           -0.55145189162953        0.25447610099537       -1.33988922804221
H            2.79781694746143        1.96855136725637        0.68313312448156
H            3.70975059854855        0.46329699566031        0.75271012605524
H            2.35114833827264        0.74651625732363        1.88642356560884
20
 energy: -27.125547499432 gnorm: 0.000232971898 xtb: 6.7.1 (edcfbbe)
C           -2.24093512281915        0.92825981221777        0.70181853128503
C           -1.76472873656637       -0.47102035005132        0.31977763718972
C           -2.81551190727280       -1.19863845046973       -0.51419242007291
C           -0.45466986055304       -0.39209205197232       -0.46077950739611
O            0.56276352153509        0.14211321267418        0.39605685668418
C            1.77637343833550        0.30271765951243       -0.11466628493452
O            2.05802509583006        0.00624896871468       -1.25877452178875
C            2.72640885527883        0.89924341920547        0.87952853888821
H           -2.46180110906184        1.50856829814527       -0.19119751001141
H           -1.47235192959222        1.44416335917324        1.27096299966817
H           -3.14102864027512        0.86717292260441        1.30698337008687
H           -1.57007373596292       -1.03968624995913        1.23422602850552
H           -2.48486464209531       -2.20400162876163       -0.76174907337615
H           -3.00198414195483       -0.65945311771834       -1.43986390290973
H           -3.74745266840141       -1.26709357693102        0.03938510488101
H           -0.13372814891371       -1.38081749659959       -0.80617924886185
H           -0.55152163207666        0.25710059395269       -1.33789286354464
H            2.80032120426929        1.96707331109045        0.68429246281129
H            3.71111697421761        0.46104839237289        0.74957831062955
H            2.35500559771129        0.74344000215038        1.88648748177952
20
 energy: -27.125548498999 gnorm: 0.000100925033 xtb: 6.7.1 (edcfbbe)
C           -2.24237670964350        0.92851953276686        0.70119364143317
C           -1.76478795161246       -0.47046866616320        0.32003583569116
C           -2.81487148428282       -1.19937135958314       -0.51370977994020
C           -0.45483478299883       -0.39088939695640       -0.46067480707932
O            0.56307054565031        0.14224498826191        0.39640794865350
C            1.77648842346331        0.30339860549126       -0.11491261677036
O            2.05721765468807        0.00870043724130       -1.25965154024459
C            2.72736142687519        0.89783294420615        0.87961866892119
H           -2.46450892726135        1.50810996670650       -0.19201771532226
H           -1.47410918004352        1.44575783428078        1.26959724463797
H           -3.14206269756151        0.86686552619100        1.30695695422843
H           -1.56970186998765       -1.03857793135134        1.23476992219654
H           -2.48380592399814       -2.20494473732803       -0.75975427373097
H           -3.00087605234005       -0.66143386395488       -1.44020843884849
H           -3.74714834983668       -1.26736704145034        0.03934440544717
H           -0.13411744724579       -1.37933649700348       -0.80703106113527
H           -0.55169561805340        0.25923061748700       -1.33708736128493
H            2.80150952413436        1.96599859874378        0.68615439060725
H            3.71186293838920        0.45963453016849        0.74813466999157
H            2.35674889329755        0.74044294159658        1.88663590206147
20
 energy: -27.125549330268 gnorm: 0.000117966191 xtb: 6.7.1 (edcfbbe)
C           -2.24312172134835        0.92879344704910        0.70069029893922
C           -1.76469723097985       -0.46995498769337        0.31994135277497
C           -2.81453281901958       -1.20014384651124       -0.51300519460640
C           -0.45494805422132       -0.38989849165399       -0.46110954443764
O            0.56329285576316        0.14235806450027        0.39615832683249
C            1.77661712585717        0.30415068865044       -0.11536238870171
O            2.05686236836181        0.01114699466372       -1.26059677169754
C            2.72779163835196        0.89663626520552        0.87997232393753
H           -2.46619637214200        1.50767464947352       -0.19272293558679
H           -1.47497584313731        1.44701989059695        1.26838155244060
H           -3.14244724733155        0.86680317217079        1.30694444450876
H           -1.56888780275989       -1.03744670992031        1.23489420042478
H           -2.48339705600433       -2.20604384469845       -0.75755515180927
H           -3.00031846380436       -0.66348439652293       -1.44025974805758
H           -3.74691389328075       -1.26736399565261        0.03994494860570
H           -0.13441087567124       -1.37808797908076       -0.80833886020276
H           -0.55196947224451        0.26096958572804       -1.33691432523607
H            2.80201979951407        1.96515283484354        0.68846434820270
H            3.71223199811880        0.45861821456240        0.74750660626192
H            2.35736347761034        0.73744747364013        1.88676850692012
20
 energy: -27.125550146182 gnorm: 0.000135203016 xtb: 6.7.1 (edcfbbe)
C           -2.24357841618709        0.92913248521636        0.69996316325974
C           -1.76439696413908       -0.46952087151644        0.31983009277599
C           -2.81425293966610       -1.20091078415798       -0.51202002909097
C           -0.45509796446336       -0.38888291254442       -0.46194399099023
O            0.56342766188120        0.14234687204131        0.39561467831611
C            1.77668845003117        0.30493318329178       -0.11589037703857
O            2.05665034821596        0.01400690516714       -1.26171426237449
C            2.72794557506398        0.89539694667506        0.88055630564647
H           -2.46759000176162        1.50738509661496       -0.19365743494756
H           -1.47541898772441        1.44815231508235        1.26693328158599
H           -3.14249359211906        0.86683087462989        1.30682866596717
H           -1.56754636288555       -1.03635124547982        1.23498781175171
H           -2.48313979540746       -2.20721282815533       -0.75490885427473
H           -3.00011341372789       -0.66577962064414       -1.44014705171016
H           -3.74659049410105       -1.26724164940715        0.04110807646608
H           -0.13479496477697       -1.37678767656198       -0.81018801499377
H           -0.55238678468930        0.26281440280792       -1.33710200811737
H            2.80209448040693        1.96433541551373        0.69142503083360
H            3.71240667463668        0.45771960335406        0.74712951237067
H            2.35754990304530        0.73398051742349        1.88699739407732
20
 energy: -27.125550862224 gnorm: 0.000098084495 xtb: 6.7.1 (edcfbbe)
C           -2.24399778953581        0.92955291428790        0.69924037092890
C           -1.76412867890541       -0.46904322552377        0.31959568895472
C           -2.81400228910760       -1.20185097849523       -0.51096457594454
C           -0.45522629590125       -0.38787966366548       -0.46278699858821
O            0.56354221498279        0.14229537495607        0.39510755139735
C            1.77665866045663        0.30580099265289       -0.11637488392099
O            2.05637142808625        0.01704952970654       -1.26282086136985
C            2.72812187954039        0.89413991139822        0.88117153166583
H           -2.46869594030483        1.50715656263852       -0.19460352728308
H           -1.47593846976848        1.44936765697079        1.26559597071028
H           -3.14262822432491        0.86711801755520        1.30647757204089
H           -1.56625782655896       -1.03515193908935        1.23496583399104
H           -2.48282072871638       -2.20849186154627       -0.75238298783523
H           -3.00005157745889       -0.66812056424052       -1.43984737571363
H           -3.74624994156175       -1.26743990151757        0.04242961381296
H           -0.13517488149828       -1.37548028645908       -0.81215075702834
H           -0.55276281244005        0.26471278339396       -1.33725241436445
H            2.80213509525036        1.96352203293989        0.69456935456202
H            3.71257708197575        0.45680565763541        0.74654512737268
H            2.35789150742271        0.73028401575265        1.88728775612468
20
 energy: -27.125551388164 gnorm: 0.000056672568 xtb: 6.7.1 (edcfbbe)
C           -2.24446285698926        0.92991698813590        0.69854278787002
C           -1.76394515010160       -0.46862709915126        0.31949880640863
C           -2.81374949475810       -1.20257143957143       -0.51012486587469
C           -0.45536413918902       -0.38701040455920       -0.46336457697356
O            0.56365548126517        0.14216348956936        0.39483075764732
C            1.77660158803545        0.30645183723711       -0.11668145922604
O            2.05602646560896        0.01969081520840       -1.26371216679772
C            2.72836685021499        0.89303253860431        0.88164900978381
H           -2.46966726553953        1.50690562233963       -0.19558485996485
H           -1.47647914699344        1.45037948456091        1.26442109144169
H           -3.14290883508539        0.86731203953324        1.30604568152620
H           -1.56524660301924       -1.03403805789041        1.23512120609790
H           -2.48228644764223       -2.20937437385217       -0.75049099295970
H           -3.00022046589229       -0.66993485488866       -1.43955486856551
H           -3.74583582552217       -1.26788870399732        0.04356990483629
H           -0.13555499076900       -1.37435144348461       -0.81367898955188
H           -0.55303909323153        0.26634889154874       -1.33724177969757
H            2.80214109406737        1.96279087844549        0.69723009728238
H            3.71281901063394        0.45607181948628        0.74578074159769
H            2.35851223653919        0.72707900207646        1.88754646463261
20
 energy: -27.125551780513 gnorm: 0.000047716613 xtb: 6.7.1 (edcfbbe)
C           -2.24495175098195        0.93025583623574        0.69794043241761
C           -1.76385754156401       -0.46826990075928        0.31946385867304
C           -2.81350244865255       -1.20318624316731       -0.50948239871700
C           -0.45545214864232       -0.38636116302084       -0.46365794345082
O            0.56377809918980        0.14201336791769        0.39477730934218
C            1.77652424238465        0.30701194607257       -0.11689332996380
O            2.05563448874022        0.02179730613961       -1.26439827437354