
                                 *****************
                                 * O   R   C   A *
                                 *****************

                                            #,                                       
                                            ###                                      
                                            ####                                     
                                            #####                                    
                                            ######                                   
                                           ########,                                 
                                     ,,################,,,,,                         
                               ,,#################################,,                 
                          ,,##########################################,,             
                       ,#########################################, ''#####,          
                    ,#############################################,,   '####,        
                  ,##################################################,,,,####,       
                ,###########''''           ''''###############################       
              ,#####''   ,,,,##########,,,,          '''####'''          '####       
            ,##' ,,,,###########################,,,                        '##       
           ' ,,###''''                  '''############,,,                           
         ,,##''                                '''############,,,,        ,,,,,,###''
      ,#''                                            '''#######################'''  
     '                                                          ''''####''''         
             ,#######,   #######,   ,#######,      ##                                
            ,#'     '#,  ##    ##  ,#'     '#,    #''#        ,####,   ,####,        
            ##       ##  ##   ,#'  ##            #'  '#       #'       #'  '#        
            ##       ##  #######   ##           ,######,      #####,   #    #        
            '#,     ,#'  ##    ##  '#,     ,#' ,#      #,     #,   #   #,  ,#        
             '#######'   ##     ##  '#######'  #'      '#     '####' # '####'        



                #########################################################
                #                        -***-                          #
                #          Department of theory and spectroscopy        #
                #                                                       #
                #                      Frank Neese                      #
                #                                                       #
                #     Directorship, Architecture, Infrastructure        #
                #                    SHARK, DRIVERS                     #
                #        Core code/Algorithms in most modules           #
                #                                                       #
                #        Max Planck Institute fuer Kohlenforschung      #
                #                Kaiser Wilhelm Platz 1                 #
                #                 D-45470 Muelheim/Ruhr                 #
                #                      Germany                          #
                #                                                       #
                #                  All rights reserved                  #
                #                        -***-                          #
                #########################################################


                         Program Version 6.0.0  -   RELEASE  -


 With contributions from (in alphabetic order):
   Daniel Aravena         : Magnetic Suceptibility
   Michael Atanasov       : Ab Initio Ligand Field Theory (pilot matlab implementation)
   Alexander A. Auer      : GIAO ZORA, VPT2 properties, NMR spectrum
   Ute Becker             : All parallelization in ORCA, NUMFREQ, NUMCALC
   Giovanni Bistoni       : ED, misc. LED, open-shell LED, HFLD
   Martin Brehm           : Molecular dynamics
   Dmytro Bykov           : pre 5.0 version of the SCF Hessian
   Marcos Casanova-Páez   : Triplet and SCS-CIS(D). UHF-(DLPNO)-IP/EA/STEOM-CCSD. UHF-CVS-IP/STEOM-CCSD
   Vijay G. Chilkuri      : MRCI spin determinant printing, contributions to CSF-ICE
   Pauline Colinet        : FMM embedding
   Dipayan Datta          : RHF DLPNO-CCSD density
   Achintya Kumar Dutta   : EOM-CC, STEOM-CC
   Nicolas Foglia         : Exact transition moments, OPA infrastructure, MCD improvements
   Dmitry Ganyushin       : Spin-Orbit,Spin-Spin,Magnetic field MRCI
   Miquel Garcia          : C-PCM and meta-GGA Hessian, CCSD/C-PCM, Gaussian charge scheme
   Tiago L. C. Gouveia    : GS-ROHF, GS-ROCIS
   Yang Guo               : DLPNO-NEVPT2, F12-NEVPT2, CIM, IAO-localization
   Andreas Hansen         : Spin unrestricted coupled pair/coupled cluster methods
   Ingolf Harden          : AUTO-CI MPn and infrastructure 
   Benjamin Helmich-Paris : MC-RPA, TRAH-(SCF,CASSCF), AVAS, COSX integrals, SCF dyn. polar.
   Lee Huntington         : MR-EOM, pCC
   Robert Izsak           : Overlap fitted RIJCOSX, COSX-SCS-MP3, EOM
   Riya Kayal             : Wick's Theorem for AUTO-CI, AUTO-CI UHF-CCSDT
   Emily Kempfer          : AUTO-CI, RHF CISDT and CCSDT
   Christian Kollmar      : KDIIS, OOCD, Brueckner-CCSD(T), CCSD density, CASPT2, CASPT2-K, improved NEVPT2
   Axel Koslowski         : Symmetry handling
   Simone Kossmann        : Meta GGA functionals, TD-DFT gradient, OOMP2, (MP2 Hessian; deprecated post 5.0)
   Lucas Lang             : DCDCAS
   Marvin Lechner         : AUTO-CI (C++ implementation), FIC-MRCC
   Spencer Leger          : CASSCF response
   Dagmar Lenk            : GEPOL surface, SMD, ORCA-2-JSON
   Dimitrios Liakos       : Extrapolation schemes; Compound Job, initial MDCI parallelization
   Dimitrios Manganas     : Further ROCIS development; embedding schemes. LFT, Crystal Embedding
   Dimitrios Pantazis     : SARC Basis sets
   Anastasios Papadopoulos: AUTO-CI, single reference methods and gradients
   Taras Petrenko         : pre 6.0 DFT Hessian and TD-DFT gradient, (ASA, deprecated), ECA, 1-Electron XAS/XES, NRVS
   Peter Pinski           : DLPNO-MP2, DLPNO-MP2 Gradient
   Christoph Reimann      : Effective Core Potentials
   Marius Retegan         : Local ZFS, SOC
   Christoph Riplinger    : Optimizer, TS searches, QM/MM, DLPNO-CCSD(T), (RO)-DLPNO pert. Triples
   Michael Roemelt        : Original ROCIS implementation
   Masaaki Saitow         : Open-shell DLPNO-CCSD energy and density
   Barbara Sandhoefer     : DKH picture change effects
   Kantharuban Sivalingam : CASSCF convergence/infrastructure, NEVPT2 and variants, FIC-MRCI
   Bernardo de Souza      : ESD, SOC TD-DFT
   Georgi Stoychev        : AutoAux, RI-MP2 NMR, DLPNO-MP2 response, X2C
   Van Anh Tran           : RI-MP2 g-tensors
   Willem Van den Heuvel  : Paramagnetic NMR
   Zikuan Wang            : NOTCH, Electric field optimization 
   Frank Wennmohs         : Technical directorship and infrastructure
   Hang Xu                : AUTO-CI-Response properties 


 We gratefully acknowledge several colleagues who have allowed us to
 interface, adapt or use parts of their codes:
   Stefan Grimme, W. Hujo, H. Kruse, P. Pracht,  : VdW corrections, initial TS optimization,
                  C. Bannwarth, S. Ehlert,         DFT functionals, gCP, sTDA/sTD-DF
                  L. Wittmann, M. Mueller
   Ed Valeev, F. Pavosevic, A. Kumar             : LibInt (2-el integral package), F12 methods
   Garnet Chan, S. Sharma, J. Yang, R. Olivares  : DMRG
   Ulf Ekstrom                                   : XCFun DFT Library
   Mihaly Kallay                                 : mrcc  (arbitrary order and MRCC methods)
   Frank Weinhold                                : gennbo (NPA and NBO analysis)
   Simon Mueller                                 : openCOSMO-RS
   Christopher J. Cramer and Donald G. Truhlar   : smd solvation model
   Lars Goerigk                                  : TD-DFT with DH, B97 family of functionals
   V. Asgeirsson, H. Jonsson                     : NEB implementation
   FAccTs GmbH                                   : IRC, NEB, NEB-TS, DLPNO-Multilevel, CI-OPT
                                                   MM, QMMM, 2- and 3-layer-ONIOM, Crystal-QMMM,
                                                   LR-CPCM, SF, NACMEs, symmetry and pop. for TD-DFT,
                                                   nearIR, NL-DFT gradient (VV10), updates on ESD,
                                                   ML-optimized integration grids, MBIS, APM,
                                                   GOAT, DOCKER, SOLVATOR, interface openCOSMO-RS
   S Lehtola, MJT Oliveira, MAL Marques          : LibXC Library
   Liviu Ungur et al                             : ANISO software


 Your calculation uses the libint2 library for the computation of 2-el integrals
 For citations please refer to: http://libint.valeyev.net

 Your ORCA version has been built with support for libXC version: 6.2.2
 For citations please refer to: https://libxc.gitlab.io

 This ORCA versions uses:
   CBLAS   interface :  Fast vector & matrix operations
   LAPACKE interface :  Fast linear algebra routines
   SCALAPACK package :  Parallel linear algebra routines
   Shared memory     :  Shared parallel matrices
   BLAS/LAPACK       :  OpenBLAS 0.3.27  USE64BITINT DYNAMIC_ARCH NO_AFFINITY SkylakeX SINGLE_THREADED
        Core in use  :  SkylakeX
   Copyright (c) 2011-2014, The OpenBLAS Project


Your calculation utilizes the geometrical counterpoise correction gCP
Please cite in your paper:
H.Kruse, S. Grimme J.Chem.Phys., 136, (2012), 154101 
   

Your calculation utilizes the atom-pairwise dispersion correction
based on EEQ partial charges (D4)


Your calculation utilizes the SMD solvation module
Please cite in your paper:
A.V. Marenich, C.J. Cramer, D.G. Truhlar J. Phys. Chem. B, 113, (2009), 6378 

================================================================================

----- Orbital basis set information -----
Your calculation utilizes the basis: def2-mTZVPP
   Stefan Grimme, Andreas Hansen, Sebastian Ehlert, and Jan-Michael Mewes 
   J. Chem. Phys. 154, 064103 (2021). DOI: 10.1063/5.0040021

----- AuxJ basis set information -----
Your calculation utilizes the auxiliary basis: def2/J
   F. Weigend, Phys. Chem. Chem. Phys. 8, 1057 (2006).

================================================================================
                                        WARNINGS
                       Please study these warnings very carefully!
================================================================================

Using LibXC functional ID 497 : Re-regularized SCAN exchange by Furness et al
[ 1]  J. W. Furness, A. D. Kaplan, J. Ning, J. P. Perdew, and J. Sun.,  J. Phys. Chem. Lett. 11, 8208-8215 (2020)
[ 2]  J. W. Furness, A. D. Kaplan, J. Ning, J. P. Perdew, and J. Sun.,  J. Phys. Chem. Lett. 11, 9248-9248 (2020)
Using LibXC functional ID 498 : Re-regularized SCAN correlation by Furness et al
[ 1]  J. W. Furness, A. D. Kaplan, J. Ning, J. P. Perdew, and J. Sun.,  J. Phys. Chem. Lett. 11, 8208-8215 (2020)
[ 2]  J. W. Furness, A. D. Kaplan, J. Ning, J. P. Perdew, and J. Sun.,  J. Phys. Chem. Lett. 11, 9248-9248 (2020)
Using LibXC functional ID 497 : Re-regularized SCAN exchange by Furness et al
[ 1]  J. W. Furness, A. D. Kaplan, J. Ning, J. P. Perdew, and J. Sun.,  J. Phys. Chem. Lett. 11, 8208-8215 (2020)
[ 2]  J. W. Furness, A. D. Kaplan, J. Ning, J. P. Perdew, and J. Sun.,  J. Phys. Chem. Lett. 11, 9248-9248 (2020)
Using LibXC functional ID 498 : Re-regularized SCAN correlation by Furness et al
[ 1]  J. W. Furness, A. D. Kaplan, J. Ning, J. P. Perdew, and J. Sun.,  J. Phys. Chem. Lett. 11, 8208-8215 (2020)
[ 2]  J. W. Furness, A. D. Kaplan, J. Ning, J. P. Perdew, and J. Sun.,  J. Phys. Chem. Lett. 11, 9248-9248 (2020)

================================================================================
                                       INPUT FILE
================================================================================
NAME = sp_solv.inp
|  1> ! r2scan-3c def2/J RI DEFGRID2 scfconv6 printgap
|  2> %output
|  3>     printlevel normal
|  4> end
|  5> %cpcm
|  6>     smd true
|  7>     smdsolvent "water"
|  8> end
|  9> * xyz 0 1
| 10> C -2.3974989007 -0.629489163 -1.0050815777
| 11> C -1.843582296 0.2662599204 0.1005054477
| 12> C -1.5450450439 -0.5411614492 1.3619798965
| 13> C -0.5907356014 1.0057050873 -0.3833187436
| 14> O 0.4616177595 0.0892875587 -0.7075693453
| 15> C 1.5484334836 0.0558024435 0.0535658216
| 16> O 1.7235057099 0.7719333802 1.0182313832
| 17> C 2.5321276589 -0.9603468146 -0.4472878631
| 18> H -3.27570755 -1.162592833 -0.6516510441
| 19> H -1.6471622336 -1.355041342 -1.308612856
| 20> H -2.6762779456 -0.0371462977 -1.8725291284
| 21> H -2.5815542935 1.0375460584 0.3422265246
| 22> H -1.0990709621 0.0910907763 2.127252956
| 23> H -0.8509035799 -1.3498147353 1.1410981262
| 24> H -2.4596772439 -0.9738867578 1.7577202409
| 25> H -0.8034282284 1.5555073334 -1.3029562479
| 26> H -0.2272447491 1.6942817881 0.3858816879
| 27> H 2.0270589715 -1.9057220359 -0.6207056673
| 28> H 3.3333269753 -1.0784087691 0.2745211916
| 29> H 2.9386875354 -0.6148538173 -1.394624968
| 30> *
| 31> 
| 32>                          ****END OF INPUT****
================================================================================

                       ****************************
                       * Single Point Calculation *
                       ****************************

---------------------------------
CARTESIAN COORDINATES (ANGSTROEM)
---------------------------------
  C     -2.397499   -0.629489   -1.005082
  C     -1.843582    0.266260    0.100505
  C     -1.545045   -0.541161    1.361980
  C     -0.590736    1.005705   -0.383319
  O      0.461618    0.089288   -0.707569
  C      1.548433    0.055802    0.053566
  O      1.723506    0.771933    1.018231
  C      2.532128   -0.960347   -0.447288
  H     -3.275708   -1.162593   -0.651651
  H     -1.647162   -1.355041   -1.308613
  H     -2.676278   -0.037146   -1.872529
  H     -2.581554    1.037546    0.342227
  H     -1.099071    0.091091    2.127253
  H     -0.850904   -1.349815    1.141098
  H     -2.459677   -0.973887    1.757720
  H     -0.803428    1.555507   -1.302956
  H     -0.227245    1.694282    0.385882
  H      2.027059   -1.905722   -0.620706
  H      3.333327   -1.078409    0.274521
  H      2.938688   -0.614854   -1.394625

----------------------------
CARTESIAN COORDINATES (A.U.)
----------------------------
  NO LB      ZA    FRAG     MASS         X           Y           Z
   0 C     6.0000    0    12.011   -4.530616   -1.189562   -1.899329
   1 C     6.0000    0    12.011   -3.483866    0.503158    0.189928
   2 C     6.0000    0    12.011   -2.919712   -1.022647    2.573769
   3 C     6.0000    0    12.011   -1.116329    1.900507   -0.724367
   4 O     8.0000    0    15.999    0.872331    0.168729   -1.337112
   5 C     6.0000    0    12.011    2.926115    0.105451    0.101225
   6 O     8.0000    0    15.999    3.256954    1.458743    1.924178
   7 C     6.0000    0    12.011    4.785028   -1.814792   -0.845252
   8 H     1.0000    0     1.008   -6.190190   -2.196982   -1.231442
   9 H     1.0000    0     1.008   -3.112686   -2.560657   -2.472920
  10 H     1.0000    0     1.008   -5.057432   -0.070196   -3.538567
  11 H     1.0000    0     1.008   -4.878431    1.960678    0.646714
  12 H     1.0000    0     1.008   -2.076943    0.172137    4.019926
  13 H     1.0000    0     1.008   -1.607975   -2.550780    2.156363
  14 H     1.0000    0     1.008   -4.648116   -1.840379    3.321610
  15 H     1.0000    0     1.008   -1.518259    2.939483   -2.462230
  16 H     1.0000    0     1.008   -0.429430    3.201729    0.729211
  17 H     1.0000    0     1.008    3.830586   -3.601293   -1.172964
  18 H     1.0000    0     1.008    6.299075   -2.037897    0.518770
  19 H     1.0000    0     1.008    5.553315   -1.161905   -2.635459

--------------------------------
INTERNAL COORDINATES (ANGSTROEM)
--------------------------------
 C      0   0   0     0.000000000000     0.00000000     0.00000000
 C      1   0   0     1.526929171935     0.00000000     0.00000000
 C      2   1   0     1.527210379729   111.02880182     0.00000000
 C      2   1   3     1.533130732556   110.54157770   123.45353415
 O      4   2   1     1.432622467933   111.29532695   297.29503317
 C      5   4   2     1.327258985045   119.19847615   248.44362401
 O      6   5   4     1.214114265075   123.97531389   359.20461645
 C      6   5   4     1.500355944013   111.25487398   180.14821621
 H      1   2   3     1.086445165093   110.21507141    55.65932181
 H      1   2   3     1.086996925181   110.08066125   295.71524463
 H      1   2   3     1.086762659996   110.56382280   175.79667909
 H      2   1   3     1.094492601520   109.19061528   240.06490743
 H      3   2   1     1.088245658794   110.72027764   176.84257624
 H      3   2   1     1.088366328777   110.47836592    56.94141448
 H      3   2   1     1.086468441403   110.29623438   297.17130379
 H      4   2   1     1.092361571419   110.44581895    54.66098191
 H      4   2   1     1.094501154138   110.67334686   176.54080010
 H      8   6   5     1.085772730756   109.75689176   310.79504170
 H      8   6   5     1.084835140078   109.62200823   188.88544081
 H      8   6   5     1.087246032268   108.71236814    68.89860845

---------------------------
INTERNAL COORDINATES (A.U.)
---------------------------
 C      0   0   0     0.000000000000     0.00000000     0.00000000
 C      1   0   0     2.885477960853     0.00000000     0.00000000
 C      2   1   0     2.886009366571   111.02880182     0.00000000
 C      2   1   3     2.897197212030   110.54157770   123.45353415
 O      4   2   1     2.707264117695   111.29532695   297.29503317
 C      5   4   2     2.508155990521   119.19847615   248.44362401
 O      6   5   4     2.294343456278   123.97531389   359.20461645
 C      6   5   4     2.835261837585   111.25487398   180.14821621
 H      1   2   3     2.053083821548   110.21507141    55.65932181
 H      1   2   3     2.054126497006   110.08066125   295.71524463
 H      1   2   3     2.053683799965   110.56382280   175.79667909
 H      2   1   3     2.068291272476   109.19061528   240.06490743
 H      3   2   1     2.056486261549   110.72027764   176.84257624
 H      3   2   1     2.056714294770   110.47836592    56.94141448
 H      3   2   1     2.053127807401   110.29623438   297.17130379
 H      4   2   1     2.064264209201   110.44581895    54.66098191
 H      4   2   1     2.068307434582   110.67334686   176.54080010
 H      8   6   5     2.051813104809   109.75689176   310.79504170
 H      8   6   5     2.050041315201   109.62200823   188.88544081
 H      8   6   5     2.054597241180   108.71236814    68.89860845

---------------------
BASIS SET INFORMATION
---------------------
There are 3 groups of distinct atoms

 Group   1 Type C   : 11s6p1d contracted to 5s3p1d pattern {62111/411/1}
 Group   2 Type O   : 11s6p2d contracted to 5s3p2d pattern {62111/411/11}
 Group   3 Type H   : 4s1p contracted to 2s1p pattern {31/1}

Atom   0C    basis set group =>   1
Atom   1C    basis set group =>   1
Atom   2C    basis set group =>   1
Atom   3C    basis set group =>   1
Atom   4O    basis set group =>   2
Atom   5C    basis set group =>   1
Atom   6O    basis set group =>   2
Atom   7C    basis set group =>   1
Atom   8H    basis set group =>   3
Atom   9H    basis set group =>   3
Atom  10H    basis set group =>   3
Atom  11H    basis set group =>   3
Atom  12H    basis set group =>   3
Atom  13H    basis set group =>   3
Atom  14H    basis set group =>   3
Atom  15H    basis set group =>   3
Atom  16H    basis set group =>   3
Atom  17H    basis set group =>   3
Atom  18H    basis set group =>   3
Atom  19H    basis set group =>   3
---------------------------------
AUXILIARY/J BASIS SET INFORMATION
---------------------------------
There are 3 groups of distinct atoms

 Group   1 Type C   : 12s5p4d2f1g contracted to 6s4p3d1f1g pattern {711111/2111/211/2/1}
 Group   2 Type O   : 12s5p4d2f1g contracted to 6s4p3d1f1g pattern {711111/2111/211/2/1}
 Group   3 Type H   : 5s2p1d contracted to 3s1p1d pattern {311/2/1}

Atom   0C    basis set group =>   1
Atom   1C    basis set group =>   1
Atom   2C    basis set group =>   1
Atom   3C    basis set group =>   1
Atom   4O    basis set group =>   2
Atom   5C    basis set group =>   1
Atom   6O    basis set group =>   2
Atom   7C    basis set group =>   1
Atom   8H    basis set group =>   3
Atom   9H    basis set group =>   3
Atom  10H    basis set group =>   3
Atom  11H    basis set group =>   3
Atom  12H    basis set group =>   3
Atom  13H    basis set group =>   3
Atom  14H    basis set group =>   3
Atom  15H    basis set group =>   3
Atom  16H    basis set group =>   3
Atom  17H    basis set group =>   3
Atom  18H    basis set group =>   3
Atom  19H    basis set group =>   3

Checking for AutoStart:
The File: sp_solv.gbw exists
Trying to determine its content:
     ... Fine, the file contains calculation information
     ... Fine, the calculation information was read
     ... Fine, the file contains a basis set
     ... Fine, the basis set was read
     ... Fine, the file contains a geometry
     ... Fine, the geometry was read
     ... Fine, the file contains a set of orbitals
     ... Fine, the orbitals can be read
     => possible old guess file was deleted
     => GBW file was renamed to GES file
     => GES file is set as startup file
     => Guess is set to MORead
     ... now leaving AutoStart

------------------------------------------------------------------------------
                             ORCA STARTUP CALCULATIONS
                           -- RI-GTO INTEGRALS CHOSEN --
------------------------------------------------------------------------------
------------------------------------------------------------------------------
                   ___                                                        
                  /   \      - P O W E R E D   B Y -                         
                 /     \                                                     
                 |  |  |   _    _      __       _____    __    __             
                 |  |  |  | |  | |    /  \     |  _  \  |  |  /  |          
                  \  \/   | |  | |   /    \    | | | |  |  | /  /          
                 / \  \   | |__| |  /  /\  \   | |_| |  |  |/  /          
                |  |  |   |  __  | /  /__\  \  |    /   |      \           
                |  |  |   | |  | | |   __   |  |    \   |  |\   \          
                \     /   | |  | | |  |  |  |  | |\  \  |  | \   \       
                 \___/    |_|  |_| |__|  |__|  |_| \__\ |__|  \__/        
                                                                              
                      - O R C A' S   B I G   F R I E N D -                    
                                      &                                       
                       - I N T E G R A L  F E E D E R -                       
                                                                              
 v1 FN, 2020, v2 2021, v3 2022-2024                                           
------------------------------------------------------------------------------


----------------------
SHARK INTEGRAL PACKAGE
----------------------

Number of atoms                             ...     20
Number of basis functions                   ...    222
Number of shells                            ...    110
Maximum angular momentum                    ...      2
Integral batch strategy                     ... SHARK/LIBINT Hybrid
RI-J (if used) integral strategy            ... SPLIT-RIJ (Revised 2003 algorithm where possible)
Printlevel                                  ...      1
Contraction scheme used                     ... SEGMENTED contraction
Prescreening option                         ... SCHWARTZ
   Thresh                                   ... 1.000e-10
   Tcut                                     ... 1.000e-11
   Tpresel                                  ... 1.000e-11 
Coulomb Range Separation                    ... NOT USED
Exchange Range Separation                   ... NOT USED
Multipole approximations                    ... NOT USED
Finite Nucleus Model                        ... NOT USED
CABS basis                                  ... NOT available
Auxiliary Coulomb fitting basis             ... AVAILABLE
   # of basis functions in Aux-J            ...    524
   # of shells in Aux-J                     ...    180
   Maximum angular momentum in Aux-J        ...      4
Auxiliary J/K fitting basis                 ... NOT available
Auxiliary Correlation fitting basis         ... NOT available
Auxiliary 'external' fitting basis          ... NOT available

Checking pre-screening integrals            ... done (  0.0 sec) Dimension = 110
Check shell pair data                       ... done (  0.0 sec)
Shell pair information
Shell pair cut-off parameter TPreSel        ...   1.0e-11
Total number of shell pairs                 ...      6105
Shell pairs after pre-screening             ...      5477
Total number of primitive shell pairs       ...     21533
Primitive shell pairs kept                  ...     13663
          la=0 lb=0:   1838 shell pairs
          la=1 lb=0:   2067 shell pairs
          la=1 lb=1:    605 shell pairs
          la=2 lb=0:    581 shell pairs
          la=2 lb=1:    333 shell pairs
          la=2 lb=2:     53 shell pairs

Calculating one electron integrals          ... done (  0.0 sec)
Calculating RI/J V-Matrix + Cholesky decomp.... done (  0.1 sec)
Calculating Nuclear repulsion               ... done (  0.0 sec) ENN=    402.334126547032 Eh

Diagonalization of the overlap matrix:
Smallest eigenvalue                        ... 1.637e-04
Time for diagonalization                   ...    0.005 sec
Threshold for overlap eigenvalues          ... 1.000e-07
Number of eigenvalues below threshold      ... 0
Time for construction of square roots      ...    0.018 sec
Total time needed                          ...    0.034 sec

-------------------
DFT GRID GENERATION
-------------------

General Integration Accuracy     IntAcc      ... 4.388
Radial Grid Type                 RadialGrid  ... OptM3 with GC (2021)
Angular Grid (max. ang.)         AngularGrid ... 4 (Lebedev-302)
Angular grid pruning method      GridPruning ... 4 (adaptive)
Weight generation scheme         WeightScheme... mBecke (2022)
Basis function cutoff            BFCut       ... 1.0000e-10
Integration weight cutoff        WCut        ... 1.0000e-14
Partially contracted basis set               ... off
Rotationally invariant grid construction     ... off
Angular grids for H and He will be reduced by one unit
Diffuse basis detected: some atoms will have their outermost
                        angular grid increased by 1.

Total number of grid points                  ...    87276
Total number of batches                      ...     1375
Average number of points per batch           ...       63
Average number of grid points per atom       ...     4364
Initializing property integral containers    ... done (  0.0 sec)

SHARK setup successfully completed in   1.3 seconds

Maximum memory used throughout the entire STARTUP-calculation: 39.6 MB
-------------------------------------------------------------------------------
                                 ORCA GUESS
                   Start orbitals & Density for SCF / CASSCF
-------------------------------------------------------------------------------

------------
SCF SETTINGS
------------
Hamiltonian:
 Density Functional     Method          .... DFT(GTOs)
  Functional kind                       .... Exchange
  Functional name                       .... Re-regularized SCAN exchange by Furness et al
  Functional family                     .... MGGA
  Functional refs                              
    [ 0] J. W. Furness, A. D. Kaplan, J. Ning, J. P. Perdew, and J. Sun.,  J. Phys. Chem. Lett. 11, 8208-8215 (2020), doi: 10.1021/acs.jpclett.0c02405
    [ 1] J. W. Furness, A. D. Kaplan, J. Ning, J. P. Perdew, and J. Sun.,  J. Phys. Chem. Lett. 11, 9248-9248 (2020), doi: 10.1021/acs.jpclett.0c03077
  Functional external parameters        .... 6
    Parameter  0 _c1        =  6.670000e-01 : c1 parameter        
    Parameter  1 _c2        =  8.000000e-01 : c2 parameter        
    Parameter  2 _d         =  1.240000e+00 : d parameter         
    Parameter  3 _k1        =  6.500000e-02 : k1 parameter        
    Parameter  4 _eta       =  1.000000e-03 : eta parameter       
    Parameter  5 _dp2       =  3.610000e-01 : dp2 parameter       
  Functional kind                       .... Correlation
  Functional name                       .... Re-regularized SCAN correlation by Furness et al
  Functional family                     .... MGGA
  Functional refs                              
    [ 0] J. W. Furness, A. D. Kaplan, J. Ning, J. P. Perdew, and J. Sun.,  J. Phys. Chem. Lett. 11, 8208-8215 (2020), doi: 10.1021/acs.jpclett.0c02405
    [ 1] J. W. Furness, A. D. Kaplan, J. Ning, J. P. Perdew, and J. Sun.,  J. Phys. Chem. Lett. 11, 9248-9248 (2020), doi: 10.1021/acs.jpclett.0c03077
  Functional external parameters        .... 1
    Parameter  0 _eta       =  1.000000e-03 : Regularization parameter
 Gradients option       PostSCFGGA      .... off
 RI-approximation to the Coulomb term is turned on
   Number of AuxJ basis functions       .... 524


General Settings:
 Integral files         IntName         .... sp_solv
 Hartree-Fock type      HFTyp           .... RHF
 Total Charge           Charge          ....    0
 Multiplicity           Mult            ....    1
 Number of Electrons    NEL             ....   64
 Basis Dimension        Dim             ....  222
 Nuclear Repulsion      ENuc            ....    402.3341265470 Eh

Convergence Acceleration:
 AO-DIIS                CNVDIIS         .... on
   Start iteration      DIISMaxIt       ....    12
   Startup error        DIISStart       ....  0.200000
   # of expansion vecs  DIISMaxEq       ....     5
   Bias factor          DIISBfac        ....   1.050
   Max. coefficient     DIISMaxC        ....  10.000
 MO-DIIS                CNVKDIIS        .... off
 Trust-Rad. Augm. Hess. CNVTRAH         .... auto
   Auto Start mean grad. ratio tolernc. ....  1.125000
   Auto Start start iteration           ....     1
   Auto Start num. interpolation iter.  ....    10
   Max. Number of Micro iterations      ....    24
   Max. Number of Macro iterations      .... Maxiter - #DIIS iter
   Number of Davidson start vectors     ....     2
   Converg. threshold    (grad. norm)   ....   3.330e-04
   Grad. Scal. Fac. for Micro threshold ....   0.100
   Minimum threshold for Micro iter.    ....   1.000e-02
   NR start threshold (gradient norm)   ....   1.000e-04
   Initial trust radius                 ....   0.400
   Minimum AH scaling param. (alpha)    ....   1.000
   Maximum AH scaling param. (alpha)    .... 1000.000
   Quad. conv. algorithm                .... NR
   White noise on init. David. guess    .... on
   Maximum white noise                  ....   0.010
   Pseudo random numbers                .... off
   Inactive MOs                         .... canonical
   Orbital update algorithm             .... Taylor
   Preconditioner                       .... Diag
   Full preconditioner red. dimension   ....   250
   COSX micro iterations for RIJONX calc.... off
 SOSCF                  CNVSOSCF        .... on
   Start iteration      SOSCFMaxIt      ....   150
   Startup grad/error   SOSCFStart      ....  0.003300
   Hessian update       SOSCFHessUp     .... L-BFGS
 Level Shifting         CNVShift        .... on
   Level shift para.    LevelShift      ....    0.2500
   Turn off err/grad.   ShiftErr        ....    0.0010
 Zerner damping         CNVZerner       .... off
 Static damping         CNVDamp         .... on
   Fraction old density DampFac         ....    0.7000
   Max. Damping (<1)    DampMax         ....    0.9800
   Min. Damping (>=0)   DampMin         ....    0.0000
   Turn off err/grad.   DampErr         ....    0.1000

SCF Procedure:
 Maximum # iterations   MaxIter         ....   125
 SCF integral mode      SCFMode         .... Direct
   Integral package                     .... SHARK and LIBINT hybrid scheme
 Reset frequency        DirectResetFreq ....    20
 Integral Threshold     Thresh          ....  1.000e-10 Eh
 Primitive CutOff       TCut            ....  1.000e-11 Eh

Convergence Tolerance:
 Convergence Check Mode ConvCheckMode   .... Total+1el-Energy
 Convergence forced     ConvForced      .... 0
 Energy Change          TolE            ....  1.000e-06 Eh
 1-El. energy change                    ....  1.000e-03 Eh
 Orbital Gradient       TolG            ....  3.330e-04
 Orbital Rotation angle TolX            ....  3.330e-04
 DIIS Error             TolErr          ....  1.000e-06

---------------------
INITIAL GUESS: MOREAD
---------------------
Guess MOs are being read from file: sp_solv.ges
Input Geometry matches current geometry (good)
Atom 0: N(Shells)= 9 and 6 - projection required
Input basis set needs projection
NBasis(read)= 136
NBasis(calc)= 222
Basis set overlap was calculated
Using GuessMode=FMatrix for the initial guess
C*T matrix was formed
Effective Fockian was calculated
Effective Fockian was diagonalized
Initial density was built
                      ------------------
                      INITIAL GUESS DONE (   0.0 sec)
                      ------------------
             **** ENERGY FILE WAS UPDATED (sp_solv.en.tmp) ****
Finished Guess after   0.3 sec
Maximum memory used throughout the entire GUESS-calculation: 15.4 MB

-------------------------------------------------------------------------------------------
                                      ORCA LEAN-SCF
                              memory conserving SCF solver
-------------------------------------------------------------------------------------------

--------------------
CPCM SOLVATION MODEL
--------------------
CPCM parameters:
  Epsilon                                         ...      78.3550
  Refrac                                          ...       1.3328
  Rsolv                                           ...       1.3000
  Surface type                                    ... GAUSSIAN VDW
  Discretization scheme                           ... Constant charge density
    Threshold for H atoms                         ...       5.0000 (charges/Ang^2)
    Threshold for non-H atoms                     ...       5.0000 (charges/Ang^2)
  Epsilon function type                           ...         CPCM
Solvent:                                          ... WATER
SMD-CDS solvent descriptors:
  Soln                                            ...       1.3328
  Soln25                                          ...       1.3323
  Sola                                            ...       0.0000
  Solb                                            ...       0.0000
  Solg                                            ...       0.0000
  Solc                                            ...       0.0000
  Solh                                            ...       0.0000
Radii:
  Scheme                                          ... Element-dependent radii
  Radius for C  used is    3.4960 Bohr (=   1.8500 Ang.)
  Radius for O  used is    2.8724 Bohr (=   1.5200 Ang.)
  Radius for H  used is    2.2677 Bohr (=   1.2000 Ang.)
Calculating surface                               ...        done! (  0.0s)
Cavity surface points                             ...         1501
Cavity Volume                                     ...     877.2526
Cavity Surface-area                               ...     581.3423
Calculating surface distance matrix               ...        done! (  0.0s)
Performing Cholesky decomposition & store         ...        done! (  0.1s)
Overall time for CPCM initialization              ...                 0.2s

----------------------------------------D-I-I-S--------------------------------------------
Iteration    Energy (Eh)           Delta-E    RMSDP     MaxDP     DIISErr   Damp  Time(sec)
-------------------------------------------------------------------------------------------
               ***  Starting incremental Fock matrix formation  ***
    1    -386.0556861915519562     0.00e+00  4.12e-03  1.98e-01  6.27e-01  0.700   4.1
    2    -386.1154757347356394    -5.98e-02  3.30e-03  1.30e-01  4.41e-01  0.700   3.6
    3    -386.1577890098957937    -4.23e-02  2.41e-03  8.66e-02  3.10e-01  0.700   3.5
    4    -386.1875317267477499    -2.97e-02  1.72e-03  5.87e-02  2.17e-01  0.700   3.4
                               ***Turning on AO-DIIS***
    5    -386.2084178308232936    -2.09e-02  1.24e-03  3.86e-02  1.52e-01  0.700   3.6
    6    -386.2230619454807652    -1.46e-02  8.83e-04  2.64e-02  1.06e-01  0.700   3.3
    7    -386.2333428915099489    -1.03e-02  6.23e-04  1.82e-02  7.42e-02  0.700   3.3
    8    -386.2405487831823052    -7.21e-03  1.46e-03  4.16e-02  5.21e-02  0.000   3.2
                              *** Initializing SOSCF ***
---------------------------------------S-O-S-C-F--------------------------------------
Iteration    Energy (Eh)           Delta-E    RMSDP     MaxDP     MaxGrad    Time(sec)
--------------------------------------------------------------------------------------
    9    -386.2573973336637323    -1.68e-02  1.31e-05  4.32e-04  1.94e-04     3.5
               *** Restarting incremental Fock matrix formation ***
   10    -386.2573975325905735    -1.99e-07  7.48e-06  1.85e-04  5.82e-05     3.7
                  *** Gradient check signals convergence ***

               *****************************************************
               *                     SUCCESS                       *
               *           SCF CONVERGED AFTER  10 CYCLES          *
               *****************************************************


SMD CDS free energy correction energy :                 5.18500     Kcal/mol
Total Energy after SMD CDS correction =              -386.249134706 Eh
             **** ENERGY FILE WAS UPDATED (sp_solv.en.tmp) ****

----------------
TOTAL SCF ENERGY
----------------

Total Energy       :       -386.24913470557073 Eh          -10510.37329 eV

Components:
Nuclear Repulsion  :        402.33412654703153 Eh           10948.06817 eV
Electronic Energy  :       -788.57563255312232 Eh          -21458.23388 eV
One Electron Energy:      -1321.93849558952525 Eh          -35971.77523 eV
Two Electron Energy:        533.36286303640293 Eh           14513.54136 eV
CPCM Dielectric    :         -0.01589152649975 Eh              -0.43243 eV
SMD CDS (Gcds)     :          0.00826282701983 Eh               0.22484 eV

Virial components:
Potential Energy   :       -770.89635091059381 Eh          -20977.15617 eV
Kinetic Energy     :        384.64721620502303 Eh           10466.78287 eV
Virial Ratio       :          2.00416464342665

DFT components:
N(Alpha)           :       32.000044642901 electrons
N(Beta)            :       32.000044642901 electrons
N(Total)           :       64.000089285803 electrons
E(X)               :      -52.085941551776 Eh       
E(C)               :       -2.039827240778 Eh       
E(XC)              :      -54.125768792554 Eh       

CPCM Solvation Model Properties:
Surface-charge          :         -0.04690876893579
Corrected charge        :         -0.00000000000000
Outlying charge corr.   :          0.00016883302850 Eh               0.00459 eV
Free-energy (cav+disp)  :          0.00826282701983 Eh               0.22484 eV

---------------
SCF CONVERGENCE
---------------

  Last Energy change         ...    1.9893e-07  Tolerance :   1.0000e-06
  Last MAX-Density change    ...    1.8509e-04  Tolerance :   1.0000e-05
  Last RMS-Density change    ...    7.4843e-06  Tolerance :   1.0000e-06
  Last DIIS Error            ...    1.9382e-04  Tolerance :   1.0000e-06
  Last Orbital Gradient      ...    5.8189e-05  Tolerance :   3.3300e-04
  Last Orbital Rotation      ...    1.3186e-04  Tolerance :   3.3300e-04


----------------
ORBITAL ENERGIES
----------------

  NO   OCC          E(Eh)            E(eV) 
   0   2.0000     -19.001844      -517.0665 
   1   2.0000     -18.943095      -515.4678 
   2   2.0000     -10.166012      -276.6313 
   3   2.0000     -10.077259      -274.2162 
   4   2.0000     -10.034319      -273.0477 
   5   2.0000     -10.030172      -272.9349 
   6   2.0000     -10.010138      -272.3897 
   7   2.0000     -10.009011      -272.3590 
   8   2.0000      -1.078737       -29.3539 
   9   2.0000      -0.989303       -26.9203 
  10   2.0000      -0.774538       -21.0763 
  11   2.0000      -0.721958       -19.6455 
  12   2.0000      -0.656478       -17.8637 
  13   2.0000      -0.645731       -17.5712 
  14   2.0000      -0.562175       -15.2976 
  15   2.0000      -0.504488       -13.7278 
  16   2.0000      -0.467389       -12.7183 
  17   2.0000      -0.462400       -12.5825 
  18   2.0000      -0.448448       -12.2029 
  19   2.0000      -0.415344       -11.3021 
  20   2.0000      -0.398745       -10.8504 
  21   2.0000      -0.395299       -10.7566 
  22   2.0000      -0.370913       -10.0930 
  23   2.0000      -0.357495        -9.7279 
  24   2.0000      -0.348433        -9.4813 
  25   2.0000      -0.342407        -9.3174 
  26   2.0000      -0.325855        -8.8670 
  27   2.0000      -0.313276        -8.5247 
  28   2.0000      -0.297925        -8.1070 
  29   2.0000      -0.290804        -7.9132 
  30   2.0000      -0.268941        -7.3183 
  31   2.0000      -0.252739        -6.8774 
  32   0.0000      -0.021027        -0.5722 
  33   0.0000       0.073420         1.9979 
  34   0.0000       0.101268         2.7556 
  35   0.0000       0.113433         3.0867 
  36   0.0000       0.133212         3.6249 
  37   0.0000       0.137986         3.7548 
  38   0.0000       0.144159         3.9228 
  39   0.0000       0.145482         3.9588 
  40   0.0000       0.163452         4.4477 
  41   0.0000       0.166633         4.5343 
  42   0.0000       0.171138         4.6569 
*Only the first 10 virtual orbitals were printed.

                    ********************************
                    * MULLIKEN POPULATION ANALYSIS *
                    ********************************

-----------------------
MULLIKEN ATOMIC CHARGES
-----------------------
   0 C :   -0.549859
   1 C :    0.047944
   2 C :   -0.566626
   3 C :   -0.227646
   4 O :   -0.189212
   5 C :    0.483816
   6 O :   -0.523927
   7 C :   -0.560189
   8 H :    0.159319
   9 H :    0.165833
  10 H :    0.159515
  11 H :    0.164555
  12 H :    0.166830
  13 H :    0.165421
  14 H :    0.165460
  15 H :    0.173012
  16 H :    0.186457
  17 H :    0.193008
  18 H :    0.185823
  19 H :    0.200468
Sum of atomic charges:    0.0000000

--------------------------------
MULLIKEN REDUCED ORBITAL CHARGES
--------------------------------
  0 C s       :     3.352217  s :     3.352217
      pz      :     1.029223  p :     3.170921
      px      :     1.092334
      py      :     1.049364
      dz2     :     0.005078  d :     0.026721
      dxz     :     0.004384
      dyz     :     0.007497
      dx2y2   :     0.001951
      dxy     :     0.007811

  1 C s       :     3.038852  s :     3.038852
      pz      :     0.905398  p :     2.867471
      px      :     0.970868
      py      :     0.991204
      dz2     :     0.009849  d :     0.045733
      dxz     :     0.008354
      dyz     :     0.011272
      dx2y2   :     0.004365
      dxy     :     0.011894

  2 C s       :     3.362281  s :     3.362281
      pz      :     1.003516  p :     3.177595
      px      :     1.110883
      py      :     1.063196
      dz2     :     0.005297  d :     0.026750
      dxz     :     0.005016
      dyz     :     0.007217
      dx2y2   :     0.001937
      dxy     :     0.007283

  3 C s       :     3.317642  s :     3.317642
      pz      :     1.129001  p :     2.857253
      px      :     0.830894
      py      :     0.897358
      dz2     :     0.007008  d :     0.052751
      dxz     :     0.008821
      dyz     :     0.011166
      dx2y2   :     0.010034
      dxy     :     0.015723

  4 O s       :     3.697293  s :     3.697293
      pz      :     1.640878  p :     4.461118
      px      :     1.221505
      py      :     1.598735
      dz2     :     0.004011  d :     0.030800
      dxz     :     0.005863
      dyz     :     0.009648
      dx2y2   :     0.006854
      dxy     :     0.004423

  5 C s       :     3.104070  s :     3.104070
      pz      :     0.748122  p :     2.286705
      px      :     0.776309
      py      :     0.762274
      dz2     :     0.028406  d :     0.125410
      dxz     :     0.035572
      dyz     :     0.018956
      dx2y2   :     0.020630
      dxy     :     0.021845

  6 O s       :     3.834300  s :     3.834300
      pz      :     1.397890  p :     4.665469
      px      :     1.767211
      py      :     1.500368
      dz2     :     0.006917  d :     0.024158
      dxz     :     0.003690
      dyz     :     0.007155
      dx2y2   :     0.003301
      dxy     :     0.003095

  7 C s       :     3.373076  s :     3.373076
      pz      :     1.109144  p :     3.162909
      px      :     1.030163
      py      :     1.023602
      dz2     :     0.004208  d :     0.024204
      dxz     :     0.005985
      dyz     :     0.003352
      dx2y2   :     0.003081
      dxy     :     0.007578

  8 H s       :     0.822317  s :     0.822317
      pz      :     0.004304  p :     0.018364
      px      :     0.008486
      py      :     0.005574

  9 H s       :     0.815830  s :     0.815830
      pz      :     0.004200  p :     0.018336
      px      :     0.007163
      py      :     0.006973

 10 H s       :     0.822194  s :     0.822194
      pz      :     0.008454  p :     0.018292
      px      :     0.004137
      py      :     0.005700

 11 H s       :     0.817886  s :     0.817886
      pz      :     0.003669  p :     0.017559
      px      :     0.006867
      py      :     0.007023

 12 H s       :     0.814953  s :     0.814953
      pz      :     0.007258  p :     0.018217
      px      :     0.004969
      py      :     0.005991

 13 H s       :     0.816256  s :     0.816256
      pz      :     0.003850  p :     0.018323
      px      :     0.006727
      py      :     0.007746

 14 H s       :     0.816209  s :     0.816209
      pz      :     0.004614  p :     0.018331
      px      :     0.008785
      py      :     0.004932

 15 H s       :     0.809472  s :     0.809472
      pz      :     0.009084  p :     0.017517
      px      :     0.003119
      py      :     0.005313

 16 H s       :     0.795231  s :     0.795231
      pz      :     0.007895  p :     0.018312
      px      :     0.004026
      py      :     0.006392

 17 H s       :     0.788426  s :     0.788426
      pz      :     0.003895  p :     0.018566
      px      :     0.004967
      py      :     0.009704

 18 H s       :     0.796028  s :     0.796028
      pz      :     0.006872  p :     0.018149
      px      :     0.007910
      py      :     0.003368

 19 H s       :     0.780838  s :     0.780838
      pz      :     0.009582  p :     0.018694
      px      :     0.004754
      py      :     0.004358


------------------------
MULLIKEN OVERLAP CHARGES
------------------------
B(  0-C ,  1-C ) :   0.5783 B(  0-C ,  2-C ) :  -0.2323 B(  0-C ,  3-C ) :  -0.2563 
B(  0-C ,  8-H ) :   0.8051 B(  0-C ,  9-H ) :   0.8811 B(  0-C , 10-H ) :   0.7935 
B(  1-C ,  2-C ) :   0.4191 B(  1-C ,  3-C ) :   0.5063 B(  1-C ,  4-O ) :  -0.0897 
B(  1-C ,  8-H ) :  -0.0935 B(  1-C ,  9-H ) :  -0.0892 B(  1-C , 10-H ) :  -0.0660 
B(  1-C , 11-H ) :   0.8399 B(  1-C , 12-H ) :  -0.0888 B(  1-C , 13-H ) :  -0.0878 
B(  1-C , 14-H ) :  -0.0669 B(  1-C , 15-H ) :  -0.0657 B(  1-C , 16-H ) :  -0.0503 
B(  2-C ,  3-C ) :  -0.1274 B(  2-C , 11-H ) :  -0.0567 B(  2-C , 12-H ) :   0.8039 
B(  2-C , 13-H ) :   0.8472 B(  2-C , 14-H ) :   0.7959 B(  3-C ,  4-O ) :   0.1930 
B(  3-C ,  5-C ) :  -0.2403 B(  3-C , 11-H ) :  -0.1137 B(  3-C , 15-H ) :   0.7893 
B(  3-C , 16-H ) :   0.8094 B(  4-O ,  5-C ) :   0.3778 B(  4-O ,  6-O ) :  -0.2174 
B(  4-O ,  7-C ) :  -0.0648 B(  4-O , 15-H ) :  -0.0835 B(  4-O , 16-H ) :  -0.0572 
B(  5-C ,  6-O ) :   0.9776 B(  5-C ,  7-C ) :   0.5454 B(  5-C , 17-H ) :  -0.0525 
B(  5-C , 18-H ) :  -0.1178 B(  6-O ,  7-C ) :  -0.1164 B(  7-C , 17-H ) :   0.7960 
B(  7-C , 18-H ) :   0.8714 B(  7-C , 19-H ) :   0.7694 


                     *******************************
                     * LOEWDIN POPULATION ANALYSIS *
                     *******************************

----------------------
LOEWDIN ATOMIC CHARGES
----------------------
   0 C :   -0.417691
   1 C :   -0.214759
   2 C :   -0.415377
   3 C :    0.043362
   4 O :   -0.603775
   5 C :    0.365009
   6 O :   -0.502618
   7 C :   -0.334141
   8 H :    0.157881
   9 H :    0.160715
  10 H :    0.158999
  11 H :    0.170344
  12 H :    0.160723
  13 H :    0.161567
  14 H :    0.158801
  15 H :    0.192310
  16 H :    0.200211
  17 H :    0.187899
  18 H :    0.178464
  19 H :    0.192077

-------------------------------
LOEWDIN REDUCED ORBITAL CHARGES
-------------------------------
  0 C s       :     2.968628  s :     2.968628
      pz      :     1.111940  p :     3.386397
      px      :     1.141783
      py      :     1.132674
      dz2     :     0.011183  d :     0.062666
      dxz     :     0.010234
      dyz     :     0.018112
      dx2y2   :     0.004113
      dxy     :     0.019024

  1 C s       :     2.907375  s :     2.907375
      pz      :     1.065369  p :     3.214170
      px      :     1.054744
      py      :     1.094057
      dz2     :     0.019038  d :     0.093213
      dxz     :     0.015879
      dyz     :     0.024395
      dx2y2   :     0.007594
      dxy     :     0.026307

  2 C s       :     2.968012  s :     2.968012
      pz      :     1.093947  p :     3.384816
      px      :     1.153601
      py      :     1.137268
      dz2     :     0.011756  d :     0.062549
      dxz     :     0.011339
      dyz     :     0.017244
      dx2y2   :     0.004534
      dxy     :     0.017676

  3 C s       :     2.861438  s :     2.861438
      pz      :     1.094995  p :     2.975750
      px      :     0.919475
      py      :     0.961280
      dz2     :     0.014981  d :     0.119451
      dxz     :     0.019081
      dyz     :     0.028040
      dx2y2   :     0.021337
      dxy     :     0.036013

  4 O s       :     3.456357  s :     3.456357
      pz      :     1.648827  p :     4.660793
      px      :     1.380416
      py      :     1.631549
      dz2     :     0.069772  d :     0.486625
      dxz     :     0.108202
      dyz     :     0.070653
      dx2y2   :     0.115197
      dxy     :     0.122801

  5 C s       :     2.740251  s :     2.740251
      pz      :     0.879788  p :     2.622449
      px      :     0.880133
      py      :     0.862528
      dz2     :     0.057417  d :     0.272290
      dxz     :     0.081486
      dyz     :     0.045676
      dx2y2   :     0.042909
      dxy     :     0.044802

  6 O s       :     3.547760  s :     3.547760
      pz      :     1.487815  p :     4.735279
      px      :     1.703725
      py      :     1.543738
      dz2     :     0.048243  d :     0.219580
      dxz     :     0.046767
      dyz     :     0.063109
      dx2y2   :     0.026969
      dxy     :     0.034491

  7 C s       :     2.957822  s :     2.957822
      pz      :     1.141401  p :     3.320710
      px      :     1.090666
      py      :     1.088643
      dz2     :     0.009510  d :     0.055608
      dxz     :     0.015333
      dyz     :     0.007081
      dx2y2   :     0.007443
      dxy     :     0.016242

  8 H s       :     0.798006  s :     0.798006
      pz      :     0.010110  p :     0.044113
      px      :     0.020893
      py      :     0.013111

  9 H s       :     0.794904  s :     0.794904
      pz      :     0.009606  p :     0.044381
      px      :     0.017805
      py      :     0.016971

 10 H s       :     0.796975  s :     0.796975
      pz      :     0.020759  p :     0.044025
      px      :     0.009440
      py      :     0.013826

 11 H s       :     0.785928  s :     0.785928
      pz      :     0.009039  p :     0.043728
      px      :     0.017140
      py      :     0.017549

 12 H s       :     0.795264  s :     0.795264
      pz      :     0.017887  p :     0.044013
      px      :     0.011517
      py      :     0.014608

 13 H s       :     0.794171  s :     0.794171
      pz      :     0.008864  p :     0.044262
      px      :     0.016330
      py      :     0.019067

 14 H s       :     0.796977  s :     0.796977
      pz      :     0.010725  p :     0.044222
      px      :     0.021973
      py      :     0.011523

 15 H s       :     0.766633  s :     0.766633
      pz      :     0.022672  p :     0.041056
      px      :     0.006729
      py      :     0.011655

 16 H s       :     0.754680  s :     0.754680
      pz      :     0.019453  p :     0.045110
      px      :     0.010923
      py      :     0.014734

 17 H s       :     0.766951  s :     0.766951
      pz      :     0.009031  p :     0.045150
      px      :     0.012251
      py      :     0.023867

 18 H s       :     0.777485  s :     0.777485
      pz      :     0.017294  p :     0.044051
      px      :     0.019334
      py      :     0.007423

 19 H s       :     0.762506  s :     0.762506
      pz      :     0.024231  p :     0.045417
      px      :     0.010796
      py      :     0.010389


---------------------------------
LOEWDIN BOND ORDERS (THRESH 0.050000)
---------------------------------
B(  0-C ,  1-C ) :   1.1085 B(  0-C ,  2-C ) :   0.0711 B(  0-C ,  3-C ) :   0.0672 
B(  0-C ,  8-H ) :   0.9217 B(  0-C ,  9-H ) :   0.9172 B(  0-C , 10-H ) :   0.9230 
B(  1-C ,  2-C ) :   1.1069 B(  1-C ,  3-C ) :   1.0139 B(  1-C ,  4-O ) :   0.1494 
B(  1-C , 11-H ) :   0.8501 B(  2-C ,  3-C ) :   0.0652 B(  2-C , 12-H ) :   0.9203 
B(  2-C , 13-H ) :   0.9141 B(  2-C , 14-H ) :   0.9212 B(  3-C ,  4-O ) :   1.2974 
B(  3-C ,  5-C ) :   0.0834 B(  3-C ,  6-O ) :   0.0732 B(  3-C , 15-H ) :   0.8179 
B(  3-C , 16-H ) :   0.7987 B(  4-O ,  5-C ) :   1.4627 B(  4-O ,  6-O ) :   0.4518 
B(  4-O ,  7-C ) :   0.1880 B(  4-O , 15-H ) :   0.0960 B(  4-O , 16-H ) :   0.0906 
B(  5-C ,  6-O ) :   2.1436 B(  5-C ,  7-C ) :   0.9813 B(  6-O ,  7-C ) :   0.1856 
B(  7-C , 17-H ) :   0.8934 B(  7-C , 18-H ) :   0.9058 B(  7-C , 19-H ) :   0.8894 


------------------------------------------
LOEWDIN REDUCED ORBITAL POPULATIONS PER MO
-------------------------------------------
THRESHOLD FOR PRINTING IS 0.1%%
                      0         1         2         3         4         5   
                 -19.00184 -18.94310 -10.16601 -10.07726 -10.03432 -10.03017
                   2.00000   2.00000   2.00000   2.00000   2.00000   2.00000
                  --------  --------  --------  --------  --------  --------
 1 C  s               0.0       0.0       0.0       0.0      99.6       0.0
 3 C  s               0.0       0.0       0.0      99.4       0.0       0.0
 4 O  s              99.9       0.0       0.0       0.0       0.0       0.0
 4 O  dxz             0.0       0.0       0.2       0.0       0.0       0.0
 4 O  dx2y2           0.0       0.0       0.1       0.0       0.0       0.0
 4 O  dxy             0.0       0.0       0.0       0.2       0.0       0.0
 5 C  s               0.0       0.0      98.9       0.0       0.0       0.0
 6 O  s               0.0      99.9       0.0       0.0       0.0       0.0
 6 O  pz              0.0       0.0       0.1       0.0       0.0       0.0
 6 O  dyz             0.0       0.0       0.2       0.0       0.0       0.0
 7 C  s               0.0       0.0       0.0       0.0       0.0      99.7

                      6         7         8         9        10        11   
                 -10.01014 -10.00901  -1.07874  -0.98930  -0.77454  -0.72196
                   2.00000   2.00000   2.00000   2.00000   2.00000   2.00000
                  --------  --------  --------  --------  --------  --------
 0 C  s               0.0      99.7       0.0       0.0       9.6       3.9
 0 C  pz              0.0       0.0       0.0       0.0       1.5       0.4
 0 C  px              0.0       0.0       0.1       0.1       0.6       0.0
 0 C  py              0.0       0.0       0.0       0.0       1.0       0.1
 1 C  s               0.0       0.0       0.3       0.2      24.4       4.4
 1 C  pz              0.1       0.0       0.1       0.0       0.1       0.1
 1 C  px              0.0       0.0       0.6       0.3       0.5       0.5
 1 C  py              0.0       0.0       0.0       0.0       0.2       1.0
 2 C  s              99.7       0.0       0.0       0.0       9.4       4.2
 2 C  pz              0.0       0.0       0.1       0.0       2.2       0.3
 2 C  py              0.0       0.0       0.0       0.0       0.8       0.0
 3 C  s               0.0       0.0       4.0       2.0      11.6       1.5
 3 C  pz              0.0       0.0       0.1       0.3       0.2       0.4
 3 C  px              0.0       0.0       3.4       0.8       3.0       1.8
 3 C  py              0.0       0.0       1.8       1.0       0.7       0.2
 3 C  dxy             0.0       0.0       0.3       0.2       0.0       0.1
 4 O  s               0.0       0.0      39.5      18.4       0.5       0.8
 4 O  pz              0.0       0.0       1.8       0.3       0.1       0.1
 4 O  px              0.0       0.0       0.7       0.6       6.6       5.7
 4 O  py              0.0       0.0       0.4       0.1       1.4       2.3
 4 O  dz2             0.0       0.0       0.0       0.2       0.1       0.2
 4 O  dxz             0.0       0.0       0.5       0.8       0.4       0.1
 4 O  dyz             0.0       0.0       0.1       0.1       0.1       0.1
 4 O  dx2y2           0.0       0.0       0.2       0.0       0.0       0.7
 4 O  dxy             0.0       0.0       0.0       0.3       0.2       0.1
 5 C  s               0.0       0.0      17.1       3.2       1.6       5.4
 5 C  pz              0.0       0.0       0.0      14.9       1.8       3.0
 5 C  px              0.0       0.0       3.4       5.0       0.4       3.3
 5 C  py              0.0       0.0       1.3       3.7       1.1       7.0
 5 C  dz2             0.0       0.0       0.1       0.3       0.0       0.0
 5 C  dxz             0.0       0.0       0.7       0.1       0.0       0.0
 5 C  dyz             0.0       0.0       0.3       1.0       0.0       0.0
 5 C  dx2y2           0.0       0.0       0.1       0.5       0.0       0.0
 5 C  dxy             0.0       0.0       0.0       0.0       0.0       0.1
 6 O  s               0.0       0.0      14.3      41.0       0.6       1.7
 6 O  pz              0.0       0.0       2.1       2.0       0.1       0.4
 6 O  px              0.0       0.0       0.2       0.0       0.0       0.1
 6 O  py              0.0       0.0       0.9       1.2       0.1       0.6
 6 O  dz2             0.0       0.0       0.3       0.0       0.1       0.0
 6 O  dxz             0.0       0.0       0.5       0.2       0.0       0.1
 6 O  dyz             0.0       0.0       0.6       0.1       0.2       0.7
 6 O  dx2y2           0.0       0.0       0.0       0.1       0.0       0.2
 7 C  s               0.0       0.0       1.1       0.2       2.2      26.0
 7 C  pz              0.0       0.0       0.1       0.3       0.0       0.0
 7 C  px              0.0       0.0       1.0       0.0       0.3       0.5
 7 C  py              0.0       0.0       0.9       0.2       0.1       0.3
 8 H  s               0.0       0.0       0.0       0.0       1.2       0.7
 9 H  s               0.0       0.0       0.0       0.0       1.3       0.6
10 H  s               0.0       0.0       0.0       0.0       1.2       0.6
11 H  s               0.0       0.0       0.0       0.0       3.2       0.8
11 H  px              0.0       0.0       0.0       0.0       0.1       0.0
11 H  py              0.0       0.0       0.0       0.0       0.1       0.0
12 H  s               0.0       0.0       0.0       0.0       1.2       0.6
13 H  s               0.0       0.0       0.0       0.0       1.2       0.7
14 H  s               0.0       0.0       0.0       0.0       1.2       0.7
15 H  s               0.0       0.0       0.2       0.2       1.7       0.3
15 H  pz              0.0       0.0       0.0       0.0       0.1       0.0
16 H  s               0.0       0.0       0.4       0.1       1.5       0.3
17 H  s               0.0       0.0       0.1       0.0       0.3       4.8
17 H  py              0.0       0.0       0.0       0.0       0.0       0.4
18 H  s               0.0       0.0       0.1       0.0       0.3       4.3
18 H  pz              0.0       0.0       0.0       0.0       0.0       0.2
18 H  px              0.0       0.0       0.0       0.0       0.0       0.2
19 H  s               0.0       0.0       0.1       0.0       0.3       4.8
19 H  pz              0.0       0.0       0.0       0.0       0.0       0.3

                     12        13        14        15        16        17   
                  -0.65648  -0.64573  -0.56217  -0.50449  -0.46739  -0.46240
                   2.00000   2.00000   2.00000   2.00000   2.00000   2.00000
                  --------  --------  --------  --------  --------  --------
 0 C  s               1.9      26.3       2.6       2.5       0.1       0.0
 0 C  pz              0.2       0.8       0.9       3.1       0.0       0.1
 0 C  px              0.1       0.1       0.1       0.9       0.9       0.8
 0 C  py              0.2       0.0       2.4       2.2       0.0       0.8
 0 C  dyz             0.0       0.0       0.0       0.1       0.0       0.0
 1 C  s               0.1       0.0       7.3       6.6       0.0       0.1
 1 C  pz              2.1      12.7       0.0       0.0       0.7       0.0
 1 C  px              2.3       2.9       0.0       0.8       0.7       5.7
 1 C  py              4.6       0.4       8.0       0.0       0.2       0.9
 1 C  dyz             0.0       0.3       0.0       0.0       0.0       0.0
 2 C  s               9.3      17.9       4.2       1.6       0.1       0.3
 2 C  pz              0.0       0.7       1.4       3.2       0.0       1.3
 2 C  px              0.1       0.2       0.1       0.5       0.1       3.3
 2 C  py              0.2       0.0       2.6       1.2       0.5       0.0
 3 C  s              14.7       0.6       1.1       4.7       0.1       0.1
 3 C  pz              0.4       0.9       3.4       0.4       4.5       9.0
 3 C  px              0.0       0.1       7.2       1.5       0.7       0.1
 3 C  py              0.6       0.1       2.7      14.0       0.9       5.0
 3 C  dz2             0.0       0.0       0.0       0.1       0.0       0.1
 3 C  dxz             0.0       0.0       0.0       0.2       0.0       0.0
 3 C  dxy             0.0       0.0       0.4       0.0       0.0       0.0
 4 O  s               0.7       0.1       2.0       4.3       0.1       1.0
 4 O  pz              0.6       0.1       3.4       3.5       2.3      21.0
 4 O  px              9.3       0.2      14.2       4.9       2.1       4.6
 4 O  py              2.7       0.1       1.1       5.2       0.4       1.9
 4 O  dz2             0.6       0.0       0.0       0.1       0.1       0.5
 4 O  dxz             0.1       0.1       0.1       0.1       0.5       0.1
 4 O  dyz             0.0       0.0       0.0       0.1       0.6       0.0
 4 O  dx2y2           0.0       0.0       0.1       0.2       0.7       0.0
 4 O  dxy             1.9       0.1       0.1       0.4       0.0       0.0
 5 C  s               0.5       0.0       2.8       1.5       4.2       0.2
 5 C  pz              0.4       0.0       1.2       0.4       1.0       6.6
 5 C  px              5.3       0.1       1.8       0.3       8.6       3.5
 5 C  py              0.7       0.0       0.1       0.6       1.9       2.9
 5 C  dxz             0.2       0.0       0.0       0.0       0.0       0.1
 6 O  s               0.0       0.0       1.0       2.5       5.9       2.0
 6 O  pz              0.0       0.0       1.0       3.4       8.4       0.2
 6 O  px              0.3       0.0       0.6       1.3       3.2       4.1
 6 O  py              0.0       0.0       0.1       0.1      14.2       5.9
 6 O  dz2             0.1       0.0       0.1       0.1       0.0       0.5
 6 O  dxz             0.1       0.0       0.1       0.1       0.3       0.2
 6 O  dyz             0.0       0.0       0.1       0.0       0.6       0.1
 6 O  dx2y2           0.0       0.0       0.0       0.0       0.4       0.0
 6 O  dxy             0.3       0.0       0.1       0.0       0.0       0.1
 7 C  s              12.3       0.4       2.3       0.1       2.3       0.1
 7 C  pz              0.0       0.0       0.0       0.0       6.2       1.8
 7 C  px              0.5       0.0       1.6       0.1       3.3       0.0
 7 C  py              0.1       0.0       0.7       0.4       8.9       3.2
 7 C  dyz             0.0       0.0       0.0       0.0       0.1       0.0
 7 C  dxy             0.0       0.0       0.0       0.0       0.3       0.0
 8 H  s               0.6       6.0       1.3       1.9       0.4       0.0
 8 H  px              0.0       0.3       0.1       0.1       0.0       0.0
 8 H  py              0.0       0.1       0.0       0.0       0.0       0.0
 9 H  s               0.3       5.9       1.8       1.4       0.0       0.6
 9 H  px              0.0       0.3       0.1       0.1       0.0       0.0
 9 H  py              0.0       0.2       0.0       0.0       0.0       0.0
10 H  s               0.3       6.6       0.8       1.9       0.0       0.0
10 H  pz              0.0       0.4       0.0       0.0       0.0       0.0
10 H  py              0.0       0.2       0.0       0.1       0.0       0.0
11 H  s               0.0       0.0       4.8       3.2       0.4       1.6
11 H  px              0.0       0.0       0.2       0.1       0.0       0.0
11 H  py              0.0       0.0       0.1       0.1       0.0       0.0
12 H  s               1.8       4.8       1.3       1.4       0.0       0.1
12 H  pz              0.1       0.2       0.0       0.0       0.0       0.0
12 H  py              0.1       0.1       0.1       0.1       0.0       0.0
13 H  s               2.1       3.9       2.3       1.2       0.3       0.2
13 H  px              0.1       0.1       0.1       0.0       0.0       0.0
13 H  py              0.1       0.2       0.1       0.0       0.0       0.0
14 H  s               2.3       4.0       2.0       1.0       0.0       1.7
14 H  px              0.1       0.2       0.1       0.1       0.0       0.0
15 H  s               4.3       0.0       0.2       3.6       0.9       4.3
15 H  pz              0.3       0.0       0.0       0.2       0.0       0.1
15 H  py              0.1       0.0       0.0       0.0       0.0       0.0
16 H  s               3.1       0.4       1.4       8.5       1.8       0.1
16 H  pz              0.2       0.0       0.0       0.3       0.0       0.0
16 H  py              0.1       0.0       0.0       0.1       0.0       0.1
17 H  s               2.6       0.1       0.8       0.1       4.3       0.9
17 H  px              0.1       0.0       0.0       0.0       0.2       0.0
17 H  py              0.2       0.0       0.0       0.0       0.1       0.0
18 H  s               3.4       0.1       1.5       0.1       0.8       0.5
18 H  pz              0.1       0.0       0.1       0.0       0.1       0.0
18 H  px              0.2       0.0       0.0       0.0       0.0       0.0
19 H  s               2.9       0.1       0.9       0.0       3.8       0.6
19 H  pz              0.2       0.0       0.0       0.0       0.1       0.0
19 H  py              0.0       0.0       0.0       0.0       0.2       0.0

                     18        19        20        21        22        23   
                  -0.44845  -0.41534  -0.39875  -0.39530  -0.37091  -0.35750
                   2.00000   2.00000   2.00000   2.00000   2.00000   2.00000
                  --------  --------  --------  --------  --------  --------
 0 C  s               0.0       0.0       0.2       0.2       0.0       0.0
 0 C  pz              2.6       0.2       0.0      17.3       0.0       0.5
 0 C  px              1.5       8.9       3.9       0.2       0.6       7.9
 0 C  py              0.1       1.4       5.9       3.8       2.6       8.8
 0 C  dyz             0.0       0.0       0.0       0.1       0.0       0.0
 0 C  dxy             0.0       0.0       0.0       0.0       0.0       0.1
 1 C  s               0.9       0.3       0.0       0.1       0.0       0.1
 1 C  pz              1.6       0.4       7.5       0.0       2.3       3.1
 1 C  px              5.4      10.0       0.0       0.7       0.0       1.0
 1 C  py              0.4       4.2       0.1      10.2       0.1       0.0
 1 C  dx2y2           0.0       0.0       0.0       0.1       0.0       0.0
 2 C  s               0.1       0.1       0.2       0.1       0.0       0.0
 2 C  pz              0.8       5.4       0.3      10.4       0.0       0.0
 2 C  px              3.4       3.9       0.1       5.0       0.3       0.0
 2 C  py              0.5       0.4       6.0       7.5       3.6       9.3
 3 C  s               0.9       0.0       0.0       0.4       0.0       0.2
 3 C  pz              0.2       1.1      11.9       0.8       0.2       0.3
 3 C  px              5.3       0.6       3.8       1.4       0.3       0.4
 3 C  py              0.8       1.5       0.0       2.9       0.2       0.8
 3 C  dyz             0.0       0.0       0.1       0.0       0.0       0.0
 3 C  dxy             0.1       0.1       0.0       0.0       0.0       0.0
 4 O  s               0.2       0.4       0.2       0.3       0.1       0.4
 4 O  pz              0.9       0.0       0.0       0.0       1.8       8.5
 4 O  px              0.6       0.9       1.0       0.2       2.6       3.2
 4 O  py             16.3       0.3       0.0       0.3       0.2       0.1
 4 O  dz2             0.1       0.3       0.0       0.1       0.0       0.0
 4 O  dxz             0.0       0.5       0.5       0.0       0.0       0.1
 4 O  dyz             0.2       0.2       0.2       0.1       0.1       0.0
 4 O  dx2y2           0.0       1.0       0.0       0.2       0.0       0.1
 4 O  dxy             0.8       0.6       0.0       0.3       0.2       0.3
 5 C  s               0.4       0.0       0.2       0.1       0.1       0.1
 5 C  pz              1.1       4.7       1.4       0.1       1.6       0.1
 5 C  px              0.5       1.1       5.1       0.1       1.1       0.0
 5 C  py              8.1       4.6       3.4       1.3       0.2       2.1
 5 C  dxz             0.0       0.0       0.0       0.0       0.2       0.2
 5 C  dyz             0.0       0.0       0.0       0.0       0.2       0.0
 5 C  dx2y2           0.0       0.0       0.1       0.0       0.3       0.1
 6 O  s               6.1       0.1       0.8       0.2       0.4       0.2
 6 O  pz             18.5       1.8       4.7       1.4       3.2       3.4
 6 O  px              0.4       0.8       5.9       0.0       0.4       0.1
 6 O  py              1.5       5.9       0.9       0.0       1.3       0.2
 6 O  dz2             0.2       0.4       0.0       0.0       0.0       0.0
 6 O  dxz             0.0       0.0       0.1       0.1       0.0       0.0
 6 O  dyz             0.1       0.0       0.1       0.0       0.0       0.1
 6 O  dx2y2           0.1       0.1       0.0       0.0       0.0       0.0
 6 O  dxy             0.0       0.0       0.3       0.0       0.1       0.0
 7 C  s               0.2       0.0       0.1       0.0       0.0       0.0
 7 C  pz              0.0       7.4       3.8       0.9      21.4       7.6
 7 C  px              7.0       1.1       0.3       3.3      19.1       0.1
 7 C  py              0.2       6.4       8.9       1.2       1.4      10.6
 7 C  dxz             0.0       0.0       0.0       0.0       0.3       0.2
 7 C  dx2y2           0.0       0.0       0.0       0.0       0.2       0.0
 7 C  dxy             0.0       0.0       0.2       0.0       0.1       0.0
 8 H  s               0.3       1.3       4.0       1.0       1.1       0.5
 8 H  py              0.0       0.1       0.0       0.0       0.0       0.1
 9 H  s               0.9       2.2       0.2       0.0       0.2       8.5
 9 H  pz              0.0       0.0       0.0       0.1       0.0       0.0
10 H  s               0.4       1.3       0.2       9.0       0.2       1.4
10 H  pz              0.0       0.0       0.0       0.1       0.0       0.1
11 H  s               1.6       4.0       0.1       0.8       0.0       0.0
11 H  py              0.1       0.1       0.0       0.0       0.0       0.0
12 H  s               0.6       0.7       0.2       9.8       0.4       1.5
12 H  pz              0.0       0.0       0.0       0.1       0.0       0.1
13 H  s               1.2       1.2       2.0       0.3       1.5       2.2
14 H  s               0.1       2.3       0.6       0.9       0.0       1.1
14 H  pz              0.0       0.0       0.0       0.1       0.0       0.0
15 H  s               1.9       0.7       4.3       1.5       0.2       0.3
16 H  s               0.2       0.0       4.0       0.8       0.0       0.0
16 H  py              0.0       0.0       0.1       0.0       0.0       0.0
17 H  s               0.4       2.0       3.8       1.1       6.7       2.7
17 H  py              0.0       0.0       0.0       0.0       0.2       0.0
18 H  s               1.6       0.7       0.0       0.2      19.6       3.4
18 H  pz              0.1       0.0       0.0       0.0       0.1       0.0
18 H  px              0.0       0.1       0.0       0.0       0.2       0.1
19 H  s               1.0       4.8       0.7       1.6       1.8       6.0
19 H  pz              0.1       0.1       0.0       0.0       0.0       0.1
19 H  px              0.0       0.0       0.0       0.0       0.3       0.1
19 H  py              0.0       0.0       0.1       0.0       0.0       0.0

                     24        25        26        27        28        29   
                  -0.34843  -0.34241  -0.32585  -0.31328  -0.29793  -0.29080
                   2.00000   2.00000   2.00000   2.00000   2.00000   2.00000
                  --------  --------  --------  --------  --------  --------
 0 C  s               0.1       0.0       0.2       0.0       0.0       0.8
 0 C  pz              0.3       4.1       1.8       7.2       3.0      11.4
 0 C  px              0.6      15.1       2.0       4.1       5.8       1.4
 0 C  py              9.9       0.9       0.2       2.2       5.1       8.3
 0 C  dz2             0.1       0.0       0.0       0.1       0.2       0.0
 0 C  dxz             0.1       0.0       0.0       0.0       0.1       0.0
 0 C  dyz             0.0       0.0       0.0       0.0       0.3       0.1
 0 C  dxy             0.0       0.2       0.0       0.3       0.1       0.1
 1 C  s               0.2       0.0       0.2       0.1       0.1       0.0
 1 C  pz              0.6       0.3       0.0       3.8       4.4      10.7
 1 C  px              0.0       0.0       0.5       2.8       8.9       0.9
 1 C  py              0.6       0.1       4.4       0.2       9.9       6.6
 1 C  dz2             0.0       0.1       0.2       0.0       0.3       0.0
 1 C  dxz             0.1       0.1       0.0       0.1       0.0       0.2
 1 C  dyz             0.0       0.0       0.0       0.0       0.5       0.3
 1 C  dxy             0.0       0.0       0.0       0.3       0.2       0.2
 2 C  s               0.1       0.0       0.0       0.0       0.8       0.1
 2 C  pz              0.7       2.7       0.3       8.2       8.4       6.7
 2 C  px              5.9      24.9       2.4       0.7       5.8       0.1
 2 C  py              0.2       0.0      13.1       1.2       6.1       1.1
 2 C  dz2             0.0       0.0       0.1       0.0       0.1       0.1
 2 C  dxz             0.0       0.1       0.2       0.0       0.0       0.1
 2 C  dyz             0.0       0.0       0.0       0.0       0.2       0.1
 2 C  dxy             0.1       0.2       0.0       0.2       0.1       0.1
 3 C  s               0.2       0.1       0.2       0.6       0.1       0.1
 3 C  pz              0.4       0.7       7.8       1.7       0.5       5.4
 3 C  px              2.2       0.7       1.6       5.0       0.7       1.3
 3 C  py              1.2       0.9       0.0       4.5       0.0       2.0
 3 C  dyz             0.0       0.0       0.2       0.2       0.1       0.5
 3 C  dx2y2           0.1       0.0       0.0       0.0       0.1       0.1
 3 C  dxy             0.0       0.0       0.0       0.0       0.1       0.2
 4 O  s               0.6       0.6       1.5       0.5       0.0       0.7
 4 O  pz              0.0       4.6       1.8       9.3       0.5       6.9
 4 O  px              0.3       0.5       0.7       0.4       0.6       0.0
 4 O  py             11.7       1.2      13.3       0.4       1.5       4.8
 4 O  dz2             0.2       0.2       0.0       0.4       0.0       0.0
 4 O  dxz             0.1       0.1       0.2       0.0       0.0       0.1
 4 O  dyz             0.0       0.1       0.6       0.0       0.0       0.7
 4 O  dx2y2           0.0       0.1       0.1       0.7       0.0       0.2
 4 O  dxy             0.0       0.0       0.3       0.1       0.1       0.0
 5 C  s               0.1       0.1       0.2       0.1       0.0       0.1
 5 C  pz              2.2       0.5       0.6       1.3       0.1       0.4
 5 C  px              1.9       0.2       0.5       0.2       0.2       0.4
 5 C  py              0.3       0.5       2.2       0.6       0.0       0.0
 5 C  dz2             0.3       0.1       0.1       0.5       0.0       0.1
 5 C  dxz             0.0       0.0       0.2       0.0       0.0       0.0
 5 C  dyz             0.0       0.0       0.2       0.0       0.0       0.1
 5 C  dx2y2           0.2       0.0       0.1       0.0       0.0       0.0
 5 C  dxy             0.1       0.0       0.5       0.0       0.0       0.0
 6 O  s               0.1       0.1       0.2       0.1       0.0       0.2
 6 O  pz              0.7       0.4      12.0       2.4       0.1       0.8
 6 O  px              3.0       0.2       3.5       1.9       0.1       0.9
 6 O  py              7.0       1.4       2.8       9.2       0.1       0.2
 6 O  dz2             0.1       0.0       0.0       0.1       0.0       0.1
 6 O  dxy             0.0       0.0       0.1       0.1       0.0       0.2
 7 C  pz              3.7       0.0       0.2       0.5       0.0       0.0
 7 C  px             12.0       1.8       0.2       0.1       0.5       0.1
 7 C  py              4.2       0.2       2.1       0.2       0.1       0.0
 7 C  dz2             0.2       0.0       0.0       0.0       0.0       0.0
 8 H  s               0.7       9.2       0.4       7.3       0.1       0.3
 8 H  pz              0.0       0.0       0.0       0.0       0.0       0.1
 9 H  s               3.2       3.3       0.1       1.0       6.4       1.5
 9 H  px              0.0       0.0       0.0       0.0       0.0       0.1
 9 H  py              0.0       0.2       0.0       0.1       0.0       0.0
10 H  s               2.9       0.7       0.6       3.8       7.3       0.7
10 H  px              0.0       0.2       0.0       0.1       0.0       0.0
10 H  py              0.0       0.0       0.0       0.0       0.0       0.1
[...]
 3 C  s               0.1       1.4       0.4       0.2       6.3       0.3
 3 C  pz              2.9       0.1       0.3       0.0       0.0       0.0
 3 C  px              0.5       4.1       1.0       0.3       0.0       0.0
 3 C  py              0.1       3.6       1.0       0.2       0.0       0.0
 3 C  dz2             0.1       2.7       0.7       0.1       0.0       0.0
 3 C  dxz             0.0       1.3       0.4       0.2       0.0       0.0
 3 C  dyz             7.5       1.1       0.0       0.0       0.0       0.0
 3 C  dx2y2           0.5       0.2       0.1       0.0       0.0       0.0
 3 C  dxy             0.1       6.9       2.1       0.5       0.0       0.0
 4 O  s               3.5      26.0       5.0       1.2       0.0       0.0
 4 O  pz              2.5       3.6       4.0       0.1       0.0       0.0
 4 O  px              0.1       3.8      24.8       0.5       0.0       0.0
 4 O  py              1.2       6.9       2.2       0.4       0.0       0.0
 4 O  dz2             1.8       4.1       0.3       0.5       0.0       0.0
 4 O  dxz             0.5       0.3      20.3       0.1       0.0       0.0
 4 O  dyz             1.4       1.3       0.5       0.2       0.0       0.0
 4 O  dx2y2           0.5       4.2       7.9       0.1       0.0       0.0
 4 O  dxy             0.6      15.1       1.4       1.7       0.0       0.0
 5 C  s               0.6       0.4       3.0       5.4       0.1       0.5
 5 C  pz              0.3       0.8       2.0       4.9       0.0       0.0
 5 C  px              0.4       0.9       4.9       0.2       0.0       0.0
 5 C  py              0.1       0.1       0.0       2.6       0.0       0.0
 5 C  dz2             2.3       0.0       0.0       1.3       0.0       0.0
 5 C  dxz             2.3       1.3       8.3       0.3       0.0       0.0
 5 C  dyz             0.0       0.1       0.2       4.5       0.0       0.0
 5 C  dx2y2           0.0       0.8       3.9       0.5       0.0       0.0
 5 C  dxy             3.6       0.0       0.1       0.1       0.0       0.0
 6 O  s               3.9       1.0       0.5      18.9       0.0       0.0
 6 O  pz              0.5       0.7       0.1      13.4       0.0       0.0
 6 O  px              6.4       0.1       0.1       0.6       0.0       0.0
 6 O  py              1.0       0.2       0.3       7.3       0.0       0.0
 6 O  dz2             0.1       0.7       0.1       6.6       0.0       0.0
 6 O  dxz             7.3       0.3       0.5       1.4       0.0       0.0
 6 O  dyz             1.2       1.1       0.5      21.3       0.0       0.0
 6 O  dx2y2           4.4       0.1       0.2       2.8       0.0       0.0
 6 O  dxy             0.6       0.4       0.9       0.9       0.0       0.0
 7 C  s               0.0       0.0       0.1       0.0      89.9       3.0
 7 C  pz              0.1       0.0       0.0       0.1       0.0       0.0
 7 C  px              0.7       0.0       0.1       0.0       0.0       0.0
 7 C  py              0.3       0.0       0.1       0.0       0.0       0.0
 7 C  dz2             0.2       0.0       0.0       0.0       0.0       0.0
 7 C  dxz             1.7       0.1       0.3       0.2       0.0       0.0
 7 C  dxy             0.4       0.0       0.0       0.0       0.0       0.0
 8 H  s               0.1       0.0       0.0       0.0       0.0       0.0
 8 H  px              0.2       0.0       0.0       0.0       0.0       0.0
 9 H  s               0.4       0.0       0.0       0.0       0.0       0.0
 9 H  px              0.3       0.0       0.0       0.0       0.0       0.0
 9 H  py              0.7       0.0       0.0       0.0       0.0       0.0
11 H  s               1.9       0.1       0.0       0.0       0.0       0.0
11 H  px              2.7       0.1       0.0       0.0       0.0       0.0
11 H  py              2.3       0.1       0.0       0.0       0.0       0.0
13 H  s               0.4       0.0       0.0       0.0       0.0       0.0
13 H  px              0.4       0.0       0.0       0.0       0.0       0.0
13 H  py              0.5       0.0       0.0       0.0       0.0       0.0
14 H  px              0.1       0.0       0.0       0.0       0.0       0.0
15 H  s               2.0       0.5       0.0       0.0       0.0       0.0
15 H  pz              2.7       1.2       0.1       0.0       0.0       0.0
15 H  px              0.1       0.1       0.0       0.0       0.0       0.0
15 H  py              2.1       0.0       0.0       0.0       0.0       0.0
16 H  s               1.8       0.2       0.2       0.0       0.0       0.0
16 H  pz              1.9       0.2       0.1       0.0       0.0       0.0
16 H  px              2.8       0.4       0.3       0.0       0.0       0.0
16 H  py              0.9       0.0       0.0       0.0       0.0       0.0
18 H  s               0.6       0.0       0.1       0.1       0.0       0.0
18 H  pz              0.5       0.0       0.0       0.1       0.0       0.0
18 H  px              0.5       0.0       0.0       0.0       0.0       0.0

                    216       217       218       219       220       221   
                  22.04723  22.11286  22.15655  22.24618  43.67746  43.76471
                   0.00000   0.00000   0.00000   0.00000   0.00000   0.00000
                  --------  --------  --------  --------  --------  --------
 0 C  s              17.4       0.7       9.6       0.2       0.0       0.0
 1 C  s               0.6      38.7      36.2      11.8       0.0       0.0
 2 C  s              78.8       4.8       0.6       0.3       0.0       0.0
 3 C  s               2.0      46.7      43.6       0.6       0.0       0.0
 4 O  s               0.0       0.1       0.0       0.1       0.4      99.5
 5 C  s               0.0       3.9       8.5      86.1       0.0       0.0
 6 O  s               0.0       0.0       0.0       0.2      99.5       0.4
 7 C  s               0.8       4.7       1.1       0.1       0.0       0.0



                      *****************************
                      * MAYER POPULATION ANALYSIS *
                      *****************************

  NA   - Mulliken gross atomic population
  ZA   - Total nuclear charge
  QA   - Mulliken gross atomic charge
  VA   - Mayer's total valence
  BVA  - Mayer's bonded valence
  FA   - Mayer's free valence

  ATOM       NA         ZA         QA         VA         BVA        FA
  0 C      6.5499     6.0000    -0.5499     3.8057     3.8057     0.0000
  1 C      5.9521     6.0000     0.0479     3.5306     3.5306     0.0000
  2 C      6.5666     6.0000    -0.5666     3.7410     3.7410    -0.0000
  3 C      6.2276     6.0000    -0.2276     3.5860     3.5860     0.0000
  4 O      8.1892     8.0000    -0.1892     1.9066     1.9066     0.0000
  5 C      5.5162     6.0000     0.4838     3.7464     3.7464     0.0000
  6 O      8.5239     8.0000    -0.5239     1.8882     1.8882     0.0000
  7 C      6.5602     6.0000    -0.5602     3.8527     3.8527    -0.0000
  8 H      0.8407     1.0000     0.1593     0.9602     0.9602     0.0000
  9 H      0.8342     1.0000     0.1658     0.9610     0.9610     0.0000
 10 H      0.8405     1.0000     0.1595     0.9606     0.9606     0.0000
 11 H      0.8354     1.0000     0.1646     0.9560     0.9560     0.0000
 12 H      0.8332     1.0000     0.1668     0.9571     0.9571    -0.0000
 13 H      0.8346     1.0000     0.1654     0.9610     0.9610     0.0000
 14 H      0.8345     1.0000     0.1655     0.9587     0.9587     0.0000
 15 H      0.8270     1.0000     0.1730     0.9493     0.9493     0.0000
 16 H      0.8135     1.0000     0.1865     0.9520     0.9520     0.0000
 17 H      0.8070     1.0000     0.1930     0.9504     0.9504    -0.0000
 18 H      0.8142     1.0000     0.1858     0.9549     0.9549    -0.0000
 19 H      0.7995     1.0000     0.2005     0.9469     0.9469    -0.0000

  Mayer bond orders larger than 0.100000
B(  0-C ,  1-C ) :   0.9318 B(  0-C ,  8-H ) :   0.9700 B(  0-C ,  9-H ) :   0.9838 
B(  0-C , 10-H ) :   0.9675 B(  1-C ,  2-C ) :   0.8676 B(  1-C ,  3-C ) :   0.9534 
B(  1-C , 11-H ) :   0.9409 B(  2-C , 12-H ) :   0.9705 B(  2-C , 13-H ) :   0.9782 
B(  2-C , 14-H ) :   0.9669 B(  3-C ,  4-O ) :   0.7799 B(  3-C , 15-H ) :   0.9527 
B(  3-C , 16-H ) :   0.9557 B(  4-O ,  5-C ) :   1.0787 B(  5-C ,  6-O ) :   1.7635 
B(  5-C ,  7-C ) :   0.9571 B(  7-C , 17-H ) :   0.9470 B(  7-C , 18-H ) :   0.9825 
B(  7-C , 19-H ) :   0.9319 

-------
TIMINGS
-------

Total SCF time: 0 days 0 hours 0 min 35 sec 

Total time                  ....      35.793 sec
Sum of individual times     ....      35.156 sec  ( 98.2%)

SCF preparation             ....       0.421 sec  (  1.2%)
Fock matrix formation       ....      33.604 sec  ( 93.9%)
  Startup                   ....       0.069 sec  (  0.2% of F)
  Split-RI-J                ....       5.386 sec  ( 16.0% of F)
  XC integration            ....      21.008 sec  ( 62.5% of F)
    Basis function eval.    ....       3.724 sec  ( 17.7% of XC)
    Density eval.           ....       6.296 sec  ( 30.0% of XC)
    XC-Functional eval.     ....       2.549 sec  ( 12.1% of XC)
    XC-Potential eval.      ....       6.963 sec  ( 33.1% of XC)
  CPCM terms                ....       6.492 sec  ( 19.3% of F)
Diagonalization             ....       0.000 sec  (  0.0%)
Density matrix formation    ....       0.297 sec  (  0.8%)
Total Energy calculation    ....       0.072 sec  (  0.2%)
Population analysis         ....       0.134 sec  (  0.4%)
Orbital Transformation      ....       0.064 sec  (  0.2%)
Orbital Orthonormalization  ....       0.000 sec  (  0.0%)
DIIS solution               ....       0.510 sec  (  1.4%)
  MO trafo                  ....       0.000 sec  (  0.0 % of DIIS)
  Orb grad                  ....       0.000 sec  (  0.0 % of DIIS)
  Energy W gradient         ....       0.000 sec  (  0.0 % of DIIS)
  DIIS error                ....       0.015 sec  (  2.9 % of DIIS)
  DIIS work                 ....       0.433 sec  ( 85.0 % of DIIS)
  Form Q                    ....       0.000 sec  (  0.0 % of DIIS)
  Form QpQm                 ....       0.000 sec  (  0.0 % of DIIS)
  Exp/Cayley                ....       0.000 sec  (  0.0 % of DIIS)
  Orb update                ....       0.000 sec  (  0.0 % of DIIS)
  Wake-sleep                ....       0.027 sec  (  5.3 % of DIIS)
SOSCF solution              ....       0.054 sec  (  0.2%)
  MO trafo                  ....       0.042 sec  ( 77.5 % of SOSCF)
  Orb grad                  ....       0.001 sec  (  1.1 % of SOSCF)
  Rot update                ....       0.000 sec  (  0.1 % of SOSCF)
  Step                      ....       0.011 sec  ( 21.1 % of SOSCF)
Finished LeanSCF after  35.9 sec

Maximum memory used throughout the entire LEANSCF-calculation: 30.7 MB


-------------------------------------------------------------------------------
                          DFT DISPERSION CORRECTION                            
                                                                               
                                DFTD4 V3.4.0                                   
-------------------------------------------------------------------------------
The R2SCAN3C composite method is recognized
Using three-body term ABC
Active option DFTDOPT                   ...         5   

-------------------------   ----------------
Dispersion correction           -0.005416975
-------------------------   ----------------

------------------   -----------------
gCP correction             0.012034542
------------------   -----------------

-------------------------   --------------------
FINAL SINGLE POINT ENERGY      -386.242517139554
-------------------------   --------------------


------------------------------------------------------------------------------
                              ORCA PROPERTY CALCULATIONS
------------------------------------------------------------------------------

GBWName                                 ... sp_solv.gbw
Number of atoms                         ...     20
Number of basis functions               ...    222
Max core memory                         ...   1024 MB

Electric properties:
Dipole moment                           ... YES
Quadrupole moment                       ...  NO
Static polarizability (Dipole/Dipole)   ...  NO
Static polarizability (Dipole/Quad.)    ...  NO
Static polarizability (Quad./Quad.)     ...  NO
Static polarizability (Velocity)        ...  NO

Atomic electric properties:
Dipole moment                           ...  NO
Quadrupole moment                       ...  NO
Static polarizability                   ...  NO

Choice of electric origin               ... Center of mass
Position of electric origin             ...    -0.000026    -0.000012    -0.000004

General magnetic properties:
Magnetizability                         ...  NO

EPR properties:
g-Tensor (aka g-matrix)                 ...  NO
Zero-Field splitting spin-orbit         ...  NO
Zero-field splitting spin-spin          ...  NO
Hyperfine couplings                     ...  NO (   0 nuclei)
Quadrupole couplings                    ...  NO (   0 nuclei)
Contact density                         ...  NO (   0 nuclei)

NMR properties:
Chemical shifts                         ...  NO (   0 nuclei)
Spin-rotation constants                 ...  NO (   0 nuclei)
Spin-spin couplings                     ...  NO (   0 nuclei,    0 pairs)

Choice of magnetic origin               ... GIAO
Position of magnetic origin             ...     0.000000     0.000000     0.000000

Properties with geometric perturbations:
SCF Hessian                             ...  NO
IR spectrum                             ...  NO
VCD spectrum                            ...  NO
X-ray spectroscopy properties:
SCF XES/XAS/RIXS spectra                ...  NO


-------------
DIPOLE MOMENT
-------------

Method             : SCF
Type of density    : Electron Density
Multiplicity       :   1
Irrep              :   0
Energy             :  -386.2491347055707251 Eh
Relativity type    : 
Basis              : AO
                                X                 Y                 Z
Electronic contribution:      6.217646857       3.352192303       0.155725246
Nuclear contribution   :     -6.836811385      -3.832813090      -1.048372226
                        -----------------------------------------
Total Dipole Moment    :     -0.619164527      -0.480620787      -0.892646979
                        -----------------------------------------
Magnitude (a.u.)       :      1.187930841
Magnitude (Debye)      :      3.019480236



--------------------
Rotational spectrum 
--------------------
 
Rotational constants in cm-1:             0.119111             0.040596             0.037717 
Rotational constants in MHz :          3570.864834          1217.027636          1130.727042 

Dipole components along the rotational axes: 
x,y,z [a.u.] :     0.665245     0.979097     0.099993 
x,y,z [Debye]:     1.690919     2.488666     0.254162 

 

Dipole moment calculation done in   0.0 sec 

Maximum memory used throughout the entire PROP-calculation: 14.1 MB

--------------------------------
SUGGESTED CITATIONS FOR THIS RUN
--------------------------------

Below you find a list of papers that are relevant to this ORCA run
We neither can nor want to force you to cite these papers, but we appreciate if you do
You receive ORCA, which is the product of decades of hard work by many enthusiastic individuals, for free
The only thing we kindly ask in return is that you cite our papers,
We deeply appreciate it, if you show your appreciation for ORCA by not just citing the generic ORCA reference.

Please note that relegating all ORCA citations to the supporting information does *not* help us.
SI sections are not indexed - citations you put there will not count into any citation statistics
But we need these citations in order to attract the funding resources that allow us to do what we are doing

Therefore, if you are a happy ORCA user, please consider citing a few of the papers listed below in the main body of your paper

In addition to the list printed below, the program has created the file sp_solv.bibtex that contains the list in bibtex format
You can import this file easily into all common literature databanks and citation aid programs


List of essential papers. We consider these as the minimum necessary citations

  1. Neese,F.
     Software update: the ORCA program system, version 5.0
     WIRES Comput. Molec. Sci., 2022 12(1)e1606
     doi.org/10.1002/wcms.1606
  2. Grimme,S.; Hansen,A.; Ehlert,S.; Mewes,J.
     r2SCAN-3c: A 'Swiss army knife' composite electronic-structure method
     J. Chem. Phys., 2021 154 064103
     doi.org/10.1063/5.0040021

List of papers to cite with high priority. The work reported in these papers was absolutely
necessary for this run to complete.
Our perspective: the developers of density functionals and basis sets usually get cited in chemistry papers
Good! But without the algorithms to do something with them, the functionals or basis sets would not do anything.
Hence, in our opinion, the algorithm design and method developments papers are equally worthy of getting cited

  1. Neese,F.
     An improvement of the resolution of the identity approximation for the formation of the Coulomb matrix
     J. Comp. Chem., 2003 24(14)1740-1747
     doi.org/10.1002/jcc.10318
  2. Garcia-Rates,M.; Neese,F.
     Effect of the Solute Cavity on the Solvation Energy and its Derivatives within the Framework of the Gaussian Charge Scheme
     J. Comput. Chem., 2020 41 922-939
     doi.org/10.1002/jcc.26139
  3. Neese,F.
     The SHARK Integral Generation and Digestion System
     J. Comp. Chem., 2022  1-16
     doi.org/10.1002/jcc.26942
  4. Lehtola,S.; Steigemann,C.; Oliveira,M.; Marques,M.
     Recent developments in Libxc - A comprehensive library of functionals for density functional theory
     Software X, 2018 7 
     doi.org/10.1016/j.softx.2017.11.002
  5. Caldeweyher,E.; Bannwarth,C.; Grimme,S.
     Extension of the D3 dispersion coefficient model
     J. Chem. Phys., 2017 147 034112-XXXX
     doi.org/10.1063/1.4993215
  6. Caldeweyher,E.; Ehlert,S.; Hansen,A.; Neugebauer,H.; Spicher,S.; Bannwarth,C.; Grimme,S.
     A generally applicable atomic-charge dependent London dispersion correction
     J. Chem. Phys., 2019 150 154122-XXXX
     doi.org/10.1063/1.5090222
  7. Caldeweyher,E.; Mewes,J.; Ehlert,S.; Grimme,S.
     Extension and evaluation of the D4 London-dispersion model for periodic systems
     Phys. Chem. Chem. Phys., 2020 22(16)8499-8512
     doi.org/10.1039/D0CP00502A

List of suggested additional citations. These are papers that are important in the 'surrounding' of 
of this run, or papers that preceded the highly important papers. If you like your results we are grateful for a citation.

  1. Neese,F.
     The ORCA program system
     WIRES Comput. Molec. Sci., 2012 2(1)73-78
     doi.org/10.1002/wcms.81
  2. Neese,F.
     Software update: the ORCA program system, version 4.0
     WIRES Comput. Molec. Sci., 2018 8(1)1-6
     doi.org/10.1002/wcms.1327
  3. Neese,F.; Wennmohs,F.; Becker,U.; Riplinger,C.
     The ORCA quantum chemistry program package
     J. Chem. Phys., 2020 152 Art. No. L224108
     doi.org/10.1063/5.0004608

List of optional additional citations

  1. Neese,F.
     Approximate second-order SCF convergence for spin unrestricted wavefunctions
     Chem. Phys. Lett., 2000 325(1-3)93-98
     doi.org/10.1016/s0009-2614(00)00662-x

Timings for individual modules:

Sum of individual times          ...       37.757 sec (=   0.629 min)
Startup calculation              ...        1.376 sec (=   0.023 min)   3.6 %
SCF iterations                   ...       36.268 sec (=   0.604 min)  96.1 %
Property calculations            ...        0.113 sec (=   0.002 min)   0.3 %
                             ****ORCA TERMINATED NORMALLY****
TOTAL RUN TIME: 0 days 0 hours 0 minutes 39 seconds 129 msec
