      -----------------------------------------------------------      
     |                   =====================                   |     
     |                           x T B                           |     
     |                   =====================                   |     
     |                         S. Grimme                         |     
     |          Mulliken Center for Theoretical Chemistry        |     
     |                    University of Bonn                     |     
      -----------------------------------------------------------      

   * xtb version 6.7.1 (edcfbbe) compiled by 'albert@albert-system' on 2024-07-22

   xtb is free software: you can redistribute it and/or modify it under
   the terms of the GNU Lesser General Public License as published by
   the Free Software Foundation, either version 3 of the License, or
   (at your option) any later version.
   
   xtb is distributed in the hope that it will be useful,
   but WITHOUT ANY WARRANTY; without even the implied warranty of
   MERCHANTABILITY or FITNESS FOR A PARTICULAR PURPOSE.  See the
   GNU Lesser General Public License for more details.
   
   Cite this work as:
   * C. Bannwarth, E. Caldeweyher, S. Ehlert, A. Hansen, P. Pracht,
     J. Seibert, S. Spicher, S. Grimme, WIREs Comput. Mol. Sci., 2020, 11,
     e01493. DOI: 10.1002/wcms.1493
   
   for GFN2-xTB:
   * C. Bannwarth, S. Ehlert and S. Grimme., J. Chem. Theory Comput., 2019,
     15, 1652-1671. DOI: 10.1021/acs.jctc.8b01176
   for GFN1-xTB:
   * S. Grimme, C. Bannwarth, P. Shushkov, J. Chem. Theory Comput., 2017,
     13, 1989-2009. DOI: 10.1021/acs.jctc.7b00118
   for GFN0-xTB:
   * P. Pracht, E. Caldeweyher, S. Ehlert, S. Grimme, ChemRxiv, 2019, preprint.
     DOI: 10.26434/chemrxiv.8326202.v1
   for GFN-FF:
   * S. Spicher and S. Grimme, Angew. Chem. Int. Ed., 2020, 59, 15665-15673.
     DOI: 10.1002/anie.202004239
   
   for ALPB and GBSA implicit solvation:
   * S. Ehlert, M. Stahn, S. Spicher, S. Grimme, J. Chem. Theory Comput.,
     2021, 17, 4250-4261. DOI: 10.1021/acs.jctc.1c00471
   
   for ddCOSMO and CPCM-X implicit solvation:
   * M. Stahn, S. Ehlert, S. Grimme, J. Phys. Chem. A,
     2023, XX, XXXX-XXXX. DOI: 10.1021/acs.jpca.3c04382
   
   for DFT-D4:
   * E. Caldeweyher, C. Bannwarth and S. Grimme, J. Chem. Phys., 2017,
     147, 034112. DOI: 10.1063/1.4993215
   * E. Caldeweyher, S. Ehlert, A. Hansen, H. Neugebauer, S. Spicher,
     C. Bannwarth and S. Grimme, J. Chem. Phys., 2019, 150, 154122.
     DOI: 10.1063/1.5090222
   * E. Caldeweyher, J.-M. Mewes, S. Ehlert and S. Grimme, Phys. Chem. Chem. Phys.
     2020, 22, 8499-8512. DOI: 10.1039/D0CP00502A
   
   for sTDA-xTB:
   * S. Grimme and C. Bannwarth, J. Chem. Phys., 2016, 145, 054103.
     DOI: 10.1063/1.4959605
   
   in the mass-spec context:
   * V. Asgeirsson, C. Bauer and S. Grimme, Chem. Sci., 2017, 8, 4879.
     DOI: 10.1039/c7sc00601b
   * J. Koopman and S. Grimme, ACS Omega 2019, 4, 12, 15120-15133.
     DOI: 10.1021/acsomega.9b02011
   
   for metadynamics refer to:
   * S. Grimme, J. Chem. Theory Comput., 2019, 155, 2847-2862
     DOI: 10.1021/acs.jctc.9b00143
   
   for SPH calculations refer to:
   * S. Spicher and S. Grimme, J. Chem. Theory Comput., 2021, 17, 1701-1714
     DOI: 10.1021/acs.jctc.0c01306
   
   for ONIOM refer to:
   * C. Plett, A. Katbashev, S. Ehlert, S. Grimme, M. Bursch,
     Phys. Chem. Chem. Phys., 2023, 25, 17860-17868. DOI: 10.1039/D3CP02178E
   
   for DIPRO refer to:
   * J. Kohn, N. Gildemeister, S. Grimme, D. Fazzi, A. Hansen,
     J. Chem. Phys., 2023, just accepted.
   
   for PTB refer to:
   * S. Grimme, M. Mueller, A. Hansen, J. Chem. Phys., 2023, 158, 124111.
     DOI: 10.1063/5.0137838
   
   with help from (in alphabetical order)
   P. Atkinson, C. Bannwarth, F. Bohle, G. Brandenburg, E. Caldeweyher
   M. Checinski, S. Dohm, S. Ehlert, S. Ehrlich, I. Gerasimov, C. Hölzer
   A. Katbashev, J. Kohn, J. Koopman, C. Lavigne, S. Lehtola, F. März, M. Müller,
   F. Musil, H. Neugebauer, J. Pisarek, C. Plett, P. Pracht, F. Pultar,
   J. Seibert, P. Shushkov, S. Spicher, M. Stahn, M. Steiner, T. Strunk,
   J. Stückrath, T. Rose, and J. Unsleber
   
 * started run on 2025/04/11 at 11:44:21.481     
   ID    Z sym.   atoms
    1    6 C      1-4, 6-11
    2    1 H      5, 13-25
    3    8 O      12

           -------------------------------------------------
          |                Calculation Setup                |
           -------------------------------------------------

          program call               : /srv/scratch/z5358697/.xtb/bin/xtb solv.coord --gfn2 --sp --chrg 0 --norestart --parallel 1 --alpb water reference -I xtb_sp-xcontrol-inp
          hostname                   : k063
          coordinate file            : solv.coord
          omp threads                :                     1


           -------------------------------------------------
          |                 G F N 2 - x T B                 |
           -------------------------------------------------

        Reference                      10.1021/acs.jctc.8b01176
      * Hamiltonian:
        H0-scaling (s, p, d)           1.850000    2.230000    2.230000
        zeta-weighting                 0.500000
      * Dispersion:
        s8                             2.700000
        a1                             0.520000
        a2                             5.000000
        s9                             5.000000
      * Repulsion:
        kExp                           1.500000    1.000000
        rExp                           1.000000
      * Coulomb:
        alpha                          2.000000
        third order                    shell-resolved
        anisotropic                    true
        a3                             3.000000
        a5                             4.000000
        cn-shift                       1.200000
        cn-exp                         4.000000
        max-rad                        5.000000

      * Solvation model:               ALPB
        Solvent                        water
        Parameter file                 internal GFN2-xTB/ALPB
        Dielectric constant                8.0200E+01
        Reference state                gsolv=reference [X=1]
        Free energy shift                  2.8945E-03 Eh       1.8164E+00 kcal/mol
        Temperature                        2.9815E+02 K
        Density                            1.0000E+00 kg/L
        Solvent mass                       1.8000E+01 g/mol
        Interaction kernel             P16
        Born radius scaling (c1)           1.4744E+00
        Born radii integrator          GBOBC
        Born offset                        0.0000E+00 a0       0.0000E+00 AA
        H-bond correction              true
        Ion screening                  false
        Surface tension                    1.0000E-05 Eh       1.5569E+01 dyn/cm
        Grid points                               974 per atom

          ...................................................
          :                      SETUP                      :
          :.................................................:
          :  # basis functions                  58          :
          :  # atomic orbitals                  58          :
          :  # shells                           36          :
          :  # electrons                        60          :
          :  max. iterations                   250          :
          :  Hamiltonian                  GFN2-xTB          :
          :  restarted?                      false          :
          :  GBSA solvation                   true          :
          :  PC potential                    false          :
          :  electronic temp.          300.0000000     K    :
          :  accuracy                    1.0000000          :
          :  -> integral cutoff          0.2500000E+02      :
          :  -> integral neglect         0.1000000E-07      :
          :  -> SCF convergence          0.1000000E-05 Eh   :
          :  -> wf. convergence          0.1000000E-03 e    :
          :  Broyden damping             0.4000000          :
          :  net charge                          0          :
          :  unpaired electrons                  0          :
          ...................................................

 iter      E             dE          RMSdq      gap      omega  full diag
   1    -33.0057020 -0.330057E+02  0.387E+00    2.78       0.0  T
   2    -33.0589044 -0.532024E-01  0.200E+00    2.42       1.0  T
   3    -33.0571097  0.179468E-02  0.114E+00    2.73       1.0  T
   4    -33.0631690 -0.605933E-02  0.406E-01    2.55       1.0  T
   5    -33.0653728 -0.220377E-02  0.957E-02    2.51       1.0  T
   6    -33.0654911 -0.118347E-03  0.446E-02    2.51       1.0  T
   7    -33.0654950 -0.389821E-05  0.223E-02    2.51       1.0  T
   8    -33.0654983 -0.332520E-05  0.990E-03    2.51       2.0  T
   9    -33.0654996 -0.124020E-05  0.337E-03    2.51       5.9  T
  10    -33.0654996 -0.318439E-07  0.121E-03    2.51      16.5  T
  11    -33.0654996 -0.491382E-08  0.505E-04    2.51      39.6  T
  12    -33.0654996 -0.980748E-09  0.156E-04    2.51     128.5  T

   *** convergence criteria satisfied after 12 iterations ***

         #    Occupation            Energy/Eh            Energy/eV
      -------------------------------------------------------------
         1        2.0000           -0.7147219             -19.4486
       ...           ...                  ...                  ...
        24        2.0000           -0.4407045             -11.9922
        25        2.0000           -0.4388552             -11.9419
        26        2.0000           -0.4194115             -11.4128
        27        2.0000           -0.4185194             -11.3885
        28        2.0000           -0.4029629             -10.9652
        29        2.0000           -0.4014640             -10.9244
        30        2.0000           -0.3829214             -10.4198 (HOMO)
        31                         -0.2905523              -7.9063 (LUMO)
        32                         -0.1945875              -5.2950
        33                         -0.1707047              -4.6451
        34                          0.0669425               1.8216
        35                          0.0770018               2.0953
       ...                                ...                  ...
        58                          0.6457878              17.5728
      -------------------------------------------------------------
                  HL-Gap            0.0923692 Eh            2.5135 eV
             Fermi-level           -0.3367369 Eh           -9.1631 eV

 SCC (total)                   0 d,  0 h,  0 min,  0.037 sec
 SCC setup                      ...        0 min,  0.002 sec (  5.146%)
 Dispersion                     ...        0 min,  0.000 sec (  0.578%)
 classical contributions        ...        0 min,  0.000 sec (  0.105%)
 integral evaluation            ...        0 min,  0.003 sec (  7.984%)
 iterations                     ...        0 min,  0.023 sec ( 61.105%)
 molecular gradient             ...        0 min,  0.009 sec ( 24.547%)
 printout                       ...        0 min,  0.000 sec (  0.481%)

         :::::::::::::::::::::::::::::::::::::::::::::::::::::
         ::                     SUMMARY                     ::
         :::::::::::::::::::::::::::::::::::::::::::::::::::::
         :: total energy             -32.570838681033 Eh    ::
         :: total w/o Gsasa/hb       -32.572930040093 Eh    ::
         :: gradient norm              0.000053289146 Eh/a0 ::
         :: HOMO-LUMO gap              2.513492616739 eV    ::
         ::.................................................::
         :: SCC energy               -33.065290567236 Eh    ::
         :: -> isotropic ES            0.040410194185 Eh    ::
         :: -> anisotropic ES          0.002614056000 Eh    ::
         :: -> anisotropic XC          0.017526652480 Eh    ::
         :: -> dispersion             -0.021693783027 Eh    ::
         :: -> Gsolv                  -0.006895354023 Eh    ::
         ::    -> Gelec               -0.008986713083 Eh    ::
         ::    -> Gsasa                0.000946448884 Eh    ::
         ::    -> Ghb                 -0.001749638984 Eh    ::
         ::    -> Gshift               0.002894549160 Eh    ::
         :: repulsion energy           0.494451886203 Eh    ::
         :: add. restraining           0.000000000000 Eh    ::
         :: total charge              -0.000000000000 e     ::
         :::::::::::::::::::::::::::::::::::::::::::::::::::::

           -------------------------------------------------
          |                Property Printout                |
           -------------------------------------------------

    * Orbital Energies and Occupations

         #    Occupation            Energy/Eh            Energy/eV
      -------------------------------------------------------------
         1        2.0000           -0.7147219             -19.4486
       ...           ...                  ...                  ...
        18        2.0000           -0.4903127             -13.3421
        19        2.0000           -0.4775919             -12.9959
        20        2.0000           -0.4756916             -12.9442
        21        2.0000           -0.4720271             -12.8445
        22        2.0000           -0.4659881             -12.6802
        23        2.0000           -0.4562647             -12.4156
        24        2.0000           -0.4407045             -11.9922
        25        2.0000           -0.4388552             -11.9419
        26        2.0000           -0.4194115             -11.4128
        27        2.0000           -0.4185194             -11.3885
        28        2.0000           -0.4029629             -10.9652
        29        2.0000           -0.4014640             -10.9244
        30        2.0000           -0.3829214             -10.4198 (HOMO)
        31                         -0.2905523              -7.9063 (LUMO)
        32                         -0.1945875              -5.2950
        33                         -0.1707047              -4.6451
        34                          0.0669425               1.8216
        35                          0.0770018               2.0953
        36                          0.0874078               2.3785
        37                          0.0994585               2.7064
        38                          0.1045730               2.8456
        39                          0.1104262               3.0048
        40                          0.1343721               3.6565
        41                          0.1491910               4.0597
       ...                                ...                  ...
        58                          0.6457878              17.5728
      -------------------------------------------------------------
                  HL-Gap            0.0923692 Eh            2.5135 eV
             Fermi-level           -0.3367369 Eh           -9.1631 eV

     #   Z          covCN         q      C6AA      α(0)
     1   6 C        3.759    -0.118    22.807     6.808
     2   6 C        2.938     0.017    27.633     8.621
     3   6 C        2.847    -0.119    31.003     9.125
     4   6 C        3.862    -0.027    21.007     6.518
     5   1 H        0.924     0.051     2.306     2.375
     6   6 C        3.810    -0.063    21.696     6.630
     7   6 C        3.810    -0.066    21.752     6.639
     8   6 C        2.946    -0.021    28.521     8.759
     9   6 C        2.904     0.001    28.005     8.677
    10   6 C        3.810    -0.070    21.826     6.650
    11   6 C        2.772     0.207    23.612     7.958
    12   8 O        0.856    -0.438    22.456     6.353
    13   1 H        0.925     0.045     2.379     2.412
    14   1 H        0.925     0.053     2.281     2.362
    15   1 H        0.925     0.049     2.337     2.390
    16   1 H        0.926     0.029     2.599     2.521
    17   1 H        0.926     0.030     2.582     2.513
    18   1 H        0.924     0.046     2.369     2.407
    19   1 H        0.925     0.047     2.362     2.403
    20   1 H        0.924     0.049     2.337     2.391
    21   1 H        0.924     0.058     2.222     2.331
    22   1 H        0.925     0.061     2.189     2.314
    23   1 H        0.924     0.083     1.950     2.184
    24   1 H        0.924     0.078     1.999     2.211
    25   1 H        0.922     0.016     2.791     2.613

 Mol. C6AA /au·bohr⁶  :       5720.217889
 Mol. C8AA /au·bohr⁸  :     131058.530124
 Mol. α(0) /au        :        116.166786


Wiberg/Mayer (AO) data.
largest (>0.10) Wiberg bond orders for each atom

 ---------------------------------------------------------------------------
     #   Z sym  total        # sym  WBO       # sym  WBO       # sym  WBO
 ---------------------------------------------------------------------------
     1   6 C    3.996 --     2 C    1.028    13 H    0.983    15 H    0.970
                            14 H    0.964
     2   6 C    3.986 --     3 C    1.929     1 C    1.028     4 C    0.993
     3   6 C    3.987 --     2 C    1.929    16 H    0.976    17 H    0.976
     4   6 C    3.995 --    10 C    0.994     2 C    0.993     6 C    0.981
                             5 H    0.960
     5   1 H    0.997 --     4 C    0.960
     6   6 C    3.996 --     7 C    1.007     4 C    0.981    18 H    0.976
                            19 H    0.976
     7   6 C    3.996 --     8 C    1.011     6 C    1.007    20 H    0.966
                            21 H    0.955
     8   6 C    3.985 --     9 C    1.719    11 C    1.110     7 C    1.011
     9   6 C    3.979 --     8 C    1.719    10 C    1.057    22 H    0.962
    10   6 C    3.995 --     9 C    1.057     4 C    0.994    24 H    0.947
                            23 H    0.931
    11   6 C    3.914 --    12 O    1.775     8 C    1.110    25 H    0.935
    12   8 O    2.007 --    11 C    1.775
    13   1 H    0.998 --     1 C    0.983
    14   1 H    0.997 --     1 C    0.964
    15   1 H    0.998 --     1 C    0.970
    16   1 H    0.999 --     3 C    0.976
    17   1 H    0.998 --     3 C    0.976
    18   1 H    0.998 --     6 C    0.976
    19   1 H    0.997 --     6 C    0.976
    20   1 H    0.998 --     7 C    0.966
    21   1 H    0.997 --     7 C    0.955
    22   1 H    0.996 --     9 C    0.962
    23   1 H    0.993 --    10 C    0.931
    24   1 H    0.994 --    10 C    0.947
    25   1 H    1.000 --    11 C    0.935
 ---------------------------------------------------------------------------

Topologies differ in total number of bonds
Writing topology from bond orders to xtbtopo.mol

molecular dipole:
                 x           y           z       tot (Debye)
 q only:        1.702       0.318      -0.679
   full:        1.646       0.203      -0.721       4.596
molecular quadrupole (traceless):
                xx          xy          yy          xz          yz          zz
 q only:      -16.284       3.071       9.939       6.088       0.547       6.345
  q+dip:      -17.229       3.246      11.163       7.116       0.613       6.065
   full:      -17.574       3.424      10.752       7.735      -0.066       6.822


           -------------------------------------------------
          | TOTAL ENERGY              -32.570838681033 Eh   |
          | GRADIENT NORM               0.000053289146 Eh/α |
          | HOMO-LUMO GAP               2.513492616739 eV   |
           -------------------------------------------------

------------------------------------------------------------------------
 * finished run on 2025/04/11 at 11:44:21.564     
------------------------------------------------------------------------
 total:
 * wall-time:     0 d,  0 h,  0 min,  0.082 sec
 *  cpu-time:     0 d,  0 h,  0 min,  0.041 sec
 * ratio c/w:     0.505 speedup
 SCF:
 * wall-time:     0 d,  0 h,  0 min,  0.038 sec
 *  cpu-time:     0 d,  0 h,  0 min,  0.031 sec
 * ratio c/w:     0.810 speedup

