
                                 *****************
                                 * O   R   C   A *
                                 *****************

                                            #,                                       
                                            ###                                      
                                            ####                                     
                                            #####                                    
                                            ######                                   
                                           ########,                                 
                                     ,,################,,,,,                         
                               ,,#################################,,                 
                          ,,##########################################,,             
                       ,#########################################, ''#####,          
                    ,#############################################,,   '####,        
                  ,##################################################,,,,####,       
                ,###########''''           ''''###############################       
              ,#####''   ,,,,##########,,,,          '''####'''          '####       
            ,##' ,,,,###########################,,,                        '##       
           ' ,,###''''                  '''############,,,                           
         ,,##''                                '''############,,,,        ,,,,,,###''
      ,#''                                            '''#######################'''  
     '                                                          ''''####''''         
             ,#######,   #######,   ,#######,      ##                                
            ,#'     '#,  ##    ##  ,#'     '#,    #''#        ,####,   ,####,        
            ##       ##  ##   ,#'  ##            #'  '#       #'       #'  '#        
            ##       ##  #######   ##           ,######,      #####,   #    #        
            '#,     ,#'  ##    ##  '#,     ,#' ,#      #,     #,   #   #,  ,#        
             '#######'   ##     ##  '#######'  #'      '#     '####' # '####'        



                #########################################################
                #                        -***-                          #
                #          Department of theory and spectroscopy        #
                #                                                       #
                #                      Frank Neese                      #
                #                                                       #
                #     Directorship, Architecture, Infrastructure        #
                #                    SHARK, DRIVERS                     #
                #        Core code/Algorithms in most modules           #
                #                                                       #
                #        Max Planck Institute fuer Kohlenforschung      #
                #                Kaiser Wilhelm Platz 1                 #
                #                 D-45470 Muelheim/Ruhr                 #
                #                      Germany                          #
                #                                                       #
                #                  All rights reserved                  #
                #                        -***-                          #
                #########################################################


                         Program Version 6.0.0  -   RELEASE  -


 With contributions from (in alphabetic order):
   Daniel Aravena         : Magnetic Suceptibility
   Michael Atanasov       : Ab Initio Ligand Field Theory (pilot matlab implementation)
   Alexander A. Auer      : GIAO ZORA, VPT2 properties, NMR spectrum
   Ute Becker             : All parallelization in ORCA, NUMFREQ, NUMCALC
   Giovanni Bistoni       : ED, misc. LED, open-shell LED, HFLD
   Martin Brehm           : Molecular dynamics
   Dmytro Bykov           : pre 5.0 version of the SCF Hessian
   Marcos Casanova-Páez   : Triplet and SCS-CIS(D). UHF-(DLPNO)-IP/EA/STEOM-CCSD. UHF-CVS-IP/STEOM-CCSD
   Vijay G. Chilkuri      : MRCI spin determinant printing, contributions to CSF-ICE
   Pauline Colinet        : FMM embedding
   Dipayan Datta          : RHF DLPNO-CCSD density
   Achintya Kumar Dutta   : EOM-CC, STEOM-CC
   Nicolas Foglia         : Exact transition moments, OPA infrastructure, MCD improvements
   Dmitry Ganyushin       : Spin-Orbit,Spin-Spin,Magnetic field MRCI
   Miquel Garcia          : C-PCM and meta-GGA Hessian, CCSD/C-PCM, Gaussian charge scheme
   Tiago L. C. Gouveia    : GS-ROHF, GS-ROCIS
   Yang Guo               : DLPNO-NEVPT2, F12-NEVPT2, CIM, IAO-localization
   Andreas Hansen         : Spin unrestricted coupled pair/coupled cluster methods
   Ingolf Harden          : AUTO-CI MPn and infrastructure 
   Benjamin Helmich-Paris : MC-RPA, TRAH-(SCF,CASSCF), AVAS, COSX integrals, SCF dyn. polar.
   Lee Huntington         : MR-EOM, pCC
   Robert Izsak           : Overlap fitted RIJCOSX, COSX-SCS-MP3, EOM
   Riya Kayal             : Wick's Theorem for AUTO-CI, AUTO-CI UHF-CCSDT
   Emily Kempfer          : AUTO-CI, RHF CISDT and CCSDT
   Christian Kollmar      : KDIIS, OOCD, Brueckner-CCSD(T), CCSD density, CASPT2, CASPT2-K, improved NEVPT2
   Axel Koslowski         : Symmetry handling
   Simone Kossmann        : Meta GGA functionals, TD-DFT gradient, OOMP2, (MP2 Hessian; deprecated post 5.0)
   Lucas Lang             : DCDCAS
   Marvin Lechner         : AUTO-CI (C++ implementation), FIC-MRCC
   Spencer Leger          : CASSCF response
   Dagmar Lenk            : GEPOL surface, SMD, ORCA-2-JSON
   Dimitrios Liakos       : Extrapolation schemes; Compound Job, initial MDCI parallelization
   Dimitrios Manganas     : Further ROCIS development; embedding schemes. LFT, Crystal Embedding
   Dimitrios Pantazis     : SARC Basis sets
   Anastasios Papadopoulos: AUTO-CI, single reference methods and gradients
   Taras Petrenko         : pre 6.0 DFT Hessian and TD-DFT gradient, (ASA, deprecated), ECA, 1-Electron XAS/XES, NRVS
   Peter Pinski           : DLPNO-MP2, DLPNO-MP2 Gradient
   Christoph Reimann      : Effective Core Potentials
   Marius Retegan         : Local ZFS, SOC
   Christoph Riplinger    : Optimizer, TS searches, QM/MM, DLPNO-CCSD(T), (RO)-DLPNO pert. Triples
   Michael Roemelt        : Original ROCIS implementation
   Masaaki Saitow         : Open-shell DLPNO-CCSD energy and density
   Barbara Sandhoefer     : DKH picture change effects
   Kantharuban Sivalingam : CASSCF convergence/infrastructure, NEVPT2 and variants, FIC-MRCI
   Bernardo de Souza      : ESD, SOC TD-DFT
   Georgi Stoychev        : AutoAux, RI-MP2 NMR, DLPNO-MP2 response, X2C
   Van Anh Tran           : RI-MP2 g-tensors
   Willem Van den Heuvel  : Paramagnetic NMR
   Zikuan Wang            : NOTCH, Electric field optimization 
   Frank Wennmohs         : Technical directorship and infrastructure
   Hang Xu                : AUTO-CI-Response properties 


 We gratefully acknowledge several colleagues who have allowed us to
 interface, adapt or use parts of their codes:
   Stefan Grimme, W. Hujo, H. Kruse, P. Pracht,  : VdW corrections, initial TS optimization,
                  C. Bannwarth, S. Ehlert,         DFT functionals, gCP, sTDA/sTD-DF
                  L. Wittmann, M. Mueller
   Ed Valeev, F. Pavosevic, A. Kumar             : LibInt (2-el integral package), F12 methods
   Garnet Chan, S. Sharma, J. Yang, R. Olivares  : DMRG
   Ulf Ekstrom                                   : XCFun DFT Library
   Mihaly Kallay                                 : mrcc  (arbitrary order and MRCC methods)
   Frank Weinhold                                : gennbo (NPA and NBO analysis)
   Simon Mueller                                 : openCOSMO-RS
   Christopher J. Cramer and Donald G. Truhlar   : smd solvation model
   Lars Goerigk                                  : TD-DFT with DH, B97 family of functionals
   V. Asgeirsson, H. Jonsson                     : NEB implementation
   FAccTs GmbH                                   : IRC, NEB, NEB-TS, DLPNO-Multilevel, CI-OPT
                                                   MM, QMMM, 2- and 3-layer-ONIOM, Crystal-QMMM,
                                                   LR-CPCM, SF, NACMEs, symmetry and pop. for TD-DFT,
                                                   nearIR, NL-DFT gradient (VV10), updates on ESD,
                                                   ML-optimized integration grids, MBIS, APM,
                                                   GOAT, DOCKER, SOLVATOR, interface openCOSMO-RS
   S Lehtola, MJT Oliveira, MAL Marques          : LibXC Library
   Liviu Ungur et al                             : ANISO software


 Your calculation uses the libint2 library for the computation of 2-el integrals
 For citations please refer to: http://libint.valeyev.net

 Your ORCA version has been built with support for libXC version: 6.2.2
 For citations please refer to: https://libxc.gitlab.io

 This ORCA versions uses:
   CBLAS   interface :  Fast vector & matrix operations
   LAPACKE interface :  Fast linear algebra routines
   SCALAPACK package :  Parallel linear algebra routines
   Shared memory     :  Shared parallel matrices
   BLAS/LAPACK       :  OpenBLAS 0.3.27  USE64BITINT DYNAMIC_ARCH NO_AFFINITY SkylakeX SINGLE_THREADED
        Core in use  :  SkylakeX
   Copyright (c) 2011-2014, The OpenBLAS Project


Your calculation utilizes the geometrical counterpoise correction gCP
Please cite in your paper:
H.Kruse, S. Grimme J.Chem.Phys., 136, (2012), 154101 
   

Your calculation utilizes the atom-pairwise dispersion correction
based on EEQ partial charges (D4)


================================================================================

----- Orbital basis set information -----
Your calculation utilizes the basis: def2-SV(P)
   F. Weigend and R. Ahlrichs, Phys. Chem. Chem. Phys. 7, 3297 (2005).

----- AuxJ basis set information -----
Your calculation utilizes the auxiliary basis: def2/J
   F. Weigend, Phys. Chem. Chem. Phys. 8, 1057 (2006).

================================================================================
                                        WARNINGS
                       Please study these warnings very carefully!
================================================================================


================================================================================
                                       INPUT FILE
================================================================================
NAME = sp.inp
|  1> ! pbe def2-sv(p) def2/J RI DEFGRID1 loosescf d4 GCP(DFT/SV(P)) printgap
|  2> %output
|  3>     printlevel normal
|  4> end
|  5> * xyz 0 1
|  6> C 2.8295149675 -0.3284998621 0.1638694253
|  7> C 1.4426561921 -0.4965115462 -0.4460248931
|  8> C 0.3969847169 0.3006471323 0.327682202
|  9> C -1.001523829 0.2530271044 -0.2951134596
| 10> H -0.91664176 0.4816853736 -1.3714505203
| 11> C -1.6714396688 -1.1083351024 -0.1227848867
| 12> O -1.7565931837 1.2804442979 0.3328404474
| 13> H 3.5640936709 -0.9019539042 -0.3958960283
| 14> H 2.8350121844 -0.6738146261 1.1950149607
| 15> H 3.1266103724 0.7175622871 0.1522763407
| 16> H 1.4584757478 -0.1575434577 -1.4842516945
| 17> H 1.1780453199 -1.5549620885 -0.4438445193
| 18> H 0.3331437552 -0.0610457246 1.355625085
| 19> H 0.6961464785 1.3504943236 0.3680837584
| 20> H -1.0767526662 -1.8812626047 -0.5987484428
| 21> H -1.7723650839 -1.3375180544 0.9354825313
| 22> H -2.6597595285 -1.1073151872 -0.5774454527
| 23> H -2.6701950945 1.2412636847 0.019145428
| 24> *
| 25> 
| 26>                          ****END OF INPUT****
================================================================================

                       ****************************
                       * Single Point Calculation *
                       ****************************

---------------------------------
CARTESIAN COORDINATES (ANGSTROEM)
---------------------------------
  C      2.829515   -0.328500    0.163869
  C      1.442656   -0.496512   -0.446025
  C      0.396985    0.300647    0.327682
  C     -1.001524    0.253027   -0.295113
  H     -0.916642    0.481685   -1.371451
  C     -1.671440   -1.108335   -0.122785
  O     -1.756593    1.280444    0.332840
  H      3.564094   -0.901954   -0.395896
  H      2.835012   -0.673815    1.195015
  H      3.126610    0.717562    0.152276
  H      1.458476   -0.157543   -1.484252
  H      1.178045   -1.554962   -0.443845
  H      0.333144   -0.061046    1.355625
  H      0.696146    1.350494    0.368084
  H     -1.076753   -1.881263   -0.598748
  H     -1.772365   -1.337518    0.935483
  H     -2.659760   -1.107315   -0.577445
  H     -2.670195    1.241264    0.019145

----------------------------
CARTESIAN COORDINATES (A.U.)
----------------------------
  NO LB      ZA    FRAG     MASS         X           Y           Z
   0 C     6.0000    0    12.011    5.347008   -0.620775    0.309668
   1 C     6.0000    0    12.011    2.726225   -0.938271   -0.842865
   2 C     6.0000    0    12.011    0.750192    0.568141    0.619230
   3 C     6.0000    0    12.011   -1.892606    0.478152   -0.557684
   4 H     1.0000    0     1.008   -1.732202    0.910253   -2.591666
   5 C     6.0000    0    12.011   -3.158563   -2.094450   -0.232030
   6 O     8.0000    0    15.999   -3.319480    2.419689    0.628977
   7 H     1.0000    0     1.008    6.735161   -1.704446   -0.748135
   8 H     1.0000    0     1.008    5.357397   -1.273325    2.258251
   9 H     1.0000    0     1.008    5.908437    1.355996    0.287761
  10 H     1.0000    0     1.008    2.756120   -0.297714   -2.804829
  11 H     1.0000    0     1.008    2.226183   -2.938452   -0.838745
  12 H     1.0000    0     1.008    0.629550   -0.115360    2.561760
  13 H     1.0000    0     1.008    1.315526    2.552064    0.695577
  14 H     1.0000    0     1.008   -2.034768   -3.555071   -1.131471
  15 H     1.0000    0     1.008   -3.349285   -2.527543    1.767806
  16 H     1.0000    0     1.008   -5.026217   -2.092522   -1.091214
  17 H     1.0000    0     1.008   -5.045937    2.345648    0.036180

--------------------------------
INTERNAL COORDINATES (ANGSTROEM)
--------------------------------
 C      0   0   0     0.000000000000     0.00000000     0.00000000
 C      1   0   0     1.524328136759     0.00000000     0.00000000
 C      2   1   0     1.525619042147   111.29022657     0.00000000
 C      3   2   1     1.531655397314   113.78887696   175.87702672
 H      4   3   2     1.103626312638   108.65652016   310.94056285
 C      4   3   2     1.527020441106   112.48247935    71.93725208
 O      4   3   2     1.421281790928   106.43636408   193.94465252
 H      1   2   3     1.087102926559   110.52521284   179.94261150
 H      1   2   3     1.087443617299   110.42568545    59.87633004
 H      1   2   3     1.087495332961   110.50630245   300.06006225
 H      2   1   3     1.092274926248   109.44652701   120.86265365
 H      2   1   3     1.091027597365   109.07409079   238.63652421
 H      3   2   1     1.091587816822   110.15291428   298.11075619
 H      3   2   1     1.092386914259   109.46417419    56.02954206
 H      6   4   3     1.085177801841   110.18644959   299.86429808
 H      6   4   3     1.087492847287   109.78041925    60.07070737
 H      6   4   3     1.087884835624   110.52133277   180.11408195
 H      7   4   3     0.966751331556   109.23182191   184.45640765

---------------------------
INTERNAL COORDINATES (A.U.)
---------------------------
 C      0   0   0     0.000000000000     0.00000000     0.00000000
 C      1   0   0     2.880562716705     0.00000000     0.00000000
 C      2   1   0     2.883002174354   111.29022657     0.00000000
 C      3   2   1     2.894409232465   113.78887696   175.87702672
 H      4   3   2     2.085551485076   108.65652016   310.94056285
 C      4   3   2     2.885650434590   112.48247935    71.93725208
 O      4   3   2     2.685833343983   106.43636408   193.94465252
 H      1   2   3     2.054326810581   110.52521284   179.94261150
 H      1   2   3     2.054970622777   110.42568545    59.87633004
 H      1   2   3     2.055068351214   110.50630245   300.06006225
 H      2   1   3     2.064100473557   109.44652701   120.86265365
 H      2   1   3     2.061743363569   109.07409079   238.63652421
 H      3   2   1     2.062802024918   110.15291428   298.11075619
 H      3   2   1     2.064312100228   109.46417419    56.02954206
 H      6   4   3     2.050688852090   110.18644959   299.86429808
 H      6   4   3     2.055063653971   109.78041925    60.07070737
 H      6   4   3     2.055804404575   110.52133277   180.11408195
 H      7   4   3     1.826895256244   109.23182191   184.45640765

---------------------
BASIS SET INFORMATION
---------------------
There are 3 groups of distinct atoms

 Group   1 Type C   : 7s4p1d contracted to 3s2p1d pattern {511/31/1}
 Group   2 Type H   : 4s contracted to 2s pattern {31}
 Group   3 Type O   : 7s4p1d contracted to 3s2p1d pattern {511/31/1}

Atom   0C    basis set group =>   1
Atom   1C    basis set group =>   1
Atom   2C    basis set group =>   1
Atom   3C    basis set group =>   1
Atom   4H    basis set group =>   2
Atom   5C    basis set group =>   1
Atom   6O    basis set group =>   3
Atom   7H    basis set group =>   2
Atom   8H    basis set group =>   2
Atom   9H    basis set group =>   2
Atom  10H    basis set group =>   2
Atom  11H    basis set group =>   2
Atom  12H    basis set group =>   2
Atom  13H    basis set group =>   2
Atom  14H    basis set group =>   2
Atom  15H    basis set group =>   2
Atom  16H    basis set group =>   2
Atom  17H    basis set group =>   2
---------------------------------
AUXILIARY/J BASIS SET INFORMATION
---------------------------------
There are 3 groups of distinct atoms

 Group   1 Type C   : 12s5p4d2f1g contracted to 6s4p3d1f1g pattern {711111/2111/211/2/1}
 Group   2 Type H   : 5s2p1d contracted to 3s1p1d pattern {311/2/1}
 Group   3 Type O   : 12s5p4d2f1g contracted to 6s4p3d1f1g pattern {711111/2111/211/2/1}

Atom   0C    basis set group =>   1
Atom   1C    basis set group =>   1
Atom   2C    basis set group =>   1
Atom   3C    basis set group =>   1
Atom   4H    basis set group =>   2
Atom   5C    basis set group =>   1
Atom   6O    basis set group =>   3
Atom   7H    basis set group =>   2
Atom   8H    basis set group =>   2
Atom   9H    basis set group =>   2
Atom  10H    basis set group =>   2
Atom  11H    basis set group =>   2
Atom  12H    basis set group =>   2
Atom  13H    basis set group =>   2
Atom  14H    basis set group =>   2
Atom  15H    basis set group =>   2
Atom  16H    basis set group =>   2
Atom  17H    basis set group =>   2
------------------------------------------------------------------------------
                             ORCA STARTUP CALCULATIONS
                           -- RI-GTO INTEGRALS CHOSEN --
------------------------------------------------------------------------------
------------------------------------------------------------------------------
                   ___                                                        
                  /   \      - P O W E R E D   B Y -                         
                 /     \                                                     
                 |  |  |   _    _      __       _____    __    __             
                 |  |  |  | |  | |    /  \     |  _  \  |  |  /  |          
                  \  \/   | |  | |   /    \    | | | |  |  | /  /          
                 / \  \   | |__| |  /  /\  \   | |_| |  |  |/  /          
                |  |  |   |  __  | /  /__\  \  |    /   |      \           
                |  |  |   | |  | | |   __   |  |    \   |  |\   \          
                \     /   | |  | | |  |  |  |  | |\  \  |  | \   \       
                 \___/    |_|  |_| |__|  |__|  |_| \__\ |__|  \__/        
                                                                              
                      - O R C A' S   B I G   F R I E N D -                    
                                      &                                       
                       - I N T E G R A L  F E E D E R -                       
                                                                              
 v1 FN, 2020, v2 2021, v3 2022-2024                                           
------------------------------------------------------------------------------


----------------------
SHARK INTEGRAL PACKAGE
----------------------

Number of atoms                             ...     18
Number of basis functions                   ...    108
Number of shells                            ...     60
Maximum angular momentum                    ...      2
Integral batch strategy                     ... SHARK/LIBINT Hybrid
RI-J (if used) integral strategy            ... SPLIT-RIJ (Revised 2003 algorithm where possible)
Printlevel                                  ...      1
Contraction scheme used                     ... SEGMENTED contraction
Prescreening option                         ... SCHWARTZ
   Thresh                                   ... 1.000e-09
   Tcut                                     ... 1.000e-10
   Tpresel                                  ... 1.000e-10 
Coulomb Range Separation                    ... NOT USED
Exchange Range Separation                   ... NOT USED
Multipole approximations                    ... NOT USED
Finite Nucleus Model                        ... NOT USED
CABS basis                                  ... NOT available
Auxiliary Coulomb fitting basis             ... AVAILABLE
   # of basis functions in Aux-J            ...    426
   # of shells in Aux-J                     ...    150
   Maximum angular momentum in Aux-J        ...      4
Auxiliary J/K fitting basis                 ... NOT available
Auxiliary Correlation fitting basis         ... NOT available
Auxiliary 'external' fitting basis          ... NOT available

Checking pre-screening integrals            ... done (  0.0 sec) Dimension = 60
Check shell pair data                       ... done (  0.0 sec)
Shell pair information
Shell pair cut-off parameter TPreSel        ...   1.0e-10
Total number of shell pairs                 ...      1830
Shell pairs after pre-screening             ...      1747
Total number of primitive shell pairs       ...      7374
Primitive shell pairs kept                  ...      5138
          la=0 lb=0:    857 shell pairs
          la=1 lb=0:    489 shell pairs
          la=1 lb=1:     77 shell pairs
          la=2 lb=0:    235 shell pairs
          la=2 lb=1:     70 shell pairs
          la=2 lb=2:     19 shell pairs

Calculating one electron integrals          ... done (  0.0 sec)
Calculating RI/J V-Matrix + Cholesky decomp.... done (  0.1 sec)
Calculating Nuclear repulsion               ... done (  0.0 sec) ENN=    255.125757495874 Eh

Diagonalization of the overlap matrix:
Smallest eigenvalue                        ... 1.665e-03
Time for diagonalization                   ...    0.001 sec
Threshold for overlap eigenvalues          ... 1.000e-07
Number of eigenvalues below threshold      ... 0
Time for construction of square roots      ...    0.012 sec
Total time needed                          ...    0.022 sec

-------------------
DFT GRID GENERATION
-------------------

General Integration Accuracy     IntAcc      ... 4.159
Radial Grid Type                 RadialGrid  ... OptM3 with GC (2021)
Angular Grid (max. ang.)         AngularGrid ... 3 (Lebedev-194)
Angular grid pruning method      GridPruning ... 4 (adaptive)
Weight generation scheme         WeightScheme... mBecke (2022)
Basis function cutoff            BFCut       ... 1.0000e-10
Integration weight cutoff        WCut        ... 1.0000e-14
Partially contracted basis set               ... off
Rotationally invariant grid construction     ... off
Angular grids for H and He will be reduced by one unit

Total number of grid points                  ...    36399
Total number of batches                      ...      577
Average number of points per batch           ...       63
Average number of grid points per atom       ...     2022
Initializing property integral containers    ... done (  0.0 sec)

SHARK setup successfully completed in   0.6 seconds

Maximum memory used throughout the entire STARTUP-calculation: 17.6 MB
-------------------------------------------------------------------------------
                                 ORCA GUESS
                   Start orbitals & Density for SCF / CASSCF
-------------------------------------------------------------------------------

------------
SCF SETTINGS
------------
Hamiltonian:
 Density Functional     Method          .... DFT(GTOs)
 Exchange Functional    Exchange        .... PBE
   PBE kappa parameter   XKappa         ....  0.804000
   PBE mue parameter    XMuePBE         ....  0.219520
 Correlation Functional Correlation     .... PBE
   PBE beta parameter  CBetaPBE         ....  0.066725
 LDA part of GGA corr.  LDAOpt          .... PW91-LDA
 Gradients option       PostSCFGGA      .... off
   NL short-range parameter             ....  6.400000
 RI-approximation to the Coulomb term is turned on
   Number of AuxJ basis functions       .... 426


General Settings:
 Integral files         IntName         .... sp
 Hartree-Fock type      HFTyp           .... RHF
 Total Charge           Charge          ....    0
 Multiplicity           Mult            ....    1
 Number of Electrons    NEL             ....   50
 Basis Dimension        Dim             ....  108
 Nuclear Repulsion      ENuc            ....    255.1257574959 Eh

Convergence Acceleration:
 AO-DIIS                CNVDIIS         .... on
   Start iteration      DIISMaxIt       ....    12
   Startup error        DIISStart       ....  0.200000
   # of expansion vecs  DIISMaxEq       ....     5
   Bias factor          DIISBfac        ....   1.050
   Max. coefficient     DIISMaxC        ....  10.000
 MO-DIIS                CNVKDIIS        .... off
 Trust-Rad. Augm. Hess. CNVTRAH         .... auto
   Auto Start mean grad. ratio tolernc. ....  1.125000
   Auto Start start iteration           ....    50
   Auto Start num. interpolation iter.  ....    10
   Max. Number of Micro iterations      ....    24
   Max. Number of Macro iterations      .... Maxiter - #DIIS iter
   Number of Davidson start vectors     ....     2
   Converg. threshold    (grad. norm)   ....   1.000e-04
   Grad. Scal. Fac. for Micro threshold ....   0.100
   Minimum threshold for Micro iter.    ....   1.000e-02
   NR start threshold (gradient norm)   ....   1.000e-04
   Initial trust radius                 ....   0.400
   Minimum AH scaling param. (alpha)    ....   1.000
   Maximum AH scaling param. (alpha)    .... 1000.000
   Quad. conv. algorithm                .... NR
   White noise on init. David. guess    .... on
   Maximum white noise                  ....   0.010
   Pseudo random numbers                .... off
   Inactive MOs                         .... canonical
   Orbital update algorithm             .... Taylor
   Preconditioner                       .... Diag
   Full preconditioner red. dimension   ....   250
 SOSCF                  CNVSOSCF        .... on
   Start iteration      SOSCFMaxIt      ....   150
   Startup grad/error   SOSCFStart      ....  0.003300
   Hessian update       SOSCFHessUp     .... L-BFGS
 Level Shifting         CNVShift        .... on
   Level shift para.    LevelShift      ....    0.2500
   Turn off err/grad.   ShiftErr        ....    0.0010
 Zerner damping         CNVZerner       .... off
 Static damping         CNVDamp         .... on
   Fraction old density DampFac         ....    0.7000
   Max. Damping (<1)    DampMax         ....    0.9800
   Min. Damping (>=0)   DampMin         ....    0.0000
   Turn off err/grad.   DampErr         ....    0.1000

SCF Procedure:
 Maximum # iterations   MaxIter         ....   125
 SCF integral mode      SCFMode         .... Direct
   Integral package                     .... SHARK and LIBINT hybrid scheme
 Reset frequency        DirectResetFreq ....    20
 Integral Threshold     Thresh          ....  1.000e-09 Eh
 Primitive CutOff       TCut            ....  1.000e-10 Eh

Convergence Tolerance:
 Convergence Check Mode ConvCheckMode   .... Total+1el-Energy
 Convergence forced     ConvForced      .... 0
 Energy Change          TolE            ....  1.000e-05 Eh
 1-El. energy change                    ....  1.000e-02 Eh
 Orbital Gradient       TolG            ....  1.000e-04
 Orbital Rotation angle TolX            ....  1.000e-04
 DIIS Error             TolErr          ....  5.000e-04

------------------------------
INITIAL GUESS: MODEL POTENTIAL
------------------------------
Loading Hartree-Fock densities                     ... done
Calculating cut-offs                               ... done
Initializing the effective Hamiltonian             ... done
Setting up the integral package (SHARK)            ... done
Starting the Coulomb interaction                   ... done (   0.1 sec)
Making the grid                                    ... done (   0.2 sec)
Mapping shells                                     ... done
Starting the XC term evaluation                    ... done (   0.1 sec)
  promolecular density results
     # of electrons  =     49.988464613
     EX              =    -37.274828476
     EC              =     -1.628349282
     EX+EC           =    -38.903177758
Transforming the Hamiltonian                       ... done (   0.0 sec)
Diagonalizing the Hamiltonian                      ... done (   0.0 sec)
Back transforming the eigenvectors                 ... done (   0.0 sec)
Now organizing SCF variables                       ... done
                      ------------------
                      INITIAL GUESS DONE (   0.4 sec)
                      ------------------
             **** ENERGY FILE WAS UPDATED (sp.en.tmp) ****
Finished Guess after   0.6 sec
Maximum memory used throughout the entire GUESS-calculation: 13.4 MB

-------------------------------------------------------------------------------------------
                                      ORCA LEAN-SCF
                              memory conserving SCF solver
-------------------------------------------------------------------------------------------

----------------------------------------D-I-I-S--------------------------------------------
Iteration    Energy (Eh)           Delta-E    RMSDP     MaxDP     DIISErr   Damp  Time(sec)
-------------------------------------------------------------------------------------------
               ***  Starting incremental Fock matrix formation  ***
    1    -272.1646305852274281     0.00e+00  5.93e-03  9.67e-02  2.37e-01  0.700   0.7
    2    -272.2695687683807364    -1.05e-01  4.11e-03  6.51e-02  9.43e-02  0.700   0.8
                               ***Turning on AO-DIIS***
    3    -272.3050656718660321    -3.55e-02  1.55e-03  1.61e-02  2.33e-02  0.700   0.6
    4    -272.3260976672554534    -2.10e-02  2.16e-03  2.53e-02  8.31e-03  0.000   0.7
    5    -272.3744848858874548    -4.84e-02  7.17e-04  1.19e-02  1.16e-02  0.000   0.7
                              *** Initializing SOSCF ***
---------------------------------------S-O-S-C-F--------------------------------------
Iteration    Energy (Eh)           Delta-E    RMSDP     MaxDP     MaxGrad    Time(sec)
--------------------------------------------------------------------------------------
    6    -272.3750356331862577    -5.51e-04  2.44e-04  2.30e-03  1.98e-03     0.7
               *** Restarting incremental Fock matrix formation ***
    7    -272.3750819781816972    -4.63e-05  2.01e-04  3.58e-03  3.15e-04     0.6
    8    -272.3750800599706281     1.92e-06  7.60e-05  1.79e-03  6.93e-04     0.6
                 **** Energy Check signals convergence ****

               *****************************************************
               *                     SUCCESS                       *
               *           SCF CONVERGED AFTER   8 CYCLES          *
               *****************************************************

             **** ENERGY FILE WAS UPDATED (sp.en.tmp) ****

----------------
TOTAL SCF ENERGY
----------------

Total Energy       :       -272.37508005997063 Eh           -7411.70273 eV

Components:
Nuclear Repulsion  :        255.12575749587435 Eh            6942.32480 eV
Electronic Energy  :       -527.50083755584501 Eh          -14354.02753 eV
One Electron Energy:       -873.58228624177650 Eh          -23771.38252 eV
Two Electron Energy:        346.08144868593149 Eh            9417.35499 eV

Virial components:
Potential Energy   :       -542.42439046381105 Eh          -14760.11805 eV
Kinetic Energy     :        270.04931040384048 Eh            7348.41532 eV
Virial Ratio       :          2.00861238879911

DFT components:
N(Alpha)           :       25.000124563788 electrons
N(Beta)            :       25.000124563788 electrons
N(Total)           :       50.000249127576 electrons
E(X)               :      -38.203534073243 Eh       
E(C)               :       -1.641872107206 Eh       
E(XC)              :      -39.845406180449 Eh       

---------------
SCF CONVERGENCE
---------------

  Last Energy change         ...   -1.9182e-06  Tolerance :   1.0000e-05
  Last MAX-Density change    ...    1.7878e-03  Tolerance :   1.0000e-03
  Last RMS-Density change    ...    7.5962e-05  Tolerance :   1.0000e-04
  Last DIIS Error            ...    1.9832e-03  Tolerance :   5.0000e-04
  Last Orbital Gradient      ...    6.9333e-04  Tolerance :   1.0000e-04
  Last Orbital Rotation      ...    2.3886e-04  Tolerance :   1.0000e-04


----------------
ORBITAL ENERGIES
----------------

  NO   OCC          E(Eh)            E(eV) 
   0   2.0000     -18.734479      -509.7911 
   1   2.0000      -9.933613      -270.3074 
   2   2.0000      -9.883918      -268.9551 
   3   2.0000      -9.876159      -268.7440 
   4   2.0000      -9.875389      -268.7230 
   5   2.0000      -9.871862      -268.6270 
   6   2.0000      -0.911903       -24.8141 
   7   2.0000      -0.717712       -19.5299 
   8   2.0000      -0.666347       -18.1322 
   9   2.0000      -0.609416       -16.5831 
  10   2.0000      -0.543492       -14.7892 
  11   2.0000      -0.504423       -13.7260 
  12   2.0000      -0.448271       -12.1981 
  13   2.0000      -0.422109       -11.4862 
  14   2.0000      -0.396018       -10.7762 
  15   2.0000      -0.384812       -10.4713 
  16   2.0000      -0.361768        -9.8442 
  17   2.0000      -0.342297        -9.3144 
  18   2.0000      -0.328766        -8.9462 
  19   2.0000      -0.315632        -8.5888 
  20   2.0000      -0.299461        -8.1488 
  21   2.0000      -0.291826        -7.9410 
  22   2.0000      -0.284113        -7.7311 
  23   2.0000      -0.262456        -7.1418 
  24   2.0000      -0.208939        -5.6855 
  25   0.0000       0.028330         0.7709 
  26   0.0000       0.047595         1.2951 
  27   0.0000       0.066477         1.8089 
  28   0.0000       0.074557         2.0288 
  29   0.0000       0.082345         2.2407 
  30   0.0000       0.102655         2.7934 
  31   0.0000       0.115571         3.1449 
  32   0.0000       0.120677         3.2838 
  33   0.0000       0.130299         3.5456 
  34   0.0000       0.138139         3.7589 
  35   0.0000       0.151643         4.1264 
*Only the first 10 virtual orbitals were printed.

                    ********************************
                    * MULLIKEN POPULATION ANALYSIS *
                    ********************************

-----------------------
MULLIKEN ATOMIC CHARGES
-----------------------
   0 C :   -0.257030
   1 C :   -0.209615
   2 C :   -0.150535
   3 C :    0.035471
   4 H :    0.052976
   5 C :   -0.276782
   6 O :   -0.425816
   7 H :    0.100866
   8 H :    0.097777
   9 H :    0.099166
  10 H :    0.084542
  11 H :    0.090749
  12 H :    0.079040
  13 H :    0.089683
  14 H :    0.104211
  15 H :    0.102837
  16 H :    0.091975
  17 H :    0.290484
Sum of atomic charges:    0.0000000

--------------------------------
MULLIKEN REDUCED ORBITAL CHARGES
--------------------------------
  0 C s       :     3.079922  s :     3.079922
      pz      :     1.054968  p :     3.147642
      px      :     1.028368
      py      :     1.064306
      dz2     :     0.008045  d :     0.029466
      dxz     :     0.005415
      dyz     :     0.003163
      dx2y2   :     0.006116
      dxy     :     0.006726

  1 C s       :     3.075905  s :     3.075905
      pz      :     1.047461  p :     3.096596
      px      :     1.004628
      py      :     1.044506
      dz2     :     0.010918  d :     0.037114
      dxz     :     0.006072
      dyz     :     0.003416
      dx2y2   :     0.009997
      dxy     :     0.006710

  2 C s       :     3.064503  s :     3.064503
      pz      :     1.043041  p :     3.051473
      px      :     0.968198
      py      :     1.040234
      dz2     :     0.010331  d :     0.034559
      dxz     :     0.005646
      dyz     :     0.003702
      dx2y2   :     0.009273
      dxy     :     0.005607

  3 C s       :     3.059012  s :     3.059012
      pz      :     0.988653  p :     2.835595
      px      :     0.966336
      py      :     0.880606
      dz2     :     0.017436  d :     0.069922
      dxz     :     0.009800
      dyz     :     0.011246
      dx2y2   :     0.015168
      dxy     :     0.016271

  4 H s       :     0.947024  s :     0.947024

  5 C s       :     3.087624  s :     3.087624
      pz      :     1.069202  p :     3.161316
      px      :     1.050617
      py      :     1.041497
      dz2     :     0.006747  d :     0.027841
      dxz     :     0.004451
      dyz     :     0.005153
      dx2y2   :     0.005995
      dxy     :     0.005495

  6 O s       :     3.789518  s :     3.789518
      pz      :     1.735447  p :     4.621166
      px      :     1.242773
      py      :     1.642946
      dz2     :     0.002018  d :     0.015133
      dxz     :     0.003489
      dyz     :     0.002845
      dx2y2   :     0.005191
      dxy     :     0.001589

  7 H s       :     0.899134  s :     0.899134

  8 H s       :     0.902223  s :     0.902223

  9 H s       :     0.900834  s :     0.900834

 10 H s       :     0.915458  s :     0.915458

 11 H s       :     0.909251  s :     0.909251

 12 H s       :     0.920960  s :     0.920960

 13 H s       :     0.910317  s :     0.910317

 14 H s       :     0.895789  s :     0.895789

 15 H s       :     0.897163  s :     0.897163

 16 H s       :     0.908025  s :     0.908025

 17 H s       :     0.709516  s :     0.709516


------------------------
MULLIKEN OVERLAP CHARGES
------------------------
B(  0-C ,  1-C ) :   0.8760 B(  0-C ,  2-C ) :  -0.0879 B(  0-C ,  7-H ) :   0.7334 
B(  0-C ,  8-H ) :   0.7563 B(  0-C ,  9-H ) :   0.7592 B(  1-C ,  2-C ) :   0.6503 
B(  1-C , 10-H ) :   0.7074 B(  1-C , 11-H ) :   0.7042 B(  2-C ,  3-C ) :   0.5880 
B(  2-C ,  4-H ) :  -0.1261 B(  2-C ,  5-C ) :  -0.1063 B(  2-C ,  6-O ) :  -0.1535 
B(  2-C , 12-H ) :   0.6485 B(  2-C , 13-H ) :   0.6401 B(  3-C ,  4-H ) :   0.7475 
B(  3-C ,  5-C ) :   0.8524 B(  3-C ,  6-O ) :   0.6922 B(  3-C , 17-H ) :  -0.0775 
B(  4-H ,  5-C ) :  -0.1296 B(  4-H ,  6-O ) :  -0.0677 B(  5-C ,  6-O ) :  -0.1071 
B(  5-C , 14-H ) :   0.6474 B(  5-C , 15-H ) :   0.7045 B(  5-C , 16-H ) :   0.7113 
B(  6-O , 17-H ) :   0.5138 B(  8-H ,  9-H ) :  -0.0529 B( 10-H , 11-H ) :  -0.0726 
B( 12-H , 13-H ) :  -0.0673 B( 15-H , 16-H ) :  -0.0578 


                     *******************************
                     * LOEWDIN POPULATION ANALYSIS *
                     *******************************

----------------------
LOEWDIN ATOMIC CHARGES
----------------------
   0 C :   -0.337938
   1 C :   -0.234875
   2 C :   -0.228190
   3 C :   -0.055718
   4 H :    0.092357
   5 C :   -0.354436
   6 O :   -0.337226
   7 H :    0.117932
   8 H :    0.117517
   9 H :    0.117589
  10 H :    0.114254
  11 H :    0.113126
  12 H :    0.116656
  13 H :    0.121205
  14 H :    0.122841
  15 H :    0.122034
  16 H :    0.113719
  17 H :    0.279153

-------------------------------
LOEWDIN REDUCED ORBITAL CHARGES
-------------------------------
  0 C s       :     2.945016  s :     2.945016
      pz      :     1.118026  p :     3.321770
      px      :     1.079254
      py      :     1.124491
      dz2     :     0.018989  d :     0.071152
      dxz     :     0.013397
      dyz     :     0.007696
      dx2y2   :     0.016290
      dxy     :     0.014780

  1 C s       :     2.905320  s :     2.905320
      pz      :     1.092746  p :     3.240558
      px      :     1.053928
      py      :     1.093884
      dz2     :     0.025078  d :     0.088997
      dxz     :     0.015806
      dyz     :     0.008323
      dx2y2   :     0.024294
      dxy     :     0.015497

  2 C s       :     2.918571  s :     2.918571
      pz      :     1.089400  p :     3.224409
      px      :     1.036302
      py      :     1.098708
      dz2     :     0.023411  d :     0.085210
      dxz     :     0.015394
      dyz     :     0.009458
      dx2y2   :     0.023107
      dxy     :     0.013839

  3 C s       :     2.884947  s :     2.884947
      pz      :     1.047621  p :     3.011800
      px      :     1.005582
      py      :     0.958597
      dz2     :     0.041312  d :     0.158970
      dxz     :     0.022884
      dyz     :     0.023171
      dx2y2   :     0.035810
      dxy     :     0.035793

  4 H s       :     0.907643  s :     0.907643

  5 C s       :     2.957832  s :     2.957832
      pz      :     1.128800  p :     3.327256
      px      :     1.106437
      py      :     1.092019
      dz2     :     0.017401  d :     0.069347
      dxz     :     0.010641
      dyz     :     0.011037
      dx2y2   :     0.015532
      dxy     :     0.014737

  6 O s       :     3.548845  s :     3.548845
      pz      :     1.775363  p :     4.762036
      px      :     1.319027
      py      :     1.667645
      dz2     :     0.003042  d :     0.026345
      dxz     :     0.006042
      dyz     :     0.004292
      dx2y2   :     0.009356
      dxy     :     0.003613

  7 H s       :     0.882068  s :     0.882068

  8 H s       :     0.882483  s :     0.882483

  9 H s       :     0.882411  s :     0.882411

 10 H s       :     0.885746  s :     0.885746

 11 H s       :     0.886874  s :     0.886874

 12 H s       :     0.883344  s :     0.883344

 13 H s       :     0.878795  s :     0.878795

 14 H s       :     0.877159  s :     0.877159

 15 H s       :     0.877966  s :     0.877966

 16 H s       :     0.886281  s :     0.886281

 17 H s       :     0.720847  s :     0.720847


---------------------------------
LOEWDIN BOND ORDERS (THRESH 0.050000)
---------------------------------
B(  0-C ,  1-C ) :   1.1299 B(  0-C ,  2-C ) :   0.0583 B(  0-C ,  7-H ) :   0.9397 
B(  0-C ,  8-H ) :   0.9411 B(  0-C ,  9-H ) :   0.9406 B(  1-C ,  2-C ) :   1.0912 
B(  1-C ,  3-C ) :   0.0556 B(  1-C , 10-H ) :   0.9065 B(  1-C , 11-H ) :   0.9049 
B(  2-C ,  3-C ) :   1.0648 B(  2-C ,  5-C ) :   0.0527 B(  2-C ,  6-O ) :   0.0657 
B(  2-C , 12-H ) :   0.9004 B(  2-C , 13-H ) :   0.8961 B(  3-C ,  4-H ) :   0.8805 
B(  3-C ,  5-C ) :   1.1082 B(  3-C ,  6-O ) :   1.1961 B(  5-C ,  6-O ) :   0.0752 
B(  5-C , 14-H ) :   0.9255 B(  5-C , 15-H ) :   0.9338 B(  5-C , 16-H ) :   0.9334 
B(  6-O , 17-H ) :   0.8882 

------------------------------------------
LOEWDIN REDUCED ORBITAL POPULATIONS PER MO
-------------------------------------------
THRESHOLD FOR PRINTING IS 0.1%%
                      0         1         2         3         4         5   
                 -18.73448  -9.93361  -9.88392  -9.87616  -9.87539  -9.87186
                   2.00000   2.00000   2.00000   2.00000   2.00000   2.00000
                  --------  --------  --------  --------  --------  --------
 0 C  s               0.0       0.0       0.0       0.0       0.0      99.7
 1 C  s               0.0       0.0      99.6       0.0       0.0       0.0
 2 C  s               0.0       0.0       0.0      99.6       0.0       0.0
 3 C  s               0.0      99.6       0.0       0.0       0.0       0.0
 5 C  s               0.0       0.0       0.0       0.0      99.7       0.0
 6 O  s              99.9       0.0       0.0       0.0       0.0       0.0

                      6         7         8         9        10        11   
                  -0.91190  -0.71771  -0.66635  -0.60942  -0.54349  -0.50442
                   2.00000   2.00000   2.00000   2.00000   2.00000   2.00000
                  --------  --------  --------  --------  --------  --------
 0 C  s               0.0       8.8      13.2      12.7      10.9       0.7
 0 C  pz              0.0       0.2       0.1       0.0       1.0       2.1
 0 C  px              0.0       2.1       0.6       0.3       4.9       0.7
 0 C  py              0.0       0.0       0.0       0.0       0.1       0.6
 1 C  s               0.0      20.2       8.0       0.0       9.7       5.2
 1 C  pz              0.0       0.9       0.1       0.0       0.9       7.1
 1 C  px              0.1       0.1       2.9       7.1       3.8       0.1
 1 C  py              0.0       0.6       0.0       0.8       0.3       2.4
 1 C  dxz             0.0       0.0       0.0       0.1       0.1       0.0
 2 C  s               0.8      19.5       0.2      13.6       0.1       8.6
 2 C  pz              0.1       1.0       0.0       0.0       0.3       9.0
 2 C  px              1.2       0.2       5.2       0.3       5.3       0.6
 2 C  py              0.0       0.8       0.0       0.5       2.4       0.8
 2 C  dxz             0.0       0.0       0.1       0.0       0.2       0.0
 3 C  s              10.6       7.2      10.2       0.5       6.8       5.7
 3 C  pz              1.6       0.1       0.0       0.4       0.0       6.5
 3 C  px              2.9       3.3       0.0       7.8       0.1       0.7
 3 C  py              3.9       1.4       4.7       4.4       2.1       0.5
 3 C  dxz             0.1       0.1       0.0       0.1       0.0       0.1
 3 C  dyz             0.2       0.0       0.0       0.0       0.0       0.0
 3 C  dx2y2           0.0       0.0       0.0       0.1       0.0       0.0
 3 C  dxy             0.4       0.1       0.2       0.0       0.0       0.0
 4 H  s               1.3       1.4       2.0       0.1       2.0       6.4
 5 C  s               0.9       4.0      20.0      16.7       2.1       1.7
 5 C  pz              0.0       0.0       0.0       0.0       0.0       1.3
 5 C  px              0.0       0.5       0.2       0.5       0.3       0.4
 5 C  py              1.3       0.4       0.5       0.3       2.1       2.6
 6 O  s              58.0       2.4       3.0       0.0       0.6       0.4
 6 O  pz              1.5       0.0       0.1       0.0       0.3       1.5
 6 O  px              0.3       1.4       1.8       1.8      11.2       3.3
 6 O  py              1.6       0.3       1.0       0.0       2.1       1.4
 7 H  s               0.0       1.5       2.8       3.8       4.5       0.1
 8 H  s               0.0       1.7       2.7       3.2       4.5       1.1
 9 H  s               0.0       1.7       2.8       3.1       4.6       0.9
10 H  s               0.0       3.8       1.5       0.0       3.7       5.2
11 H  s               0.0       3.9       1.4       0.1       4.6       3.6
12 H  s               0.1       3.6       0.1       3.0       0.0       8.0
13 H  s               0.2       3.4       0.0       3.9       0.0       4.9
14 H  s               0.1       1.0       4.3       4.5       1.5       0.7
15 H  s               0.2       0.8       4.1       4.2       1.0       2.2
16 H  s               0.2       0.6       4.2       5.5       1.1       0.7
17 H  s              12.1       1.1       1.6       0.5       4.2       1.3

                     12        13        14        15        16        17   
                  -0.44827  -0.42211  -0.39602  -0.38481  -0.36177  -0.34230
                   2.00000   2.00000   2.00000   2.00000   2.00000   2.00000
                  --------  --------  --------  --------  --------  --------
 0 C  s               0.2       0.1       0.2       0.0       0.0       0.0
 0 C  pz              0.7       2.4       4.7       3.7      10.5       9.7
 0 C  px              0.9       0.2       9.1       0.0       4.3       0.4
 0 C  py              0.9       6.4       0.0       6.4      16.2       3.8
 0 C  dz2             0.0       0.0       0.0       0.0       0.0       0.1
 0 C  dyz             0.0       0.0       0.0       0.0       0.1       0.0
 0 C  dxy             0.0       0.0       0.0       0.0       0.1       0.0
 1 C  s               1.3       0.1       0.3       0.1       0.2       0.0
 1 C  pz              0.3       3.8      11.2       2.2       2.5       0.0
 1 C  px              0.9       1.1       0.2       0.5       1.3       3.2
 1 C  py              2.9      14.3       0.0       6.0       3.7       0.0
 2 C  s               0.6       0.0       0.0       0.0       1.2       0.0
 2 C  pz              2.1       2.3       3.2       0.1       3.7      10.4
 2 C  px              0.3       3.9       8.5       0.0       1.1       0.0
 2 C  py              0.0      14.5       0.3       0.8       3.7       0.5
 2 C  dx2y2           0.0       0.0       0.0       0.1       0.1       0.0
 3 C  s               1.1       0.7       0.1       0.6       0.0       0.0
 3 C  pz             20.0       1.0       1.6       4.1       0.1       0.2
 3 C  px              1.5       0.2      12.6       2.3       0.1       2.3
 3 C  py              2.8       5.8       0.4       7.8       0.1       1.4
 3 C  dyz             0.2       0.1       0.0       0.1       0.0       0.2
 3 C  dx2y2           0.1       0.0       0.0       0.1       0.1       0.2
 3 C  dxy             0.1       0.0       0.0       0.0       0.1       0.0
 4 H  s               9.2       0.2       0.5       1.5       0.1       0.5
 5 C  s               0.3       0.7       0.0       0.1       0.0       0.0
 5 C  pz              5.8       0.5       1.5       7.8       0.6      23.8
 5 C  px              0.7       7.7       9.6       0.0       9.2       6.5
 5 C  py              0.8       2.8       5.6      18.7       1.7       0.0
 5 C  dz2             0.0       0.0       0.0       0.0       0.0       0.3
 5 C  dyz             0.0       0.0       0.0       0.0       0.0       0.1
 5 C  dxy             0.0       0.1       0.0       0.2       0.0       0.0
 6 O  s               1.1       0.1       1.2       1.5       1.0       0.3
 6 O  pz              1.8       0.3       3.2       0.3       0.2       0.3
 6 O  px             23.6       2.9       0.3       4.9       2.0       0.6
 6 O  py              3.7       0.1       5.0       5.6       0.0       0.2
 6 O  dx2y2           0.1       0.0       0.0       0.0       0.0       0.0
 7 H  s               0.0       0.4       4.7       0.0      13.4       0.0
 8 H  s               0.3       2.3       1.2       3.0       1.6       6.9
 9 H  s               0.9       1.6       0.8       2.4       5.2       1.5
10 H  s               0.4       3.8       2.9       2.2       0.2       0.0
11 H  s               2.1       4.8       0.1       3.0       0.5       0.0
12 H  s               0.1       2.5       1.1       0.1       2.3       4.4
13 H  s               0.3       6.6       0.0       0.4       2.7       0.1
14 H  s               0.0       0.2       3.9      10.4       2.8       7.4
15 H  s               3.1       0.2       1.0       0.9       0.3      13.8
16 H  s               0.0       4.7       4.4       1.0       5.3       0.1
17 H  s               8.0       0.6       0.2       0.6       0.8       0.3

                     18        19        20        21        22        23   
                  -0.32877  -0.31563  -0.29946  -0.29183  -0.28411  -0.26246
                   2.00000   2.00000   2.00000   2.00000   2.00000   2.00000
                  --------  --------  --------  --------  --------  --------
 0 C  s               0.1       0.0       0.4       0.0       0.0       0.3
 0 C  pz              4.2       4.0       4.5       6.4       1.6       0.0
 0 C  px             10.8       4.1       9.0       2.5       0.1       4.0
 0 C  py              3.0       9.1       0.2       5.2       4.3       0.0
 0 C  dz2             0.0       0.2       0.1       0.1       0.3       0.0
 0 C  dxz             0.0       0.0       0.0       0.2       0.0       0.1
 0 C  dx2y2           0.2       0.1       0.0       0.2       0.1       0.0
 0 C  dxy             0.0       0.0       0.0       0.3       0.2       0.0
 1 C  s               0.0       0.0       0.1       0.2       0.0       0.0
 1 C  pz              2.2       0.4       6.1      11.2       5.5       0.0
 1 C  px             15.0       2.3       6.3       4.5       0.3       3.2
 1 C  py              0.1       2.0       0.1       8.3      13.0       0.1
 1 C  dz2             0.0       0.0       0.1       0.1       0.8       0.0
 1 C  dxz             0.1       0.1       0.0       0.2       0.0       0.0
 1 C  dyz             0.0       0.0       0.0       0.1       0.1       0.0
 1 C  dx2y2           0.0       0.0       0.3       0.2       0.3       0.2
 1 C  dxy             0.0       0.1       0.0       0.3       0.1       0.0
 2 C  s               0.2       0.0       0.0       0.7       0.0       0.5
 2 C  pz              1.6       3.1       0.9      10.0       4.8       1.9
 2 C  px              0.7       0.0       4.4       7.5       0.1      12.3
 2 C  py              3.9       8.0       2.5       6.0       9.8       0.4
 2 C  dz2             0.0       0.2       0.0       0.1       0.6       0.0
 2 C  dx2y2           0.0       0.0       0.3       0.0       0.2       0.3
 2 C  dxy             0.0       0.1       0.0       0.1       0.0       0.0
 3 C  s               0.2       0.1       0.4       0.1       0.1       0.4
 3 C  pz              2.4       3.9       0.2       0.3       0.7       6.2
 3 C  px              0.4       0.0       8.7       0.5       0.0       6.6
 3 C  py              0.3       6.5       0.5       0.1       0.4       3.2
 3 C  dz2             0.1       0.1       0.1       0.1       0.1       0.2
 3 C  dxz             0.0       0.0       0.1       0.1       0.0       0.1
 3 C  dyz             0.1       0.1       0.0       0.0       0.0       0.0
 3 C  dx2y2           0.1       0.0       0.0       0.0       0.0       0.6
 3 C  dxy             0.0       0.3       0.1       0.2       0.1       0.2
 4 H  s               2.6       3.6       0.7       1.1       1.2       3.1
 5 C  s               0.0       0.2       0.0       0.0       0.0       0.3
 5 C  pz              8.9       5.0       0.0       0.1       0.0       0.9
 5 C  px             10.1       2.2       5.2       0.2       0.1       1.2
 5 C  py              1.2       4.0       0.6       0.2       1.1       5.7
 5 C  dz2             0.2       0.1       0.0       0.0       0.0       0.1
 5 C  dxz             0.2       0.0       0.1       0.0       0.0       0.0
 5 C  dyz             0.0       0.1       0.0       0.0       0.0       0.1
 5 C  dx2y2           0.2       0.0       0.2       0.0       0.0       0.0
 5 C  dxy             0.0       0.0       0.1       0.0       0.0       0.0
 6 O  s               0.5       0.3       2.2       0.1       0.2       4.7
 6 O  pz              3.8      10.0      10.5       0.3       0.2      12.4
 6 O  px              0.5       0.2       0.7       0.6       0.7       5.2
 6 O  py              0.0       0.2      15.5       2.2       1.0      13.1
 7 H  s               0.0       0.4       0.6      10.6       0.0       1.2
 8 H  s               1.2       5.4       2.5       2.5       4.1       0.0
 9 H  s               3.6       7.4       0.1       2.6       5.0       0.0
10 H  s               0.9       0.7       3.3       4.3      11.3       0.1
11 H  s               0.7       1.8       0.9       3.6      12.7       0.5
12 H  s               0.1       5.1       0.2       3.1       9.5       0.5
13 H  s               1.8       3.4       3.5       1.4       8.7       2.2
14 H  s               0.8       0.2       3.5       0.3       0.1       1.2
15 H  s               5.8       4.5       0.0       0.1       0.1       1.0
16 H  s              10.7       0.1       3.6       0.1       0.0       1.8
17 H  s               0.2       0.0       0.3       0.4       0.2       3.4

                     24        25        26        27        28        29   
                  -0.20894   0.02833   0.04760   0.06648   0.07456   0.08235
                   2.00000   0.00000   0.00000   0.00000   0.00000   0.00000
                  --------  --------  --------  --------  --------  --------
 0 C  s               0.0       0.3      10.8       0.2       7.4       3.7
 0 C  pz              0.0       0.0       0.8       1.5       0.7       0.4
 0 C  px              0.0       0.1       2.6       0.2       0.1       0.3
 0 C  py              0.0       0.0       0.1       1.0       0.5       3.7
 0 C  dz2             0.0       0.0       0.0       0.1       0.0       0.0
 0 C  dxz             0.0       0.0       0.2       0.1       0.1       0.0
 0 C  dx2y2           0.0       0.0       0.1       0.0       0.0       0.1
 0 C  dxy             0.0       0.0       0.0       0.1       0.1       0.1
 1 C  s               0.0       1.0       8.4       0.3       3.3       0.3
 1 C  pz              0.1       1.0       1.0       3.9       0.6       0.1
 1 C  px              0.0       0.1       0.4       0.1       0.2       0.7
 1 C  py              0.0       1.4       0.4       2.9       1.3       2.1
 1 C  dz2             0.0       0.0       0.0       0.5       0.0       0.0
 1 C  dxz             0.0       0.0       0.0       0.0       0.2       0.1
 1 C  dyz             0.0       0.1       0.1       0.0       0.0       0.2
 1 C  dx2y2           0.0       0.0       0.0       0.0       0.0       0.6
 2 C  s               0.0       1.3       2.1       0.1       1.0       3.6
 2 C  pz              0.1       0.2       1.8       3.2       0.6       1.0
 2 C  px              0.1       0.1       0.4       0.1       0.0       0.7
 2 C  py              0.0       0.1       0.6       2.1       0.5       1.8
 2 C  dz2             0.1       0.1       0.0       0.5       0.0       0.0
 2 C  dxz             0.0       0.2       0.2       0.0       0.0       0.0
 2 C  dyz             0.0       0.0       0.3       0.0       0.0       0.0
 2 C  dx2y2           0.0       0.0       0.0       0.0       0.0       0.6
 2 C  dxy             0.0       0.0       0.2       0.0       0.1       0.2
 3 C  s               0.0       2.0       0.2       0.9       0.7       2.5
 3 C  pz              2.8       3.2       0.0       4.2       1.1       0.3
 3 C  px              0.2       0.4       0.8       0.0       0.2       0.2
 3 C  py              1.7       0.8       0.3       0.1       0.5       2.1
 3 C  dz2             1.2       0.1       0.1       0.1       0.0       0.0
 3 C  dxz             0.3       0.0       0.2       0.0       0.0       0.1
 3 C  dyz             0.0       0.0       0.0       0.2       0.0       0.1
 3 C  dx2y2           0.4       0.0       0.0       0.1       0.1       0.0
 3 C  dxy             0.0       0.0       0.1       0.0       0.0       0.8
 4 H  s               7.8       7.2       0.1      13.7       5.0       2.2
 5 C  s               1.1       6.1       0.1       4.3       2.9       3.1
 5 C  pz              0.1       0.3       0.1       1.7       0.7       1.5
 5 C  px              0.6       1.7       0.5       0.0       1.5       2.0
 5 C  py              4.6       1.8       0.3       1.4       2.8       0.1
 5 C  dz2             0.0       0.0       0.0       0.1       0.0       0.1
 5 C  dyz             0.0       0.1       0.0       0.1       0.1       0.0
 5 C  dx2y2           0.0       0.0       0.1       0.0       0.0       0.1
 5 C  dxy             0.0       0.2       0.1       0.0       0.0       0.1
 6 O  s               0.0       5.2       1.9       0.1       1.7       1.5
 6 O  pz             42.1       0.4       0.8       0.0       0.8       1.3
 6 O  px              3.9       5.0       1.4       0.0       1.5       0.1
 6 O  py             30.2       0.3       0.2       0.1       0.2       1.2
 7 H  s               0.0       0.4       7.7       0.7       1.4      13.1
 8 H  s               0.0       0.2       9.4       3.3       7.9       2.0
 9 H  s               0.0       0.2       9.1       3.2       9.0       1.1
10 H  s               0.1       1.7       7.7      14.2       3.7       0.0
11 H  s               0.0       3.6       7.4       4.1       8.1       6.7
12 H  s               0.4       1.2       4.4      11.3       2.6       3.4
13 H  s               0.2       1.1       3.6       2.9       3.2      13.1
14 H  s               0.8       5.1       0.8       3.1      15.0       1.6
15 H  s               0.6       2.1       0.3      12.7       0.2       8.6
16 H  s               0.1      11.1       0.6       0.4       0.1       5.7
17 H  s               0.0      31.8      11.3       0.0      12.1       4.4

                     30        31        32        33        34        35   
                   0.10266   0.11557   0.12068   0.13030   0.13814   0.15164
                   0.00000   0.00000   0.00000   0.00000   0.00000   0.00000
                  --------  --------  --------  --------  --------  --------
 0 C  s               1.4       0.0       0.0       5.6       0.0       0.0
 0 C  pz              2.6       6.9       0.4       0.9       3.3       6.4
 0 C  px              1.0       1.2       0.0       2.7       3.8       0.2
 0 C  py              0.2       0.0      10.2       1.3       2.1       5.8
 0 C  dz2             0.0       0.3       0.1       0.0       0.0       0.8
 0 C  dxz             0.0       0.2       0.1       0.6       0.0       0.2
 0 C  dyz             0.2       0.2       0.0       0.1       0.3       0.0
 0 C  dx2y2           0.0       0.0       0.2       0.1       0.0       0.1
 0 C  dxy             0.0       0.0       0.0       0.3       0.6       0.0
 1 C  s               0.0       0.0       0.0       5.4       4.6       0.0
 1 C  pz              0.7       2.6       0.3       0.1       3.9       0.7
 1 C  px              0.4       0.3       0.0       0.8       1.4       1.3
 1 C  py              0.4       1.0       0.5       0.2       1.0       3.6
 1 C  dz2             0.2       0.3       0.0       0.0       0.0       0.0
 1 C  dxz             0.0       0.2       0.0       0.3       0.5       0.1
 1 C  dyz             0.4       0.0       0.1       0.0       0.1       0.1
 1 C  dx2y2           0.0       0.0       0.1       0.2       0.0       1.0
 1 C  dxy             0.0       0.0       0.1       0.2       0.4       0.4
 2 C  s               2.1       0.0       0.2       5.2       3.7       0.1
 2 C  pz              3.4       0.2       0.7       0.2       0.2       2.3
 2 C  px              1.5       0.1       0.5       1.0       2.1       0.3
 2 C  py              0.1       1.1       4.1       1.0       1.2       2.6
 2 C  dz2             0.1       0.0       0.0       0.1       0.0       0.3
 2 C  dxz             0.4       0.0       0.0       0.9       0.5       0.3
 2 C  dyz             0.2       0.0       0.0       0.0       0.2       0.5
 2 C  dx2y2           0.1       0.0       0.0       0.0       0.0       0.2
 2 C  dxy             0.3       0.3       0.0       0.1       0.0       0.0
 3 C  s               2.2       0.0       2.5       1.0       0.5       0.5
 3 C  pz              1.2       0.1       1.9       4.7       1.8       0.2
 3 C  px              0.8       0.0       1.4       3.5       0.4       0.1
 3 C  py              3.0       0.1       0.0       0.3       0.1       2.0
 3 C  dz2             0.1       0.0       0.0       0.3       0.2       0.0
 3 C  dxz             0.0       0.1       0.1       0.8       0.0       0.0
 3 C  dyz             0.1       0.5       0.0       0.0       0.2       0.2
 3 C  dx2y2           0.1       0.0       0.4       0.3       0.0       0.1
 3 C  dxy             1.1       0.2       0.0       0.2       0.0       0.3
 4 H  s               4.3       1.0       8.7      13.0       5.1       0.3
 5 C  s               7.0       0.1       1.2       1.5       0.0       1.6
 5 C  pz              0.6      13.1       0.5       1.9       0.4       0.3
 5 C  px              5.5       0.8       5.5       0.2       1.2       4.6
 5 C  py              2.0       0.3       0.7       0.5       0.0       0.5
 5 C  dz2             0.1       0.7       0.2       0.2       0.0       0.0
 5 C  dxz             0.0       0.2       0.3       0.0       0.0       0.5
 5 C  dyz             0.3       0.0       0.0       0.0       0.2       0.0
 5 C  dx2y2           0.0       0.1       0.3       0.4       0.0       0.2
 5 C  dxy             0.5       0.0       0.0       0.0       0.0       0.1
 6 O  s               1.2       0.3       0.6       0.0       0.1       0.1
 6 O  pz              0.1       0.1       0.4       0.0       0.1       0.1
 6 O  px              0.1       0.1       0.0       1.3       0.9       0.5
 6 O  py              0.2       0.0       0.5       1.3       0.1       0.0
 7 H  s              10.6       9.1       3.4       1.0      18.8       0.0
 8 H  s               1.0      11.5       5.0       6.0       2.2      17.7
 9 H  s               0.7       0.1      17.2       8.9       1.2       9.0
10 H  s               0.5       6.3       0.9       3.2      20.4       2.1
11 H  s               0.3       2.0       1.4       1.6       0.4       8.2
12 H  s               9.8       0.6       5.5       2.8       0.9       6.8
13 H  s               0.9       1.4       6.2       7.3      10.7       4.7
14 H  s               1.0       0.6      12.9       0.6       1.7       5.7
15 H  s               1.1      25.0       0.1       5.7       0.8       1.9
16 H  s              27.4       9.3       3.2       0.8       0.9       3.4
17 H  s               0.6       1.1       1.0       3.3       1.2       0.9

                     36        37        38        39        40        41   
                   0.16553   0.16990   0.20586   0.21373   0.22112   0.24832
                   0.00000   0.00000   0.00000   0.00000   0.00000   0.00000
                  --------  --------  --------  --------  --------  --------
 0 C  s               0.2       0.2       0.1       0.8       0.1       0.9
 0 C  pz              0.4       0.6       2.3       2.4       0.2       1.6
 0 C  px              3.4       1.9       7.4       9.1       2.1      10.6
 0 C  py              2.7       0.6       0.1       0.8       0.2       0.4
 0 C  dz2             0.0       0.1       0.3       0.0       0.6       0.1
 0 C  dxz             0.4       0.0       0.3       1.3       0.0       1.8
 0 C  dyz             0.1       0.0       0.0       0.2       0.7       0.0
 0 C  dx2y2           0.2       0.8       1.0       1.6       0.7       0.9
 0 C  dxy             0.0       0.2       0.0       0.0       0.1       0.7
 1 C  s               0.1       2.4       0.6       1.5       4.8       1.8
 1 C  pz              2.2       5.4       0.7       0.0       8.8       1.0
 1 C  px              3.7       0.1       3.4      10.6       9.5       7.5
 1 C  py              3.5       2.6       0.7       0.5       8.9       0.2
 1 C  dz2             0.0       0.4       0.1       0.3       0.1       0.1
 1 C  dxz             1.0       0.0       0.1       1.4       1.6       0.3
 1 C  dyz             0.3       0.4       0.0       0.1       2.3       0.3
 1 C  dx2y2           0.3       0.1       1.6       0.3       0.3       0.0
 1 C  dxy             0.2       0.0       0.0       0.1       2.6       0.3
 2 C  s               0.4       1.3       3.7       0.3       6.9       1.0
 2 C  pz              1.0       1.1       0.6       1.1      11.2       4.7
 2 C  px              5.6       1.0       5.9       5.7       6.2       4.9
 2 C  py              5.4       0.7       0.5       2.4       6.1       0.1
 2 C  dz2             0.6       0.1       0.3       0.1       0.0       0.2
 2 C  dxz             0.8       0.0       0.3       1.3       0.7       0.5
 2 C  dyz             0.2       0.1       0.0       0.6       1.8       0.1
 2 C  dx2y2           0.3       0.0       2.9       0.1       0.2       1.6
 2 C  dxy             0.0       0.8       0.2       0.0       1.7       0.2
 3 C  s               0.0       3.2      12.0       1.5       0.3       5.2
 3 C  pz              0.3       1.0       6.3       0.2       1.0       5.7
 3 C  px              7.6       3.5       1.3      14.2       2.9       0.7
 3 C  py              2.3       7.3       6.6       4.4       1.5      11.7
 3 C  dz2             0.0       0.0       1.2       0.3       0.2       0.2
 3 C  dxz             1.9       0.1       0.4       1.2       0.0       0.0
 3 C  dyz             0.3       1.3       0.0       0.1       0.7       1.3
 3 C  dx2y2           0.1       0.2       0.1       1.4       0.7       0.6
 3 C  dxy             0.0       1.1       0.2       0.2       0.0       1.1
 4 H  s               0.5       4.1       1.4       0.0       1.8       0.1
 5 C  s               0.1       0.7       0.8       0.7       0.0       0.1
 5 C  pz              3.2       3.0       0.2       0.3       0.1       1.6
 5 C  px              1.8       0.5       4.0       0.7       0.2       1.7
 5 C  py              2.2       1.1      12.7      15.3       0.7       1.1
 5 C  dz2             0.0       0.3       0.9       0.8       0.2       0.1
 5 C  dxz             0.4       0.0       0.0       0.0       0.1       0.1
 5 C  dyz             0.3       0.1       0.0       0.5       0.1       0.5
 5 C  dx2y2           0.0       0.4       0.8       1.8       0.5       0.0
 5 C  dxy             0.0       0.2       3.8       1.0       0.0       0.0
 6 O  s               0.5       0.9       0.3       0.2       0.2       1.9
 6 O  pz              0.9       0.8       0.3       0.1       0.9       0.6
 6 O  px              1.3       4.9       0.0       0.0       0.6       5.5
 6 O  py              0.4       3.2       0.2       1.2       0.5       2.3
 6 O  dxz             0.0       0.1       0.0       0.1       0.0       0.4
 6 O  dyz             0.1       0.2       0.0       0.1       0.0       0.0
 6 O  dx2y2           0.0       0.0       0.0       0.1       0.3       0.0
 6 O  dxy             0.0       0.1       0.2       0.0       0.0       0.5
 7 H  s               0.3       0.3       2.2       0.2       0.3       3.6
 8 H  s               0.2       0.2       1.1       0.3       1.0       0.5
 9 H  s               6.2       0.6       0.7       0.9       1.0       0.3
10 H  s               0.5       5.7       0.1       0.7       1.0       0.5
11 H  s               8.4      10.5       1.7       0.3       1.3       0.1
12 H  s               5.1       6.0       2.8       1.5       1.3       2.6
13 H  s              10.1       0.0       0.5       2.3       0.2       1.2
14 H  s               7.9       5.9       0.9       2.7       0.2       1.8
15 H  s               3.3       2.5       1.3       1.0       0.6       3.0
16 H  s               0.1       5.5       0.8       0.8       0.3       0.6
17 H  s               0.7       3.5       0.6       0.1       0.9       1.0

                     42        43        44        45        46        47   
                   0.38308   0.39625   0.40439   0.42488   0.43064   0.45555
                   0.00000   0.00000   0.00000   0.00000   0.00000   0.00000
                  --------  --------  --------  --------  --------  --------
 0 C  s               0.1       0.1       0.0       2.0       0.8       1.1
 0 C  pz              1.7       1.5      10.4       3.1      10.7       1.0
 0 C  px              1.4       0.3       0.3      11.1       3.2       5.0
 0 C  py              0.2       5.8      16.3       0.3       3.5       0.2
 0 C  dz2             0.0       0.0       6.1       0.0       0.4       0.0
 0 C  dxz             0.1       0.1       0.0       1.6       0.1       0.3
 0 C  dyz             0.3       0.7       0.9       0.0       1.1       0.0
 0 C  dx2y2           0.1       0.7       1.0       0.5       1.6       0.0
 0 C  dxy             0.1       0.1       0.8       0.3       1.4       0.2
 1 C  s               0.2       0.0       0.0       0.5       1.3       0.3
 1 C  pz              6.2       0.1       1.6      11.7       0.7       1.2
 1 C  px              1.0       1.3       0.3       3.5       7.9       0.4
 1 C  py              1.6       2.8       3.8       4.0       2.7       1.4
 1 C  dz2             0.2       1.4       3.2       0.4       0.1       0.1
 1 C  dxz             0.0       0.1       0.2       0.3       1.9       0.1
 1 C  dyz             0.8       0.0       0.6       1.4       0.1       0.3
 1 C  dx2y2           0.1       0.2       0.6       2.4       0.1       1.1
 1 C  dxy             0.2       0.1       1.2       0.2       0.9       0.0
 2 C  s               1.8       1.3       0.1       0.4       0.4       0.5
 2 C  pz              4.7       7.2       0.0       1.4       4.6       0.3
 2 C  px              3.2       0.7       0.2       1.7      11.2       3.3
 2 C  py              8.9       3.6       0.1       1.1       1.4       0.0
 2 C  dz2             0.5       3.6       0.0       0.0       0.8       0.1
 2 C  dxz             0.0       0.3       0.2       0.3       0.4       0.0
 2 C  dyz             0.2       0.7       0.0       0.7       1.4       0.0
 2 C  dx2y2           1.2       0.0       0.2       0.2       0.1       0.1
 2 C  dxy             0.7       0.3       0.2       0.0       0.5       0.3
 3 C  s               0.0       0.1       0.0       0.6       0.6       1.2
 3 C  pz              0.9       0.6       0.3       0.9       1.2       0.4
 3 C  px              1.4       6.1       0.2       9.7       3.0       2.4
 3 C  py              2.5       3.0       0.3       3.3       0.2       3.4
 3 C  dz2             0.3       0.3       0.2       0.5       1.5       0.7
 3 C  dxz             0.8       1.6       0.0       0.3       0.0       0.0
 3 C  dyz             0.9       0.0       0.0       0.2       0.0       0.0
 3 C  dx2y2           0.6       0.3       0.0       0.0       0.5       1.7
 3 C  dxy             0.2       0.7       0.0       0.2       0.0       0.5
 4 H  s               2.5       0.1       0.3       1.6       4.5       3.0
 5 C  s               0.6       1.5       0.0       0.2       0.2       1.7
 5 C  pz             13.1       1.2       0.0       2.7       0.9       4.3
 5 C  px              3.3      16.7       1.2       0.2       0.0       4.9
 5 C  py              1.8       2.3       0.2       6.4       0.3      19.8
 5 C  dz2             3.7       0.3       0.0       0.6       0.1       0.6
 5 C  dxz             1.0       1.4       0.2       0.0       0.1       2.0
 5 C  dyz             0.3       0.5       0.0       0.7       0.1       1.9
 5 C  dx2y2           0.8       0.5       0.0       0.2       0.2       0.0
 5 C  dxy             0.0       0.1       0.0       0.2       0.0       2.7
 6 O  s               0.0       0.0       0.0       0.7       0.2       0.7
 6 O  pz              0.1       0.3       0.0       0.7       0.8       1.9
 6 O  px              0.3       0.0       0.0       1.1       0.8       0.2
 6 O  py              0.0       0.2       0.0       1.6       0.1       2.1
 6 O  dxz             0.0       0.0       0.0       0.1       0.3       0.0
 6 O  dx2y2           0.0       0.0       0.0       0.2       0.4       0.5
 6 O  dxy             0.0       0.0       0.0       0.1       0.0       0.3
 7 H  s               0.4       2.1       0.0       3.8       5.6       1.5
 8 H  s               0.2       0.6      15.2       0.2       3.9       0.0
 9 H  s               0.3       1.1      13.5       0.4       4.3       0.0
10 H  s               1.8       2.5       8.9       3.6       0.1       0.6
11 H  s               0.8       1.5       9.7       2.7       2.4       0.7
12 H  s               0.2      11.4       0.3       0.1       4.0       0.8
13 H  s               6.8       4.0       0.3       0.4       0.2       0.0
14 H  s               0.2       1.0       0.1       3.1       0.4      17.0
15 H  s              10.5       1.4       0.0       1.7       0.1       1.3
16 H  s               7.7       3.2       0.4       1.1       0.4       0.8
17 H  s               0.6       0.0       0.0       1.0       3.4       3.1

                     48        49        50        51        52        53   
                   0.47509   0.54928   0.56530   0.56734   0.59162   0.59799
                   0.00000   0.00000   0.00000   0.00000   0.00000   0.00000
                  --------  --------  --------  --------  --------  --------
 0 C  s               0.0       0.0       2.3       1.9       2.5       1.4
 0 C  pz              4.2       9.5       0.2       1.0       0.5       0.2
 0 C  px              0.6       0.8       8.9       9.2       0.9       0.5
 0 C  py              5.7       2.3       1.0       1.5       0.4       1.3
 0 C  dz2             0.0       0.9       0.1       0.2       0.0       0.1
 0 C  dxz             0.2       0.1       0.1       0.0       0.3       0.0
 0 C  dyz             1.5       0.6       0.0       0.5       0.4       0.3
 0 C  dx2y2           0.4       0.5       0.1       0.1       0.1       0.0
 0 C  dxy             0.5       0.4       0.0       0.2       0.3       0.1
 1 C  s               1.6       0.7       4.5       1.0       0.5       8.6
 1 C  pz              4.9       3.0       6.0       0.2       0.2       0.4
 1 C  px              1.7       0.3       0.3       1.5       7.1      15.6
 1 C  py              2.8       5.6       0.3       2.9       0.1       4.3
 1 C  dz2             0.1       0.9       0.1       0.5       0.1       0.0
 1 C  dxz             0.0       0.3       0.0       0.1       0.0       0.1
 1 C  dyz             0.7       0.3       0.2       0.0       0.0       0.0
 1 C  dx2y2           0.1       0.6       0.3       0.5       0.0       0.3
 1 C  dxy             0.0       0.0       0.0       0.2       0.0       0.0
 2 C  s               2.3       2.8       0.5       1.6       4.5      11.3
 2 C  pz              2.2       3.6       1.1       0.7       3.6       4.1
 2 C  px              2.5       4.5       1.1       3.9       3.1       3.3
 2 C  py              0.6       0.3       3.5       0.3       1.5       1.8
 2 C  dz2             0.0       0.3       0.2       0.2       1.2       0.0
 2 C  dxz             0.4       0.7       0.4       0.6       0.9       0.1
 2 C  dyz             0.3       0.7       0.0       0.0       0.1       0.1
 2 C  dx2y2           0.0       0.3       0.2       0.0       0.7       0.4
 2 C  dxy             0.6       0.4       0.1       0.1       0.1       0.0
 3 C  s               9.1       3.1       0.5       3.6       0.8       6.4
 3 C  pz              2.7       3.1       4.5       1.2      13.1       0.3
 3 C  px              2.5       2.4       2.5       6.2       8.0       1.8
 3 C  py              9.1       2.7       4.5      27.1       0.1       0.3
 3 C  dz2             0.0       2.0       0.3       0.2       1.6       0.0
 3 C  dxz             0.2       0.0       0.0       0.0       0.2       0.0
 3 C  dyz             0.4       0.1       0.0       0.1       0.3       0.1
 3 C  dx2y2           0.1       0.0       0.0       0.0       0.3       0.0
 3 C  dxy             0.4       0.1       0.5       0.0       0.0       0.0
 4 H  s               1.9       1.7       3.7       4.5       6.1       0.5
[...]
 3 C  dxy             0.4       0.2       0.3      12.0       7.5       2.7
 4 H  s               0.7       0.4       0.1       0.7       0.1       0.3
 5 C  s               0.1       0.1       0.2       0.4       1.2       0.1
 5 C  pz              0.1       0.0       0.0       0.0       0.0       0.0
 5 C  px              0.0       0.0       0.1       0.1       0.4       0.0
 5 C  py              0.3       0.0       0.2       1.1       1.7       0.1
 5 C  dz2             9.0       0.1       1.0       1.2       4.8       0.0
 5 C  dxz             2.8       0.5       1.1       0.6       0.0       0.2
 5 C  dyz             1.1       0.6       0.1       1.9       0.0       0.4
 5 C  dx2y2           0.3       0.0       1.2      11.3       5.2       1.0
 5 C  dxy             3.8       0.0       8.2       1.4       6.1       0.1
 6 O  s               0.5       0.1       0.1       0.0       0.1       0.0
 6 O  px              0.1       0.2       0.0       0.0       0.0       0.0
 6 O  py              0.1       0.0       0.1       0.0       0.1       0.1
 6 O  dz2             1.2       0.2       2.4       2.4       1.9      10.2
 6 O  dxz             0.1       0.2       0.3       0.9       6.6      12.8
 6 O  dyz             2.0       0.8       2.2       0.8       0.2       3.0
 6 O  dx2y2           0.1       0.3       2.2       0.9       0.6       0.5
 6 O  dxy             1.0       0.0       0.8       1.6       7.6      10.9
 7 H  s               0.8       0.2       0.6       0.0       0.0       0.2
 8 H  s               0.3       1.8       0.1       0.1       0.0       0.0
 9 H  s               0.5       0.4       1.2       0.1       0.0       0.0
10 H  s               1.3       0.5       0.8       0.2       0.6       0.1
11 H  s               0.7       0.3       0.2       0.8       0.4       0.1
12 H  s               0.1       2.3       1.4       0.2       0.2       0.0
13 H  s               0.1       2.5       0.5       0.7       0.3       0.3
14 H  s               0.1       0.0       0.4       0.0       0.1       0.0
15 H  s               1.4       0.0       0.1       0.0       0.2       0.0
16 H  s               0.6       0.1       0.2       0.4       0.1       0.1
17 H  s               0.1       0.0       0.0       0.1       0.0       0.1

                    102       103       104       105       106       107   
                   2.57894   2.60364   2.81332   2.86321   2.95083   3.29370
                   0.00000   0.00000   0.00000   0.00000   0.00000   0.00000
                  --------  --------  --------  --------  --------  --------
 0 C  s               0.3       0.8       0.1       0.0       0.0       0.0
 0 C  pz              0.1       0.1       0.0       0.0       0.0       0.0
 0 C  px              0.7       1.1       0.2       0.0       0.1       0.0
 0 C  dz2             0.2       1.8       0.1       0.0       0.0       0.0
 0 C  dxz             3.3       0.5       0.2       0.0       0.1       0.0
 0 C  dyz             0.0       0.1       0.0       0.0       0.0       0.0
 0 C  dx2y2           1.7       5.4       0.3       0.0       0.1       0.0
 0 C  dxy             1.0       0.2       0.0       0.0       0.0       0.0
 1 C  px              0.9       2.9       0.5       0.0       0.1       0.0
 1 C  py              0.2       0.1       0.1       0.0       0.0       0.0
 1 C  dz2             1.0       0.6       0.0       0.0       0.0       0.1
 1 C  dxz             4.2      12.8       1.7       0.1       0.5       0.0
 1 C  dyz             2.0       0.0       0.4       0.0       0.2       0.0
 1 C  dx2y2           4.4       0.1       0.4       0.0       0.1       0.0
 1 C  dxy             0.9       7.4       0.9       0.0       0.2       0.0
 2 C  s               0.9       0.1       0.1       0.0       0.0       0.0
 2 C  pz              0.3       0.1       0.0       0.0       0.0       0.0
 2 C  px              0.0       3.7       0.7       0.2       0.3       0.2
 2 C  py              0.1       0.3       0.0       0.1       0.0       0.1
 2 C  dz2             4.1       1.2       0.1       0.3       0.3       0.2
 2 C  dxz             0.2      13.2       4.7       0.2       0.9       0.1
 2 C  dyz             0.4       1.7       0.0       0.0       0.0       0.1
 2 C  dx2y2           7.6       6.5       0.0       0.6       0.0       0.3
 2 C  dxy             0.5       2.8       2.6       0.0       1.5       0.0
 3 C  s               0.0       1.0       0.1       0.0       0.0       1.8
 3 C  pz              0.0       0.4       0.6       0.6       0.0       0.6
 3 C  px              0.5       2.8       0.1       0.2       0.1       1.2
 3 C  py              0.4       0.3       0.1       0.1       0.1       2.1
 3 C  dz2             2.3       0.0       5.0       1.8       0.2       0.3
 3 C  dxz             5.6       5.2       0.9       1.9       0.4       2.8
 3 C  dyz             0.1       1.0       1.4       0.4       3.1       3.5
 3 C  dx2y2           3.4       3.1       3.3      11.8       3.4       0.7
 3 C  dxy             2.3       0.0       3.9       0.0       0.6       6.0
 5 C  s               0.3       0.2       0.1       0.0       0.0       0.1
 5 C  px              0.2       0.2       0.1       0.1       0.0       0.0
 5 C  py              0.5       0.2       0.1       0.2       0.0       0.1
 5 C  dz2             1.4       0.7       0.0       0.2       0.1       0.0
 5 C  dxz             0.2       0.0       0.1       0.0       0.1       0.0
 5 C  dyz             0.0       0.1       0.0       0.6       0.5       0.0
 5 C  dx2y2           1.4       0.6       0.3       0.3       0.0       0.1
 5 C  dxy             1.2       0.4       0.3       2.4       0.4       0.0
 6 O  s               0.0       0.0       0.4       0.6       2.2       4.1
 6 O  pz              0.0       0.0       0.9       0.1       0.2       0.4
 6 O  px              0.0       0.1       1.2       0.6       0.3       2.6
 6 O  py              0.0       0.0       0.0       0.6       0.0       1.9
 6 O  dz2            22.8       1.0       4.2      28.3      13.4       2.0
 6 O  dxz             8.2       4.1       3.1      32.6       4.1      13.3
 6 O  dyz             0.0       7.9      47.1       0.2       0.6      18.8
 6 O  dx2y2           0.2       1.1       4.7      13.6      53.5       6.1
 6 O  dxy            12.6       5.4       7.2       0.1       6.4      29.4
 7 H  s               0.2       0.0       0.0       0.0       0.0       0.0
12 H  s               0.4       0.1       0.0       0.0       0.0       0.0
13 H  s               0.1       0.0       0.0       0.1       0.0       0.0
14 H  s               0.0       0.0       0.0       0.1       0.0       0.0
15 H  s               0.1       0.0       0.0       0.0       0.0       0.0
16 H  s               0.1       0.1       0.0       0.0       0.0       0.0
17 H  s               0.0       0.0       1.5       0.7       5.4       0.8



                      *****************************
                      * MAYER POPULATION ANALYSIS *
                      *****************************

  NA   - Mulliken gross atomic population
  ZA   - Total nuclear charge
  QA   - Mulliken gross atomic charge
  VA   - Mayer's total valence
  BVA  - Mayer's bonded valence
  FA   - Mayer's free valence

  ATOM       NA         ZA         QA         VA         BVA        FA
  0 C      6.2570     6.0000    -0.2570     4.0175     4.0175     0.0000
  1 C      6.2096     6.0000    -0.2096     4.1444     4.1444     0.0000
  2 C      6.1505     6.0000    -0.1505     4.0022     4.0022    -0.0000
  3 C      5.9645     6.0000     0.0355     4.2232     4.2232     0.0000
  4 H      0.9470     1.0000     0.0530     0.9499     0.9499    -0.0000
  5 C      6.2768     6.0000    -0.2768     3.9395     3.9395    -0.0000
  6 O      8.4258     8.0000    -0.4258     1.9923     1.9923     0.0000
  7 H      0.8991     1.0000     0.1009     0.9497     0.9497     0.0000
  8 H      0.9022     1.0000     0.0978     0.9573     0.9573     0.0000
  9 H      0.9008     1.0000     0.0992     0.9579     0.9579     0.0000
 10 H      0.9155     1.0000     0.0845     0.9483     0.9483    -0.0000
 11 H      0.9093     1.0000     0.0907     0.9479     0.9479     0.0000
 12 H      0.9210     1.0000     0.0790     0.9662     0.9662     0.0000
 13 H      0.9103     1.0000     0.0897     0.9679     0.9679     0.0000
 14 H      0.8958     1.0000     0.1042     0.9680     0.9680     0.0000
 15 H      0.8972     1.0000     0.1028     0.9705     0.9705    -0.0000
 16 H      0.9080     1.0000     0.0920     0.9594     0.9594     0.0000
 17 H      0.7095     1.0000     0.2905     0.8906     0.8906    -0.0000

  Mayer bond orders larger than 0.100000
B(  0-C ,  1-C ) :   1.1563 B(  0-C ,  7-H ) :   0.9534 B(  0-C ,  8-H ) :   0.9547 
B(  0-C ,  9-H ) :   0.9548 B(  1-C ,  2-C ) :   1.1180 B(  1-C , 10-H ) :   0.9242 
B(  1-C , 11-H ) :   0.9198 B(  2-C ,  3-C ) :   1.0779 B(  2-C , 12-H ) :   0.9145 
B(  2-C , 13-H ) :   0.9149 B(  3-C ,  4-H ) :   0.9094 B(  3-C ,  5-C ) :   1.1060 
B(  3-C ,  6-O ) :   1.0688 B(  5-C , 14-H ) :   0.9330 B(  5-C , 15-H ) :   0.9419 
B(  5-C , 16-H ) :   0.9450 B(  6-O , 17-H ) :   0.8535 

-------
TIMINGS
-------

Total SCF time: 0 days 0 hours 0 min 5 sec 

Total time                  ....       5.615 sec
Sum of individual times     ....       5.200 sec  ( 92.6%)

SCF preparation             ....       0.151 sec  (  2.7%)
Fock matrix formation       ....       4.448 sec  ( 79.2%)
  Startup                   ....       0.049 sec  (  1.1% of F)
  Split-RI-J                ....       1.201 sec  ( 27.0% of F)
  XC integration            ....       2.818 sec  ( 63.4% of F)
    Basis function eval.    ....       0.860 sec  ( 30.5% of XC)
    Density eval.           ....       0.280 sec  (  9.9% of XC)
    XC-Functional eval.     ....       0.242 sec  (  8.6% of XC)
    XC-Potential eval.      ....       0.483 sec  ( 17.1% of XC)
Diagonalization             ....       0.000 sec  (  0.0%)
Density matrix formation    ....       0.131 sec  (  2.3%)
Total Energy calculation    ....       0.027 sec  (  0.5%)
Population analysis         ....       0.056 sec  (  1.0%)
Orbital Transformation      ....       0.039 sec  (  0.7%)
Orbital Orthonormalization  ....       0.000 sec  (  0.0%)
DIIS solution               ....       0.288 sec  (  5.1%)
  MO trafo                  ....       0.000 sec  (  0.0 % of DIIS)
  Orb grad                  ....       0.000 sec  (  0.0 % of DIIS)
  Energy W gradient         ....       0.000 sec  (  0.0 % of DIIS)
  DIIS error                ....       0.002 sec  (  0.6 % of DIIS)
  DIIS work                 ....       0.253 sec  ( 87.7 % of DIIS)
  Form Q                    ....       0.000 sec  (  0.0 % of DIIS)
  Form QpQm                 ....       0.000 sec  (  0.0 % of DIIS)
  Exp/Cayley                ....       0.000 sec  (  0.0 % of DIIS)
  Orb update                ....       0.000 sec  (  0.0 % of DIIS)
  Wake-sleep                ....       0.014 sec  (  4.8 % of DIIS)
SOSCF solution              ....       0.060 sec  (  1.1%)
  MO trafo                  ....       0.035 sec  ( 58.7 % of SOSCF)
  Orb grad                  ....       0.001 sec  (  2.0 % of SOSCF)
  Rot update                ....       0.011 sec  ( 18.2 % of SOSCF)
  Step                      ....       0.013 sec  ( 20.9 % of SOSCF)
Finished LeanSCF after   5.7 sec

Maximum memory used throughout the entire LEANSCF-calculation: 10.5 MB


-------------------------------------------------------------------------------
                          DFT DISPERSION CORRECTION                            
                                                                               
                                DFTD4 V3.4.0                                   
-------------------------------------------------------------------------------
The PBE functional is recognized
Active option DFTDOPT                   ...         5   

-------------------------   ----------------
Dispersion correction           -0.012279859
-------------------------   ----------------

------------------   -----------------
gCP correction             0.082044518
------------------   -----------------

-------------------------   --------------------
FINAL SINGLE POINT ENERGY      -272.305315400949
-------------------------   --------------------


------------------------------------------------------------------------------
                              ORCA PROPERTY CALCULATIONS
------------------------------------------------------------------------------

GBWName                                 ... sp.gbw
Number of atoms                         ...     18
Number of basis functions               ...    108
Max core memory                         ...   1024 MB

Electric properties:
Dipole moment                           ... YES
Quadrupole moment                       ...  NO
Static polarizability (Dipole/Dipole)   ...  NO
Static polarizability (Dipole/Quad.)    ...  NO
Static polarizability (Quad./Quad.)     ...  NO
Static polarizability (Velocity)        ...  NO

Atomic electric properties:
Dipole moment                           ...  NO
Quadrupole moment                       ...  NO
Static polarizability                   ...  NO

Choice of electric origin               ... Center of mass
Position of electric origin             ...     0.000024    -0.000019    -0.000005

General magnetic properties:
Magnetizability                         ...  NO

EPR properties:
g-Tensor (aka g-matrix)                 ...  NO
Zero-Field splitting spin-orbit         ...  NO
Zero-field splitting spin-spin          ...  NO
Hyperfine couplings                     ...  NO (   0 nuclei)
Quadrupole couplings                    ...  NO (   0 nuclei)
Contact density                         ...  NO (   0 nuclei)

NMR properties:
Chemical shifts                         ...  NO (   0 nuclei)
Spin-rotation constants                 ...  NO (   0 nuclei)
Spin-spin couplings                     ...  NO (   0 nuclei,    0 pairs)

Choice of magnetic origin               ... GIAO
Position of magnetic origin             ...     0.000000     0.000000     0.000000

Properties with geometric perturbations:
SCF Hessian                             ...  NO
IR spectrum                             ...  NO
VCD spectrum                            ...  NO
X-ray spectroscopy properties:
SCF XES/XAS/RIXS spectra                ...  NO


-------------
DIPOLE MOMENT
-------------

Method             : SCF
Type of density    : Electron Density
Multiplicity       :   1
Irrep              :   0
Energy             :  -272.3750800599706281 Eh
Relativity type    : 
Basis              : AO
                                X                 Y                 Z
Electronic contribution:     -4.069857754       3.264200139       0.418553077
Nuclear contribution   :      3.816474520      -3.625209787      -0.788754952
                        -----------------------------------------
Total Dipole Moment    :     -0.253383234      -0.361009647      -0.370201875
                        -----------------------------------------
Magnitude (a.u.)       :      0.575830233
Magnitude (Debye)      :      1.463644134



--------------------
Rotational spectrum 
--------------------
 
Rotational constants in cm-1:             0.233437             0.057772             0.050017 
Rotational constants in MHz :          6998.268771          1731.960323          1499.480072 

Dipole components along the rotational axes: 
x,y,z [a.u.] :    -0.186219    -0.479654    -0.258525 
x,y,z [Debye]:    -0.473332    -1.219182    -0.657119 

 

Dipole moment calculation done in   0.0 sec 

Maximum memory used throughout the entire PROP-calculation: 6.6 MB

--------------------------------
SUGGESTED CITATIONS FOR THIS RUN
--------------------------------

Below you find a list of papers that are relevant to this ORCA run
We neither can nor want to force you to cite these papers, but we appreciate if you do
You receive ORCA, which is the product of decades of hard work by many enthusiastic individuals, for free
The only thing we kindly ask in return is that you cite our papers,
We deeply appreciate it, if you show your appreciation for ORCA by not just citing the generic ORCA reference.

Please note that relegating all ORCA citations to the supporting information does *not* help us.
SI sections are not indexed - citations you put there will not count into any citation statistics
But we need these citations in order to attract the funding resources that allow us to do what we are doing

Therefore, if you are a happy ORCA user, please consider citing a few of the papers listed below in the main body of your paper

In addition to the list printed below, the program has created the file sp.bibtex that contains the list in bibtex format
You can import this file easily into all common literature databanks and citation aid programs


List of essential papers. We consider these as the minimum necessary citations

  1. Neese,F.
     Software update: the ORCA program system, version 5.0
     WIRES Comput. Molec. Sci., 2022 12(1)e1606
     doi.org/10.1002/wcms.1606

List of papers to cite with high priority. The work reported in these papers was absolutely
necessary for this run to complete.
Our perspective: the developers of density functionals and basis sets usually get cited in chemistry papers
Good! But without the algorithms to do something with them, the functionals or basis sets would not do anything.
Hence, in our opinion, the algorithm design and method developments papers are equally worthy of getting cited

  1. Neese,F.
     An improvement of the resolution of the identity approximation for the formation of the Coulomb matrix
     J. Comp. Chem., 2003 24(14)1740-1747
     doi.org/10.1002/jcc.10318
  2. Neese,F.
     The SHARK Integral Generation and Digestion System
     J. Comp. Chem., 2022  1-16
     doi.org/10.1002/jcc.26942
  3. Caldeweyher,E.; Bannwarth,C.; Grimme,S.
     Extension of the D3 dispersion coefficient model
     J. Chem. Phys., 2017 147 034112-XXXX
     doi.org/10.1063/1.4993215
  4. Caldeweyher,E.; Ehlert,S.; Hansen,A.; Neugebauer,H.; Spicher,S.; Bannwarth,C.; Grimme,S.
     A generally applicable atomic-charge dependent London dispersion correction
     J. Chem. Phys., 2019 150 154122-XXXX
     doi.org/10.1063/1.5090222
  5. Caldeweyher,E.; Mewes,J.; Ehlert,S.; Grimme,S.
     Extension and evaluation of the D4 London-dispersion model for periodic systems
     Phys. Chem. Chem. Phys., 2020 22(16)8499-8512
     doi.org/10.1039/D0CP00502A

List of suggested additional citations. These are papers that are important in the 'surrounding' of 
of this run, or papers that preceded the highly important papers. If you like your results we are grateful for a citation.

  1. Neese,F.
     The ORCA program system
     WIRES Comput. Molec. Sci., 2012 2(1)73-78
     doi.org/10.1002/wcms.81
  2. Neese,F.
     Software update: the ORCA program system, version 4.0
     WIRES Comput. Molec. Sci., 2018 8(1)1-6
     doi.org/10.1002/wcms.1327
  3. Neese,F.; Wennmohs,F.; Becker,U.; Riplinger,C.
     The ORCA quantum chemistry program package
     J. Chem. Phys., 2020 152 Art. No. L224108
     doi.org/10.1063/5.0004608

List of optional additional citations

  1. Neese,F.
     Approximate second-order SCF convergence for spin unrestricted wavefunctions
     Chem. Phys. Lett., 2000 325(1-3)93-98
     doi.org/10.1016/s0009-2614(00)00662-x

Timings for individual modules:

Sum of individual times          ...        7.098 sec (=   0.118 min)
Startup calculation              ...        0.652 sec (=   0.011 min)   9.2 %
SCF iterations                   ...        6.351 sec (=   0.106 min)  89.5 %
Property calculations            ...        0.095 sec (=   0.002 min)   1.3 %
                             ****ORCA TERMINATED NORMALLY****
TOTAL RUN TIME: 0 days 0 hours 0 minutes 7 seconds 902 msec
