13
 energy: -232.397340805280 gnorm: 0.003146101262 xtb: 6.7.1 (edcfbbe)
C           -2.50067008734566        0.08758752272081        0.16924108740833
C           -1.15258429079207       -0.39631705686190       -0.35689656987857
C            0.00551687611685        0.43185460033571        0.22441704317772
C            1.31435421565341        0.00629665151714       -0.34359144678638
O            2.29588879616672       -0.30450153322622        0.31193384186254
H           -2.54875927786344       -0.00052409495198        1.25931958485071
H           -2.66539453286815        1.13788063357451       -0.09236579678949
H           -3.31970095374532       -0.50124306933237       -0.25422858721999
H           -1.13175971478250       -0.32863896683244       -1.45047072181022
H           -1.00607186853277       -1.45060688987143       -0.09660210413709
H           -0.13834257234414        1.48209286745546       -0.06987985296896
H            0.03237539249618        0.37591799743937        1.31695666375135
H            1.36082406559225       -0.02584438508596       -1.45201038097772
13
 energy: -232.397349035329 gnorm: 0.001048424296 xtb: 6.7.1 (edcfbbe)
C           -2.50133834514013        0.08715615179636        0.16902968566165
C           -1.15317040933102       -0.39568599352509       -0.35601226749662
C            0.00584229972889        0.43182511243252        0.22436027171709
C            1.31424336011375        0.00542431046282       -0.34434218217445
O            2.29579260455165       -0.30688885928157        0.31243728931362
H           -2.55081893766383        0.00097601451365        1.25951326543523
H           -2.66789531441558        1.13713177351252       -0.09404291896523
H           -3.32010723166679       -0.50306776880722       -0.25368789230679
H           -1.13162514410910       -0.32878519377707       -1.44992083366775
H           -1.00622909187784       -1.45034198310038       -0.09626161417105
H           -0.13668378422747        1.48321628074899       -0.06881481981974
H            0.03518206500147        0.37615527676837        1.31692641099754
H            1.36248402600722       -0.02316088425060       -1.45336166098032
13
 energy: -232.397346525358 gnorm: 0.002521778191 xtb: 6.7.1 (edcfbbe)
C           -2.50204050034221        0.08667106736536        0.16835733815466
C           -1.15354841473984       -0.39429164149402       -0.35453286302218
C            0.00649083520457        0.43232465504929        0.22481265007324
C            1.31481226522782        0.00834024548853       -0.34602120562780
O            2.29376786706707       -0.31347180283199        0.31220526915649
H           -2.55355922397304        0.00469270340228        1.25948416394038
H           -2.67296360280102        1.13546886651423       -0.09834754004918
H           -3.31957441851409       -0.50732656540766       -0.25240443236179
H           -1.13105034320903       -0.32855032948303       -1.44887660167874
H           -1.00565000224305       -1.44937250027575       -0.09550340190778
H           -0.13492673992309        1.48550571386618       -0.06525061096790
H            0.03994481030576        0.37532948658139        1.31731009175452
H            1.36397367202070       -0.02136569682926       -1.45541010545030
13
 energy: -232.397352581904 gnorm: 0.001474476477 xtb: 6.7.1 (edcfbbe)
C           -2.50199372838515        0.08692962134572        0.16827754337328
C           -1.15353299741128       -0.39444993494925       -0.35432631431698
C            0.00646578258606        0.43210954922535        0.22501400423605
C            1.31402477869040        0.00635190359915       -0.34613937467119
O            2.29331583497074       -0.31411780016617        0.31165650374217
H           -2.55329962856879        0.00584091030044        1.25941679806151
H           -2.67331942664169        1.13532186270240       -0.09945946904174
H           -3.31917792755659       -0.50786349403344       -0.25192434681000
H           -1.13099137229701       -0.32895806176437       -1.44863792545152
H           -1.00578901582517       -1.44938088532206       -0.09483870275664
H           -0.13489901941863        1.48509432971115       -0.06530799896556
H            0.04003921227858        0.37510009128331        1.31748516093087
H            1.36483372454103       -0.01802396729906       -1.45539315662943
13
 energy: -232.397354321881 gnorm: 0.000932809406 xtb: 6.7.1 (edcfbbe)
C           -2.50174120050197        0.08733157821125        0.16817556830771
C           -1.15306524624698       -0.39500936857496       -0.35454610322275
C            0.00633418346530        0.43212775845964        0.22528981883983
C            1.31385798158626        0.00569987492859       -0.34565706880646
O            2.29296355837600       -0.31560693891578        0.31038202057045
H           -2.55143096656127        0.00748288050217        1.25919578931896
H           -2.67225285081077        1.13512124266428       -0.10115822946904
H           -3.31874888706843       -0.50807622078646       -0.25089863816167
H           -1.13058845941742       -0.32949974127339       -1.44862914253366
H           -1.00591073618320       -1.44948703986005       -0.09387666681480
H           -0.13642260021755        1.48426558882370       -0.06548288391609
H            0.03835982329982        0.37407858001992        1.31765006939803
H            1.36432161963056       -0.01447417271322       -1.45462182756128
13
 energy: -232.397354321881 gnorm: 0.000932809406 xtb: 6.7.1 (edcfbbe)
C           -2.50174120050197        0.08733157821125        0.16817556830771
C           -1.15306524624698       -0.39500936857496       -0.35454610322275
C            0.00633418346530        0.43212775845964        0.22528981883983
C            1.31385798158626        0.00569987492859       -0.34565706880646
O            2.29296355837600       -0.31560693891578        0.31038202057045
H           -2.55143096656127        0.00748288050217        1.25919578931896
H           -2.67225285081077        1.13512124266428       -0.10115822946904
H           -3.31874888706843       -0.50807622078646       -0.25089863816167
H           -1.13058845941742       -0.32949974127339       -1.44862914253366
H           -1.00591073618320       -1.44948703986005       -0.09387666681480
H           -0.13642260021755        1.48426558882370       -0.06548288391609
H            0.03835982329982        0.37407858001992        1.31765006939803
H            1.36432161963056       -0.01447417271322       -1.45462182756128
