
                                 *****************
                                 * O   R   C   A *
                                 *****************

                                            #,                                       
                                            ###                                      
                                            ####                                     
                                            #####                                    
                                            ######                                   
                                           ########,                                 
                                     ,,################,,,,,                         
                               ,,#################################,,                 
                          ,,##########################################,,             
                       ,#########################################, ''#####,          
                    ,#############################################,,   '####,        
                  ,##################################################,,,,####,       
                ,###########''''           ''''###############################       
              ,#####''   ,,,,##########,,,,          '''####'''          '####       
            ,##' ,,,,###########################,,,                        '##       
           ' ,,###''''                  '''############,,,                           
         ,,##''                                '''############,,,,        ,,,,,,###''
      ,#''                                            '''#######################'''  
     '                                                          ''''####''''         
             ,#######,   #######,   ,#######,      ##                                
            ,#'     '#,  ##    ##  ,#'     '#,    #''#        ,####,   ,####,        
            ##       ##  ##   ,#'  ##            #'  '#       #'       #'  '#        
            ##       ##  #######   ##           ,######,      #####,   #    #        
            '#,     ,#'  ##    ##  '#,     ,#' ,#      #,     #,   #   #,  ,#        
             '#######'   ##     ##  '#######'  #'      '#     '####' # '####'        



                #########################################################
                #                        -***-                          #
                #          Department of theory and spectroscopy        #
                #                                                       #
                #                      Frank Neese                      #
                #                                                       #
                #     Directorship, Architecture, Infrastructure        #
                #                    SHARK, DRIVERS                     #
                #        Core code/Algorithms in most modules           #
                #                                                       #
                #        Max Planck Institute fuer Kohlenforschung      #
                #                Kaiser Wilhelm Platz 1                 #
                #                 D-45470 Muelheim/Ruhr                 #
                #                      Germany                          #
                #                                                       #
                #                  All rights reserved                  #
                #                        -***-                          #
                #########################################################


                         Program Version 6.0.0  -   RELEASE  -


 With contributions from (in alphabetic order):
   Daniel Aravena         : Magnetic Suceptibility
   Michael Atanasov       : Ab Initio Ligand Field Theory (pilot matlab implementation)
   Alexander A. Auer      : GIAO ZORA, VPT2 properties, NMR spectrum
   Ute Becker             : All parallelization in ORCA, NUMFREQ, NUMCALC
   Giovanni Bistoni       : ED, misc. LED, open-shell LED, HFLD
   Martin Brehm           : Molecular dynamics
   Dmytro Bykov           : pre 5.0 version of the SCF Hessian
   Marcos Casanova-Páez   : Triplet and SCS-CIS(D). UHF-(DLPNO)-IP/EA/STEOM-CCSD. UHF-CVS-IP/STEOM-CCSD
   Vijay G. Chilkuri      : MRCI spin determinant printing, contributions to CSF-ICE
   Pauline Colinet        : FMM embedding
   Dipayan Datta          : RHF DLPNO-CCSD density
   Achintya Kumar Dutta   : EOM-CC, STEOM-CC
   Nicolas Foglia         : Exact transition moments, OPA infrastructure, MCD improvements
   Dmitry Ganyushin       : Spin-Orbit,Spin-Spin,Magnetic field MRCI
   Miquel Garcia          : C-PCM and meta-GGA Hessian, CCSD/C-PCM, Gaussian charge scheme
   Tiago L. C. Gouveia    : GS-ROHF, GS-ROCIS
   Yang Guo               : DLPNO-NEVPT2, F12-NEVPT2, CIM, IAO-localization
   Andreas Hansen         : Spin unrestricted coupled pair/coupled cluster methods
   Ingolf Harden          : AUTO-CI MPn and infrastructure 
   Benjamin Helmich-Paris : MC-RPA, TRAH-(SCF,CASSCF), AVAS, COSX integrals, SCF dyn. polar.
   Lee Huntington         : MR-EOM, pCC
   Robert Izsak           : Overlap fitted RIJCOSX, COSX-SCS-MP3, EOM
   Riya Kayal             : Wick's Theorem for AUTO-CI, AUTO-CI UHF-CCSDT
   Emily Kempfer          : AUTO-CI, RHF CISDT and CCSDT
   Christian Kollmar      : KDIIS, OOCD, Brueckner-CCSD(T), CCSD density, CASPT2, CASPT2-K, improved NEVPT2
   Axel Koslowski         : Symmetry handling
   Simone Kossmann        : Meta GGA functionals, TD-DFT gradient, OOMP2, (MP2 Hessian; deprecated post 5.0)
   Lucas Lang             : DCDCAS
   Marvin Lechner         : AUTO-CI (C++ implementation), FIC-MRCC
   Spencer Leger          : CASSCF response
   Dagmar Lenk            : GEPOL surface, SMD, ORCA-2-JSON
   Dimitrios Liakos       : Extrapolation schemes; Compound Job, initial MDCI parallelization
   Dimitrios Manganas     : Further ROCIS development; embedding schemes. LFT, Crystal Embedding
   Dimitrios Pantazis     : SARC Basis sets
   Anastasios Papadopoulos: AUTO-CI, single reference methods and gradients
   Taras Petrenko         : pre 6.0 DFT Hessian and TD-DFT gradient, (ASA, deprecated), ECA, 1-Electron XAS/XES, NRVS
   Peter Pinski           : DLPNO-MP2, DLPNO-MP2 Gradient
   Christoph Reimann      : Effective Core Potentials
   Marius Retegan         : Local ZFS, SOC
   Christoph Riplinger    : Optimizer, TS searches, QM/MM, DLPNO-CCSD(T), (RO)-DLPNO pert. Triples
   Michael Roemelt        : Original ROCIS implementation
   Masaaki Saitow         : Open-shell DLPNO-CCSD energy and density
   Barbara Sandhoefer     : DKH picture change effects
   Kantharuban Sivalingam : CASSCF convergence/infrastructure, NEVPT2 and variants, FIC-MRCI
   Bernardo de Souza      : ESD, SOC TD-DFT
   Georgi Stoychev        : AutoAux, RI-MP2 NMR, DLPNO-MP2 response, X2C
   Van Anh Tran           : RI-MP2 g-tensors
   Willem Van den Heuvel  : Paramagnetic NMR
   Zikuan Wang            : NOTCH, Electric field optimization 
   Frank Wennmohs         : Technical directorship and infrastructure
   Hang Xu                : AUTO-CI-Response properties 


 We gratefully acknowledge several colleagues who have allowed us to
 interface, adapt or use parts of their codes:
   Stefan Grimme, W. Hujo, H. Kruse, P. Pracht,  : VdW corrections, initial TS optimization,
                  C. Bannwarth, S. Ehlert,         DFT functionals, gCP, sTDA/sTD-DF
                  L. Wittmann, M. Mueller
   Ed Valeev, F. Pavosevic, A. Kumar             : LibInt (2-el integral package), F12 methods
   Garnet Chan, S. Sharma, J. Yang, R. Olivares  : DMRG
   Ulf Ekstrom                                   : XCFun DFT Library
   Mihaly Kallay                                 : mrcc  (arbitrary order and MRCC methods)
   Frank Weinhold                                : gennbo (NPA and NBO analysis)
   Simon Mueller                                 : openCOSMO-RS
   Christopher J. Cramer and Donald G. Truhlar   : smd solvation model
   Lars Goerigk                                  : TD-DFT with DH, B97 family of functionals
   V. Asgeirsson, H. Jonsson                     : NEB implementation
   FAccTs GmbH                                   : IRC, NEB, NEB-TS, DLPNO-Multilevel, CI-OPT
                                                   MM, QMMM, 2- and 3-layer-ONIOM, Crystal-QMMM,
                                                   LR-CPCM, SF, NACMEs, symmetry and pop. for TD-DFT,
                                                   nearIR, NL-DFT gradient (VV10), updates on ESD,
                                                   ML-optimized integration grids, MBIS, APM,
                                                   GOAT, DOCKER, SOLVATOR, interface openCOSMO-RS
   S Lehtola, MJT Oliveira, MAL Marques          : LibXC Library
   Liviu Ungur et al                             : ANISO software


 Your calculation uses the libint2 library for the computation of 2-el integrals
 For citations please refer to: http://libint.valeyev.net

 Your ORCA version has been built with support for libXC version: 6.2.2
 For citations please refer to: https://libxc.gitlab.io

 This ORCA versions uses:
   CBLAS   interface :  Fast vector & matrix operations
   LAPACKE interface :  Fast linear algebra routines
   SCALAPACK package :  Parallel linear algebra routines
   Shared memory     :  Shared parallel matrices
   BLAS/LAPACK       :  OpenBLAS 0.3.27  USE64BITINT DYNAMIC_ARCH NO_AFFINITY SkylakeX SINGLE_THREADED
        Core in use  :  SkylakeX
   Copyright (c) 2011-2014, The OpenBLAS Project


Your calculation utilizes the geometrical counterpoise correction gCP
Please cite in your paper:
H.Kruse, S. Grimme J.Chem.Phys., 136, (2012), 154101 
   

Your calculation utilizes the atom-pairwise dispersion correction
based on EEQ partial charges (D4)


================================================================================

----- Orbital basis set information -----
Your calculation utilizes the basis: def2-mTZVPP
   Stefan Grimme, Andreas Hansen, Sebastian Ehlert, and Jan-Michael Mewes 
   J. Chem. Phys. 154, 064103 (2021). DOI: 10.1063/5.0040021

----- AuxJ basis set information -----
Your calculation utilizes the auxiliary basis: def2/J
   F. Weigend, Phys. Chem. Chem. Phys. 8, 1057 (2006).

================================================================================
                                        WARNINGS
                       Please study these warnings very carefully!
================================================================================

Using LibXC functional ID 497 : Re-regularized SCAN exchange by Furness et al
[ 1]  J. W. Furness, A. D. Kaplan, J. Ning, J. P. Perdew, and J. Sun.,  J. Phys. Chem. Lett. 11, 8208-8215 (2020)
[ 2]  J. W. Furness, A. D. Kaplan, J. Ning, J. P. Perdew, and J. Sun.,  J. Phys. Chem. Lett. 11, 9248-9248 (2020)
Using LibXC functional ID 498 : Re-regularized SCAN correlation by Furness et al
[ 1]  J. W. Furness, A. D. Kaplan, J. Ning, J. P. Perdew, and J. Sun.,  J. Phys. Chem. Lett. 11, 8208-8215 (2020)
[ 2]  J. W. Furness, A. D. Kaplan, J. Ning, J. P. Perdew, and J. Sun.,  J. Phys. Chem. Lett. 11, 9248-9248 (2020)
Using LibXC functional ID 497 : Re-regularized SCAN exchange by Furness et al
[ 1]  J. W. Furness, A. D. Kaplan, J. Ning, J. P. Perdew, and J. Sun.,  J. Phys. Chem. Lett. 11, 8208-8215 (2020)
[ 2]  J. W. Furness, A. D. Kaplan, J. Ning, J. P. Perdew, and J. Sun.,  J. Phys. Chem. Lett. 11, 9248-9248 (2020)
Using LibXC functional ID 498 : Re-regularized SCAN correlation by Furness et al
[ 1]  J. W. Furness, A. D. Kaplan, J. Ning, J. P. Perdew, and J. Sun.,  J. Phys. Chem. Lett. 11, 8208-8215 (2020)
[ 2]  J. W. Furness, A. D. Kaplan, J. Ning, J. P. Perdew, and J. Sun.,  J. Phys. Chem. Lett. 11, 9248-9248 (2020)

================================================================================
                                       INPUT FILE
================================================================================
NAME = sp_gas.inp
|  1> ! r2scan-3c def2/J RI DEFGRID2 scfconv6 printgap
|  2> %output
|  3>     printlevel normal
|  4> end
|  5> * xyz 0 1
|  6> C 3.0605934043 -1.1304418813 0.6836963185
|  7> C 2.582513943 0.2027452088 0.1947394985
|  8> C 3.4050698861 1.2322152389 0.0626341649
|  9> C 1.1156310963 0.3356791505 -0.1379584947
| 10> H 0.9787437784 1.2604539853 -0.7079951144
| 11> C 0.5800854879 -0.8249197641 -0.9812318431
| 12> C -0.8372615415 -0.5083450578 -1.4517416843
| 13> C -1.6995741007 -0.0723855348 -0.3006895632
| 14> C -1.1784798299 0.3501197886 0.8634922633
| 15> C 0.2744596696 0.4470878797 1.1418816985
| 16> C -3.1410988004 -0.1143316588 -0.4719093512
| 17> O -3.9704624526 0.2160695737 0.3579510809
| 18> H 4.075680569 -1.0553439925 1.0633773797
| 19> H 2.4192012507 -1.5113206312 1.475436732
| 20> H 3.0514521826 -1.8536629757 -0.1301363046
| 21> H 3.0690458538 2.1892190193 -0.2999560402
| 22> H 4.4506525104 1.1619226658 0.3107366998
| 23> H 1.2260011763 -0.9889982267 -1.8446891273
| 24> H 0.5628734537 -1.7364587435 -0.3833646983
| 25> H -0.8126736028 0.290472078 -2.1986594653
| 26> H -1.2812341548 -1.3849071748 -1.9280523548
| 27> H -1.8580136901 0.6317889783 1.6576741678
| 28> H 0.4871857538 1.3878984238 1.654403814
| 29> H 0.5379843267 -0.3533389814 1.8403860148
| 30> H -3.4770303166 -0.4835579674 -1.4592466847
| 31> *
| 32> 
| 33>                          ****END OF INPUT****
================================================================================

                       ****************************
                       * Single Point Calculation *
                       ****************************

---------------------------------
CARTESIAN COORDINATES (ANGSTROEM)
---------------------------------
  C      3.060593   -1.130442    0.683696
  C      2.582514    0.202745    0.194739
  C      3.405070    1.232215    0.062634
  C      1.115631    0.335679   -0.137958
  H      0.978744    1.260454   -0.707995
  C      0.580085   -0.824920   -0.981232
  C     -0.837262   -0.508345   -1.451742
  C     -1.699574   -0.072386   -0.300690
  C     -1.178480    0.350120    0.863492
  C      0.274460    0.447088    1.141882
  C     -3.141099   -0.114332   -0.471909
  O     -3.970462    0.216070    0.357951
  H      4.075681   -1.055344    1.063377
  H      2.419201   -1.511321    1.475437
  H      3.051452   -1.853663   -0.130136
  H      3.069046    2.189219   -0.299956
  H      4.450653    1.161923    0.310737
  H      1.226001   -0.988998   -1.844689
  H      0.562873   -1.736459   -0.383365
  H     -0.812674    0.290472   -2.198659
  H     -1.281234   -1.384907   -1.928052
  H     -1.858014    0.631789    1.657674
  H      0.487186    1.387898    1.654404
  H      0.537984   -0.353339    1.840386
  H     -3.477030   -0.483558   -1.459247

----------------------------
CARTESIAN COORDINATES (A.U.)
----------------------------
  NO LB      ZA    FRAG     MASS         X           Y           Z
   0 C     6.0000    0    12.011    5.783683   -2.136226    1.291999
   1 C     6.0000    0    12.011    4.880244    0.383133    0.368004
   2 C     6.0000    0    12.011    6.434650    2.328549    0.118361
   3 C     6.0000    0    12.011    2.108237    0.634342   -0.260704
   4 H     1.0000    0     1.008    1.849558    2.381913   -1.337917
   5 C     6.0000    0    12.011    1.096203   -1.558872   -1.854259
   6 C     6.0000    0    12.011   -1.582195   -0.960633   -2.743394
   7 C     6.0000    0    12.011   -3.211730   -0.136789   -0.568221
   8 C     6.0000    0    12.011   -2.227004    0.661631    1.631764
   9 C     6.0000    0    12.011    0.518654    0.844874    2.157844
  10 C     6.0000    0    12.011   -5.935816   -0.216056   -0.891779
  11 O     8.0000    0    15.999   -7.503087    0.408312    0.676430
  12 H     1.0000    0     1.008    7.701920   -1.994311    2.009492
  13 H     1.0000    0     1.008    4.571628   -2.855982    2.788171
  14 H     1.0000    0     1.008    5.766409   -3.502915   -0.245922
  15 H     1.0000    0     1.008    5.799656    4.137024   -0.566835
  16 H     1.0000    0     1.008    8.410514    2.195716    0.587207
  17 H     1.0000    0     1.008    2.316806   -1.868936   -3.485957
  18 H     1.0000    0     1.008    1.063677   -3.281431   -0.724454
  19 H     1.0000    0     1.008   -1.535731    0.548913   -4.154864
  20 H     1.0000    0     1.008   -2.421182   -2.617095   -3.643491
  21 H     1.0000    0     1.008   -3.511137    1.193908    3.132550
  22 H     1.0000    0     1.008    0.920648    2.622748    3.126370
  23 H     1.0000    0     1.008    1.016643   -0.667714    3.477826
  24 H     1.0000    0     1.008   -6.570635   -0.913792   -2.757577

--------------------------------
INTERNAL COORDINATES (ANGSTROEM)
--------------------------------
 C      0   0   0     0.000000000000     0.00000000     0.00000000
 C      1   0   0     1.498341269655     0.00000000     0.00000000
 C      2   1   0     1.324333281908   121.73828177     0.00000000
 C      2   1   3     1.510001547508   117.39961218   180.33694286
 H      4   2   1     1.094937614972   108.08988162   194.13442490
 C      4   2   1     1.531309530882   113.22564376   313.78603896
 C      6   4   2     1.526588240844   109.71003822   188.73101107
 C      7   6   4     1.502852168690   110.90500527   309.66207714
 C      8   7   6     1.343640321111   122.16144130    18.06446903
 C      9   8   7     1.482543988396   124.28735173     0.59256845
 C      8   7   6     1.452263458525   118.09030311   197.97464398
 O     11   8   7     1.218883660894   125.96553208   180.71197376
 H      1   2   3     1.086369804935   110.52891680    10.26649266
 H      1   2   3     1.087798418455   111.15716002   131.07651632
 H      1   2   3     1.088786412361   110.14684650   250.55311028
 H      3   2   1     1.077144392743   122.03692078   179.22752853
 H      3   2   1     1.076911759568   121.95949782   359.28243388
 H      6   4   2     1.090727876259   110.05060776   309.51745834
 H      6   4   2     1.090249828213   109.70727831    68.85536690
 H      7   6   4     1.093891930106   109.93869563    70.16224351
 H      7   6   4     1.091945365461   110.21023921   188.24748692
 H      9   8   7     1.082510368089   118.29616144   181.14173855
 H     10   9   8     1.092270930523   109.59164085   136.43699704
 H     10   9   8     1.094548621469   107.93610990   252.00308957
 H     11   8   7     1.106351237475   114.59799671     0.58617034

---------------------------
INTERNAL COORDINATES (A.U.)
---------------------------
 C      0   0   0     0.000000000000     0.00000000     0.00000000
 C      1   0   0     2.831454654799     0.00000000     0.00000000
 C      2   1   0     2.502627212843   121.73828177     0.00000000
 C      2   1   3     2.853489386588   117.39961218   180.33694286
 H      4   2   1     2.069132226026   108.08988162   194.13442490
 C      4   2   1     2.893755639630   113.22564376   313.78603896
 C      6   4   2     2.884833694460   109.71003822   188.73101107
 C      7   6   4     2.839979018594   110.90500527   309.66207714
 C      8   7   6     2.539112229393   122.16144130    18.06446903
 C      9   8   7     2.801602119560   124.28735173     0.59256845
 C      8   7   6     2.744380210913   118.09030311   197.97464398
 O     11   8   7     2.303356308200   125.96553208   180.71197376
 H      1   2   3     2.052941411489   110.52891680    10.26649266
 H      1   2   3     2.055641099793   111.15716002   131.07651632
 H      1   2   3     2.057508137696   110.14684650   250.55311028
 H      3   2   1     2.035507908973   122.03692078   179.22752853
 H      3   2   1     2.035068295982   121.95949782   359.28243388
 H      6   4   2     2.061176972763   110.05060776   309.51745834
 H      6   4   2     2.060273592877   109.70727831    68.85536690
 H      7   6   4     2.067156168007   109.93869563    70.16224351
 H      7   6   4     2.063477693926   110.21023921   188.24748692
 H      9   8   7     2.045648132818   118.29616144   181.14173855
 H     10   9   8     2.064092922732   109.59164085   136.43699704
 H     10   9   8     2.068397134838   107.93610990   252.00308957
 H     11   8   7     2.090700846752   114.59799671     0.58617034

---------------------
BASIS SET INFORMATION
---------------------
There are 3 groups of distinct atoms

 Group   1 Type C   : 11s6p1d contracted to 5s3p1d pattern {62111/411/1}
 Group   2 Type H   : 4s1p contracted to 2s1p pattern {31/1}
 Group   3 Type O   : 11s6p2d contracted to 5s3p2d pattern {62111/411/11}

Atom   0C    basis set group =>   1
Atom   1C    basis set group =>   1
Atom   2C    basis set group =>   1
Atom   3C    basis set group =>   1
Atom   4H    basis set group =>   2
Atom   5C    basis set group =>   1
Atom   6C    basis set group =>   1
Atom   7C    basis set group =>   1
Atom   8C    basis set group =>   1
Atom   9C    basis set group =>   1
Atom  10C    basis set group =>   1
Atom  11O    basis set group =>   3
Atom  12H    basis set group =>   2
Atom  13H    basis set group =>   2
Atom  14H    basis set group =>   2
Atom  15H    basis set group =>   2
Atom  16H    basis set group =>   2
Atom  17H    basis set group =>   2
Atom  18H    basis set group =>   2
Atom  19H    basis set group =>   2
Atom  20H    basis set group =>   2
Atom  21H    basis set group =>   2
Atom  22H    basis set group =>   2
Atom  23H    basis set group =>   2
Atom  24H    basis set group =>   2
---------------------------------
AUXILIARY/J BASIS SET INFORMATION
---------------------------------
There are 3 groups of distinct atoms

 Group   1 Type C   : 12s5p4d2f1g contracted to 6s4p3d1f1g pattern {711111/2111/211/2/1}
 Group   2 Type H   : 5s2p1d contracted to 3s1p1d pattern {311/2/1}
 Group   3 Type O   : 12s5p4d2f1g contracted to 6s4p3d1f1g pattern {711111/2111/211/2/1}

Atom   0C    basis set group =>   1
Atom   1C    basis set group =>   1
Atom   2C    basis set group =>   1
Atom   3C    basis set group =>   1
Atom   4H    basis set group =>   2
Atom   5C    basis set group =>   1
Atom   6C    basis set group =>   1
Atom   7C    basis set group =>   1
Atom   8C    basis set group =>   1
Atom   9C    basis set group =>   1
Atom  10C    basis set group =>   1
Atom  11O    basis set group =>   3
Atom  12H    basis set group =>   2
Atom  13H    basis set group =>   2
Atom  14H    basis set group =>   2
Atom  15H    basis set group =>   2
Atom  16H    basis set group =>   2
Atom  17H    basis set group =>   2
Atom  18H    basis set group =>   2
Atom  19H    basis set group =>   2
Atom  20H    basis set group =>   2
Atom  21H    basis set group =>   2
Atom  22H    basis set group =>   2
Atom  23H    basis set group =>   2
Atom  24H    basis set group =>   2

Checking for AutoStart:
The File: sp_gas.gbw exists
Trying to determine its content:
     ... Fine, the file contains calculation information
     ... Fine, the calculation information was read
     ... Fine, the file contains a basis set
     ... Fine, the basis set was read
     ... Fine, the file contains a geometry
     ... Fine, the geometry was read
     ... Fine, the file contains a set of orbitals
     ... Fine, the orbitals can be read
     => possible old guess file was deleted
     => GBW file was renamed to GES file
     => GES file is set as startup file
     => Guess is set to MORead
     ... now leaving AutoStart

------------------------------------------------------------------------------
                             ORCA STARTUP CALCULATIONS
                           -- RI-GTO INTEGRALS CHOSEN --
------------------------------------------------------------------------------
------------------------------------------------------------------------------
                   ___                                                        
                  /   \      - P O W E R E D   B Y -                         
                 /     \                                                     
                 |  |  |   _    _      __       _____    __    __             
                 |  |  |  | |  | |    /  \     |  _  \  |  |  /  |          
                  \  \/   | |  | |   /    \    | | | |  |  | /  /          
                 / \  \   | |__| |  /  /\  \   | |_| |  |  |/  /          
                |  |  |   |  __  | /  /__\  \  |    /   |      \           
                |  |  |   | |  | | |   __   |  |    \   |  |\   \          
                \     /   | |  | | |  |  |  |  | |\  \  |  | \   \       
                 \___/    |_|  |_| |__|  |__|  |_| \__\ |__|  \__/        
                                                                              
                      - O R C A' S   B I G   F R I E N D -                    
                                      &                                       
                       - I N T E G R A L  F E E D E R -                       
                                                                              
 v1 FN, 2020, v2 2021, v3 2022-2024                                           
------------------------------------------------------------------------------


----------------------
SHARK INTEGRAL PACKAGE
----------------------

Number of atoms                             ...     25
Number of basis functions                   ...    284
Number of shells                            ...    142
Maximum angular momentum                    ...      2
Integral batch strategy                     ... SHARK/LIBINT Hybrid
RI-J (if used) integral strategy            ... SPLIT-RIJ (Revised 2003 algorithm where possible)
Printlevel                                  ...      1
Contraction scheme used                     ... SEGMENTED contraction
Prescreening option                         ... SCHWARTZ
   Thresh                                   ... 1.000e-10
   Tcut                                     ... 1.000e-11
   Tpresel                                  ... 1.000e-11 
Coulomb Range Separation                    ... NOT USED
Exchange Range Separation                   ... NOT USED
Multipole approximations                    ... NOT USED
Finite Nucleus Model                        ... NOT USED
CABS basis                                  ... NOT available
Auxiliary Coulomb fitting basis             ... AVAILABLE
   # of basis functions in Aux-J            ...    693
   # of shells in Aux-J                     ...    235
   Maximum angular momentum in Aux-J        ...      4
Auxiliary J/K fitting basis                 ... NOT available
Auxiliary Correlation fitting basis         ... NOT available
Auxiliary 'external' fitting basis          ... NOT available

Checking pre-screening integrals            ... done (  0.0 sec) Dimension = 142
Check shell pair data                       ... done (  0.0 sec)
Shell pair information
Shell pair cut-off parameter TPreSel        ...   1.0e-11
Total number of shell pairs                 ...     10153
Shell pairs after pre-screening             ...      8553
Total number of primitive shell pairs       ...     36599
Primitive shell pairs kept                  ...     21103
          la=0 lb=0:   2884 shell pairs
          la=1 lb=0:   3329 shell pairs
          la=1 lb=1:    984 shell pairs
          la=2 lb=0:    813 shell pairs
          la=2 lb=1:    478 shell pairs
          la=2 lb=2:     65 shell pairs

Calculating one electron integrals          ... done (  0.1 sec)
Calculating RI/J V-Matrix + Cholesky decomp.... done (  0.1 sec)
Calculating Nuclear repulsion               ... done (  0.0 sec) ENN=    596.818005485403 Eh

Diagonalization of the overlap matrix:
Smallest eigenvalue                        ... 5.328e-05
Time for diagonalization                   ...    0.014 sec
Threshold for overlap eigenvalues          ... 1.000e-07
Number of eigenvalues below threshold      ... 0
Time for construction of square roots      ...    0.022 sec
Total time needed                          ...    0.049 sec

-------------------
DFT GRID GENERATION
-------------------

General Integration Accuracy     IntAcc      ... 4.388
Radial Grid Type                 RadialGrid  ... OptM3 with GC (2021)
Angular Grid (max. ang.)         AngularGrid ... 4 (Lebedev-302)
Angular grid pruning method      GridPruning ... 4 (adaptive)
Weight generation scheme         WeightScheme... mBecke (2022)
Basis function cutoff            BFCut       ... 1.0000e-10
Integration weight cutoff        WCut        ... 1.0000e-14
Partially contracted basis set               ... off
Rotationally invariant grid construction     ... off
Angular grids for H and He will be reduced by one unit
Diffuse basis detected: some atoms will have their outermost
                        angular grid increased by 1.

Total number of grid points                  ...   110697
Total number of batches                      ...     1740
Average number of points per batch           ...       63
Average number of grid points per atom       ...     4428
Initializing property integral containers    ... done (  0.0 sec)

SHARK setup successfully completed in   2.0 seconds

Maximum memory used throughout the entire STARTUP-calculation: 51.7 MB
-------------------------------------------------------------------------------
                                 ORCA GUESS
                   Start orbitals & Density for SCF / CASSCF
-------------------------------------------------------------------------------

------------
SCF SETTINGS
------------
Hamiltonian:
 Density Functional     Method          .... DFT(GTOs)
  Functional kind                       .... Exchange
  Functional name                       .... Re-regularized SCAN exchange by Furness et al
  Functional family                     .... MGGA
  Functional refs                              
    [ 0] J. W. Furness, A. D. Kaplan, J. Ning, J. P. Perdew, and J. Sun.,  J. Phys. Chem. Lett. 11, 8208-8215 (2020), doi: 10.1021/acs.jpclett.0c02405
    [ 1] J. W. Furness, A. D. Kaplan, J. Ning, J. P. Perdew, and J. Sun.,  J. Phys. Chem. Lett. 11, 9248-9248 (2020), doi: 10.1021/acs.jpclett.0c03077
  Functional external parameters        .... 6
    Parameter  0 _c1        =  6.670000e-01 : c1 parameter        
    Parameter  1 _c2        =  8.000000e-01 : c2 parameter        
    Parameter  2 _d         =  1.240000e+00 : d parameter         
    Parameter  3 _k1        =  6.500000e-02 : k1 parameter        
    Parameter  4 _eta       =  1.000000e-03 : eta parameter       
    Parameter  5 _dp2       =  3.610000e-01 : dp2 parameter       
  Functional kind                       .... Correlation
  Functional name                       .... Re-regularized SCAN correlation by Furness et al
  Functional family                     .... MGGA
  Functional refs                              
    [ 0] J. W. Furness, A. D. Kaplan, J. Ning, J. P. Perdew, and J. Sun.,  J. Phys. Chem. Lett. 11, 8208-8215 (2020), doi: 10.1021/acs.jpclett.0c02405
    [ 1] J. W. Furness, A. D. Kaplan, J. Ning, J. P. Perdew, and J. Sun.,  J. Phys. Chem. Lett. 11, 9248-9248 (2020), doi: 10.1021/acs.jpclett.0c03077
  Functional external parameters        .... 1
    Parameter  0 _eta       =  1.000000e-03 : Regularization parameter
 Gradients option       PostSCFGGA      .... off
 RI-approximation to the Coulomb term is turned on
   Number of AuxJ basis functions       .... 693


General Settings:
 Integral files         IntName         .... sp_gas
 Hartree-Fock type      HFTyp           .... RHF
 Total Charge           Charge          ....    0
 Multiplicity           Mult            ....    1
 Number of Electrons    NEL             ....   82
 Basis Dimension        Dim             ....  284
 Nuclear Repulsion      ENuc            ....    596.8180054854 Eh

Convergence Acceleration:
 AO-DIIS                CNVDIIS         .... on
   Start iteration      DIISMaxIt       ....    12
   Startup error        DIISStart       ....  0.200000
   # of expansion vecs  DIISMaxEq       ....     5
   Bias factor          DIISBfac        ....   1.050
   Max. coefficient     DIISMaxC        ....  10.000
 MO-DIIS                CNVKDIIS        .... off
 Trust-Rad. Augm. Hess. CNVTRAH         .... auto
   Auto Start mean grad. ratio tolernc. ....  1.125000
   Auto Start start iteration           ....     1
   Auto Start num. interpolation iter.  ....    10
   Max. Number of Micro iterations      ....    24
   Max. Number of Macro iterations      .... Maxiter - #DIIS iter
   Number of Davidson start vectors     ....     2
   Converg. threshold    (grad. norm)   ....   3.330e-04
   Grad. Scal. Fac. for Micro threshold ....   0.100
   Minimum threshold for Micro iter.    ....   1.000e-02
   NR start threshold (gradient norm)   ....   1.000e-04
   Initial trust radius                 ....   0.400
   Minimum AH scaling param. (alpha)    ....   1.000
   Maximum AH scaling param. (alpha)    .... 1000.000
   Quad. conv. algorithm                .... NR
   White noise on init. David. guess    .... on
   Maximum white noise                  ....   0.010
   Pseudo random numbers                .... off
   Inactive MOs                         .... canonical
   Orbital update algorithm             .... Taylor
   Preconditioner                       .... Diag
   Full preconditioner red. dimension   ....   250
   COSX micro iterations for RIJONX calc.... off
 SOSCF                  CNVSOSCF        .... on
   Start iteration      SOSCFMaxIt      ....   150
   Startup grad/error   SOSCFStart      ....  0.003300
   Hessian update       SOSCFHessUp     .... L-BFGS
 Level Shifting         CNVShift        .... on
   Level shift para.    LevelShift      ....    0.2500
   Turn off err/grad.   ShiftErr        ....    0.0010
 Zerner damping         CNVZerner       .... off
 Static damping         CNVDamp         .... on
   Fraction old density DampFac         ....    0.7000
   Max. Damping (<1)    DampMax         ....    0.9800
   Min. Damping (>=0)   DampMin         ....    0.0000
   Turn off err/grad.   DampErr         ....    0.1000

SCF Procedure:
 Maximum # iterations   MaxIter         ....   125
 SCF integral mode      SCFMode         .... Direct
   Integral package                     .... SHARK and LIBINT hybrid scheme
 Reset frequency        DirectResetFreq ....    20
 Integral Threshold     Thresh          ....  1.000e-10 Eh
 Primitive CutOff       TCut            ....  1.000e-11 Eh

Convergence Tolerance:
 Convergence Check Mode ConvCheckMode   .... Total+1el-Energy
 Convergence forced     ConvForced      .... 0
 Energy Change          TolE            ....  1.000e-06 Eh
 1-El. energy change                    ....  1.000e-03 Eh
 Orbital Gradient       TolG            ....  3.330e-04
 Orbital Rotation angle TolX            ....  3.330e-04
 DIIS Error             TolErr          ....  1.000e-06

---------------------
INITIAL GUESS: MOREAD
---------------------
Guess MOs are being read from file: sp_gas.ges
Input Geometry matches current geometry (good)
Atom 0: N(Shells)= 9 and 6 - projection required
Input basis set needs projection
NBasis(read)= 182
NBasis(calc)= 284
Basis set overlap was calculated
Using GuessMode=FMatrix for the initial guess
C*T matrix was formed
Effective Fockian was calculated
Effective Fockian was diagonalized
Initial density was built
                      ------------------
                      INITIAL GUESS DONE (   0.1 sec)
                      ------------------
             **** ENERGY FILE WAS UPDATED (sp_gas.en.tmp) ****
Finished Guess after   0.5 sec
Maximum memory used throughout the entire GUESS-calculation: 22.1 MB

-------------------------------------------------------------------------------------------
                                      ORCA LEAN-SCF
                              memory conserving SCF solver
-------------------------------------------------------------------------------------------

----------------------------------------D-I-I-S--------------------------------------------
Iteration    Energy (Eh)           Delta-E    RMSDP     MaxDP     DIISErr   Damp  Time(sec)
-------------------------------------------------------------------------------------------
               ***  Starting incremental Fock matrix formation  ***
    1    -464.3279558303146359     0.00e+00  5.59e-03  2.94e-01  6.26e-01  0.700   5.1
    2    -464.3946655634950957    -6.67e-02  4.28e-03  1.96e-01  4.40e-01  0.700   4.5
    3    -464.4418043935728520    -4.71e-02  3.09e-03  1.34e-01  3.09e-01  0.700   4.4
    4    -464.4748963325006343    -3.31e-02  2.20e-03  9.24e-02  2.16e-01  0.700   4.4
                               ***Turning on AO-DIIS***
    5    -464.4981057523531263    -2.32e-02  1.57e-03  6.32e-02  1.51e-01  0.700   4.6
    6    -464.5143739296817103    -1.63e-02  1.11e-03  4.38e-02  1.06e-01  0.700   4.2
    7    -464.5257769944518031    -1.14e-02  7.80e-04  3.04e-02  7.40e-02  0.700   4.2
    8    -464.5337658532745309    -7.99e-03  1.83e-03  7.05e-02  5.19e-02  0.000   4.0
                              *** Initializing SOSCF ***
---------------------------------------S-O-S-C-F--------------------------------------
Iteration    Energy (Eh)           Delta-E    RMSDP     MaxDP     MaxGrad    Time(sec)
--------------------------------------------------------------------------------------
    9    -464.5524298240271719    -1.87e-02  1.07e-05  4.06e-04  2.97e-04     4.4
               *** Restarting incremental Fock matrix formation ***
   10    -464.5524298012757072     2.28e-08  2.66e-05  1.39e-03  1.03e-04     5.2
   11    -464.5524283180960765     1.48e-06  1.83e-05  8.17e-04  3.20e-04     3.4
   12    -464.5524300396476747    -1.72e-06  3.81e-06  1.73e-04  2.09e-05     3.4
                  *** Gradient check signals convergence ***

               *****************************************************
               *                     SUCCESS                       *
               *           SCF CONVERGED AFTER  12 CYCLES          *
               *****************************************************

             **** ENERGY FILE WAS UPDATED (sp_gas.en.tmp) ****

----------------
TOTAL SCF ENERGY
----------------

Total Energy       :       -464.55243003964767 Eh          -12641.11428 eV

Components:
Nuclear Repulsion  :        596.81800548540252 Eh           16240.24357 eV
Electronic Energy  :      -1061.37043552505020 Eh          -28881.35785 eV
One Electron Energy:      -1811.00304488495249 Eh          -49279.89819 eV
Two Electron Energy:        749.63260935990229 Eh           20398.54034 eV

Virial components:
Potential Energy   :       -927.18815427484901 Eh          -25230.07235 eV
Kinetic Energy     :        462.63572423520134 Eh           12588.95807 eV
Virial Ratio       :          2.00414301296688

DFT components:
N(Alpha)           :       41.000050634452 electrons
N(Beta)            :       41.000050634452 electrons
N(Total)           :       82.000101268905 electrons
E(X)               :      -65.330871333502 Eh       
E(C)               :       -2.615087416763 Eh       
E(XC)              :      -67.945958750265 Eh       

---------------
SCF CONVERGENCE
---------------

  Last Energy change         ...    1.7216e-06  Tolerance :   1.0000e-06
  Last MAX-Density change    ...    1.7268e-04  Tolerance :   1.0000e-05
  Last RMS-Density change    ...    3.8117e-06  Tolerance :   1.0000e-06
  Last DIIS Error            ...    2.9718e-04  Tolerance :   1.0000e-06
  Last Orbital Gradient      ...    2.0880e-05  Tolerance :   3.3300e-04
  Last Orbital Rotation      ...    1.3471e-04  Tolerance :   3.3300e-04


----------------
ORBITAL ENERGIES
----------------

  NO   OCC          E(Eh)            E(eV) 
   0   2.0000     -18.937308      -515.3103 
   1   2.0000     -10.109462      -275.0924 
   2   2.0000     -10.054778      -273.6044 
   3   2.0000     -10.050141      -273.4782 
   4   2.0000     -10.048536      -273.4346 
   5   2.0000     -10.047669      -273.4110 
   6   2.0000     -10.046449      -273.3778 
   7   2.0000     -10.044935      -273.3366 
   8   2.0000     -10.041504      -273.2432 
   9   2.0000     -10.033155      -273.0160 
  10   2.0000     -10.019169      -272.6354 
  11   2.0000      -0.997965       -27.1560 
  12   2.0000      -0.833412       -22.6783 
  13   2.0000      -0.783330       -21.3155 
  14   2.0000      -0.731718       -19.9111 
  15   2.0000      -0.722767       -19.6675 
  16   2.0000      -0.664272       -18.0757 
  17   2.0000      -0.622256       -16.9324 
  18   2.0000      -0.607077       -16.5194 
  19   2.0000      -0.558841       -15.2068 
  20   2.0000      -0.510418       -13.8892 
  21   2.0000      -0.491734       -13.3808 
  22   2.0000      -0.468113       -12.7380 
  23   2.0000      -0.443171       -12.0593 
  24   2.0000      -0.427283       -11.6270 
  25   2.0000      -0.416748       -11.3403 
  26   2.0000      -0.412135       -11.2148 
  27   2.0000      -0.396951       -10.8016 
  28   2.0000      -0.395443       -10.7605 
  29   2.0000      -0.380085       -10.3426 
  30   2.0000      -0.371445       -10.1075 
  31   2.0000      -0.365452        -9.9445 
  32   2.0000      -0.354172        -9.6375 
  33   2.0000      -0.347738        -9.4624 
  34   2.0000      -0.341796        -9.3007 
  35   2.0000      -0.309715        -8.4278 
  36   2.0000      -0.305951        -8.3253 
  37   2.0000      -0.293015        -7.9733 
  38   2.0000      -0.241178        -6.5628 
  39   2.0000      -0.231119        -6.2891 
  40   2.0000      -0.217286        -5.9127 
  41   0.0000      -0.092206        -2.5091 
  42   0.0000      -0.016063        -0.4371 
  43   0.0000       0.032443         0.8828 
  44   0.0000       0.066533         1.8104 
  45   0.0000       0.090237         2.4555 
  46   0.0000       0.091428         2.4879 
  47   0.0000       0.100667         2.7393 
  48   0.0000       0.110574         3.0089 
  49   0.0000       0.116626         3.1736 
  50   0.0000       0.122957         3.3458 
  51   0.0000       0.126709         3.4479 
*Only the first 10 virtual orbitals were printed.

                    ********************************
                    * MULLIKEN POPULATION ANALYSIS *
                    ********************************

-----------------------
MULLIKEN ATOMIC CHARGES
-----------------------
   0 C :   -0.533720
   1 C :    0.073002
   2 C :   -0.379200
   3 C :    0.012935
   4 H :    0.175576
   5 C :   -0.349731
   6 C :   -0.361559
   7 C :    0.111244
   8 C :   -0.084188
   9 C :   -0.413621
  10 C :    0.022418
  11 O :   -0.351669
  12 H :    0.154244
  13 H :    0.161117
  14 H :    0.168088
  15 H :    0.142272
  16 H :    0.139290
  17 H :    0.169203
  18 H :    0.170408
  19 H :    0.177174
  20 H :    0.156188
  21 H :    0.187341
  22 H :    0.169876
  23 H :    0.179039
  24 H :    0.104272
Sum of atomic charges:   -0.0000000

--------------------------------
MULLIKEN REDUCED ORBITAL CHARGES
--------------------------------
  0 C s       :     3.366483  s :     3.366483
      pz      :     1.067505  p :     3.139675
      px      :     1.108723
      py      :     0.963447
      dz2     :     0.002900  d :     0.027561
      dxz     :     0.004881
      dyz     :     0.008409
      dx2y2   :     0.007246
      dxy     :     0.004125

  1 C s       :     3.113063  s :     3.113063
      pz      :     0.935740  p :     2.766318
      px      :     0.966372
      py      :     0.864206
      dz2     :     0.003752  d :     0.047618
      dxz     :     0.007036
      dyz     :     0.008159
      dx2y2   :     0.015645
      dxy     :     0.013027

  2 C s       :     3.279541  s :     3.279541
      pz      :     1.052203  p :     3.073496
      px      :     1.028397
      py      :     0.992896
      dz2     :     0.002197  d :     0.026163
      dxz     :     0.002734
      dyz     :     0.004087
      dx2y2   :     0.010630
      dxy     :     0.006514

  3 C s       :     3.038151  s :     3.038151
      pz      :     0.943257  p :     2.902577
      px      :     0.923522
      py      :     1.035798
      dz2     :     0.007392  d :     0.046337
      dxz     :     0.010691
      dyz     :     0.010364
      dx2y2   :     0.011808
      dxy     :     0.006081

  4 H s       :     0.807068  s :     0.807068
      pz      :     0.005372  p :     0.017357
      px      :     0.003189
      py      :     0.008795

  5 C s       :     3.288276  s :     3.288276
      pz      :     1.069661  p :     3.024709
      px      :     0.985232
      py      :     0.969816
      dz2     :     0.004449  d :     0.036745
      dxz     :     0.008799
      dyz     :     0.008678
      dx2y2   :     0.009317
      dxy     :     0.005503

  6 C s       :     3.294858  s :     3.294858
      pz      :     0.957549  p :     3.029045
      px      :     0.967118
      py      :     1.104378
      dz2     :     0.004830  d :     0.037656
      dxz     :     0.009368
      dyz     :     0.009778
      dx2y2   :     0.007224
      dxy     :     0.006457

  7 C s       :     3.110797  s :     3.110797
      pz      :     0.910456  p :     2.733587
      px      :     0.806587
      py      :     1.016544
      dz2     :     0.011842  d :     0.044372
      dxz     :     0.012499
      dyz     :     0.007216
      dx2y2   :     0.008162
      dxy     :     0.004652

  8 C s       :     3.198238  s :     3.198238
      pz      :     1.003102  p :     2.848429
      px      :     0.959341
      py      :     0.885986
      dz2     :     0.008170  d :     0.037521
      dxz     :     0.012842
      dyz     :     0.005316
      dx2y2   :     0.005727
      dxy     :     0.005467

  9 C s       :     3.352317  s :     3.352317
      pz      :     0.979453  p :     3.023250
      px      :     0.918617
      py      :     1.125180
      dz2     :     0.005631  d :     0.038054
      dxz     :     0.008262
      dyz     :     0.009372
      dx2y2   :     0.010125
      dxy     :     0.004665

 10 C s       :     3.318240  s :     3.318240
      pz      :     0.903366  p :     2.575566
      px      :     0.902324
      py      :     0.769876
      dz2     :     0.026664  d :     0.083776
      dxz     :     0.017610
      dyz     :     0.009458
      dx2y2   :     0.017290
      dxy     :     0.012755

 11 O s       :     3.847402  s :     3.847402
      pz      :     1.524896  p :     4.482264
      px      :     1.590553
      py      :     1.366814
      dz2     :     0.001535  d :     0.022003
      dxz     :     0.005985
      dyz     :     0.004185
      dx2y2   :     0.002812
      dxy     :     0.007486

 12 H s       :     0.827528  s :     0.827528
      pz      :     0.004554  p :     0.018228
      px      :     0.010214
      py      :     0.003460

 13 H s       :     0.820442  s :     0.820442
      pz      :     0.007634  p :     0.018441
      px      :     0.006125
      py      :     0.004682

 14 H s       :     0.813522  s :     0.813522
      pz      :     0.007724  p :     0.018390
      px      :     0.003700
      py      :     0.006966

 15 H s       :     0.837809  s :     0.837809
      pz      :     0.005475  p :     0.019919
      px      :     0.004202
      py      :     0.010243

 16 H s       :     0.840770  s :     0.840770
      pz      :     0.004929  p :     0.019940
      px      :     0.011592
      py      :     0.003419

 17 H s       :     0.812976  s :     0.812976
      pz      :     0.008080  p :     0.017821
      px      :     0.006121
      py      :     0.003620

 18 H s       :     0.811770  s :     0.811770
      pz      :     0.005658  p :     0.017822
      px      :     0.003455
      py      :     0.008709

 19 H s       :     0.804953  s :     0.804953
      pz      :     0.006994  p :     0.017873
      px      :     0.003408
      py      :     0.007471

 20 H s       :     0.825718  s :     0.825718
      pz      :     0.005031  p :     0.018094
      px      :     0.004688
      py      :     0.008374

 21 H s       :     0.793074  s :     0.793074
      pz      :     0.007810  p :     0.019585
      px      :     0.007702
      py      :     0.004073

 22 H s       :     0.812165  s :     0.812165
      pz      :     0.005154  p :     0.017959
      px      :     0.003642
      py      :     0.009163

 23 H s       :     0.802794  s :     0.802794
      pz      :     0.006544  p :     0.018167
      px      :     0.004050
      py      :     0.007573

 24 H s       :     0.878089  s :     0.878089
      pz      :     0.010737  p :     0.017639
      px      :     0.003488
      py      :     0.003414


------------------------
MULLIKEN OVERLAP CHARGES
------------------------
B(  0-C ,  1-C ) :   0.3710 B(  0-C ,  2-C ) :  -0.0603 B(  0-C ,  3-C ) :  -0.0608 
B(  0-C ,  5-C ) :  -0.0587 B(  0-C , 12-H ) :   0.8257 B(  0-C , 13-H ) :   0.8839 
B(  0-C , 14-H ) :   0.8371 B(  1-C ,  2-C ) :   1.1001 B(  1-C ,  3-C ) :   0.2132 
B(  1-C ,  4-H ) :  -0.1551 B(  1-C ,  9-C ) :  -0.1854 B(  1-C , 12-H ) :  -0.0971 
B(  1-C , 13-H ) :  -0.1431 B(  1-C , 14-H ) :  -0.0643 B(  1-C , 15-H ) :  -0.1407 
B(  1-C , 16-H ) :  -0.1001 B(  2-C , 15-H ) :   0.8814 B(  2-C , 16-H ) :   0.8389 
B(  3-C ,  4-H ) :   0.9437 B(  3-C ,  5-C ) :   0.0596 B(  3-C ,  7-C ) :  -0.1513 
B(  3-C ,  8-C ) :   0.1169 B(  3-C ,  9-C ) :   0.1318 B(  3-C , 14-H ) :  -0.0505 
B(  3-C , 17-H ) :  -0.1003 B(  3-C , 18-H ) :  -0.0989 B(  3-C , 22-H ) :  -0.0888 
B(  3-C , 23-H ) :  -0.0812 B(  4-H ,  5-C ) :  -0.1338 B(  5-C ,  6-C ) :   0.2422 
B(  5-C ,  8-C ) :   0.0992 B(  5-C ,  9-C ) :  -0.3902 B(  5-C , 17-H ) :   0.8229 
B(  5-C , 18-H ) :   0.8188 B(  5-C , 19-H ) :  -0.0557 B(  5-C , 20-H ) :  -0.0895 
B(  6-C ,  7-C ) :   0.3295 B(  6-C ,  8-C ) :  -0.0999 B(  6-C ,  9-C ) :  -0.0639 
B(  6-C , 10-C ) :  -0.1065 B(  6-C , 17-H ) :  -0.0684 B(  6-C , 19-H ) :   0.9300 
B(  6-C , 20-H ) :   0.8482 B(  7-C ,  8-C ) :   0.7973 B(  7-C ,  9-C ) :   0.0592 
B(  7-C , 10-C ) :  -0.4073 B(  7-C , 11-O ) :  -0.3456 B(  7-C , 19-H ) :  -0.1207 
B(  7-C , 20-H ) :  -0.0987 B(  7-C , 24-H ) :  -0.4426 B(  8-C ,  9-C ) :  -0.1801 
B(  8-C , 10-C ) :  -0.0764 B(  8-C , 11-O ) :   0.0563 B(  8-C , 21-H ) :   0.8329 
B(  8-C , 22-H ) :  -0.0633 B(  8-C , 23-H ) :  -0.1052 B(  9-C , 10-C ) :   0.0856 
B(  9-C , 21-H ) :  -0.0866 B(  9-C , 22-H ) :   0.8129 B(  9-C , 23-H ) :   0.8928 
B( 10-C , 11-O ) :   1.1034 B( 10-C , 24-H ) :   1.1185 B( 11-O , 24-H ) :  -0.1432 
B( 13-H , 14-H ) :  -0.0553 


                     *******************************
                     * LOEWDIN POPULATION ANALYSIS *
                     *******************************

----------------------
LOEWDIN ATOMIC CHARGES
----------------------
   0 C :   -0.392632
   1 C :   -0.122880
   2 C :   -0.316818
   3 C :   -0.198033
   4 H :    0.173128
   5 C :   -0.274311
   6 C :   -0.277358
   7 C :   -0.136807
   8 C :   -0.083706
   9 C :   -0.266717
  10 C :    0.206663
  11 O :   -0.472317
  12 H :    0.161951
  13 H :    0.158387
  14 H :    0.165474
  15 H :    0.158191
  16 H :    0.156750
  17 H :    0.164337
  18 H :    0.165767
  19 H :    0.169877
  20 H :    0.167110
  21 H :    0.186310
  22 H :    0.175917
  23 H :    0.176728
  24 H :    0.154988

-------------------------------
LOEWDIN REDUCED ORBITAL CHARGES
-------------------------------
  0 C s       :     2.952566  s :     2.952566
      pz      :     1.140179  p :     3.375844
      px      :     1.146959
      py      :     1.088705
      dz2     :     0.006409  d :     0.064222
      dxz     :     0.012195
      dyz     :     0.019706
      dx2y2   :     0.017085
      dxy     :     0.008829

  1 C s       :     2.895139  s :     2.895139
      pz      :     0.945663  p :     3.130293
      px      :     1.081788
      py      :     1.102842
      dz2     :     0.006839  d :     0.097448
      dxz     :     0.012979
      dyz     :     0.014795
      dx2y2   :     0.034204
      dxy     :     0.028632

  2 C s       :     2.968083  s :     2.968083
      pz      :     1.059556  p :     3.286613
      px      :     1.116855
      py      :     1.110202
      dz2     :     0.003876  d :     0.062121
      dxz     :     0.005439
      dyz     :     0.007972
      dx2y2   :     0.026752
      dxy     :     0.018083

  3 C s       :     2.887542  s :     2.887542
      pz      :     1.070553  p :     3.215047
      px      :     1.040894
      py      :     1.103600
      dz2     :     0.014268  d :     0.095443
      dxz     :     0.021970
      dyz     :     0.022496
      dx2y2   :     0.025260
      dxy     :     0.011448

  4 H s       :     0.783686  s :     0.783686
      pz      :     0.013175  p :     0.043186
      px      :     0.007849
      py      :     0.022162

  5 C s       :     2.923183  s :     2.923183
      pz      :     1.110701  p :     3.271473
      px      :     1.063234
      py      :     1.097537
      dz2     :     0.008732  d :     0.079654
      dxz     :     0.019657
      dyz     :     0.019947
      dx2y2   :     0.020500
      dxy     :     0.010818

  6 C s       :     2.914597  s :     2.914597
      pz      :     1.085875  p :     3.281302
      px      :     1.063624
      py      :     1.131803
      dz2     :     0.009725  d :     0.081458
      dxz     :     0.019844
      dyz     :     0.022459
      dx2y2   :     0.016263
      dxy     :     0.013167

  7 C s       :     2.878720  s :     2.878720
      pz      :     1.097422  p :     3.164425
      px      :     1.053915
      py      :     1.013088
      dz2     :     0.025283  d :     0.093661
      dxz     :     0.029088
      dyz     :     0.013767
      dx2y2   :     0.016644
      dxy     :     0.008880

  8 C s       :     2.915161  s :     2.915161
      pz      :     1.099757  p :     3.088165
      px      :     1.079997
      py      :     0.908411
      dz2     :     0.018644  d :     0.080380
      dxz     :     0.029712
      dyz     :     0.010079
      dx2y2   :     0.011620
      dxy     :     0.010325

  9 C s       :     2.913953  s :     2.913953
      pz      :     1.082118  p :     3.270259
      px      :     1.051275
      py      :     1.136867
      dz2     :     0.011708  d :     0.082505
      dxz     :     0.018051
      dyz     :     0.020770
      dx2y2   :     0.022994
      dxy     :     0.008982

 10 C s       :     2.856178  s :     2.856178
      pz      :     0.982161  p :     2.751499
      px      :     1.010371
      py      :     0.758967
      dz2     :     0.059255  d :     0.185660
      dxz     :     0.042818
      dyz     :     0.019815
      dx2y2   :     0.039380
      dxy     :     0.024393

 11 O s       :     3.573875  s :     3.573875
      pz      :     1.625829  p :     4.666817
      px      :     1.662998
      py      :     1.377990
      dz2     :     0.060056  d :     0.231626
      dxz     :     0.065768
      dyz     :     0.030973
      dx2y2   :     0.040914
      dxy     :     0.033915

 12 H s       :     0.794652  s :     0.794652
      pz      :     0.010226  p :     0.043397
      px      :     0.025389
      py      :     0.007783

 13 H s       :     0.797573  s :     0.797573
      pz      :     0.018572  p :     0.044040
      px      :     0.014838
      py      :     0.010630

 14 H s       :     0.790453  s :     0.790453
      pz      :     0.019232  p :     0.044073
      px      :     0.008104
      py      :     0.016737

 15 H s       :     0.796197  s :     0.796197
      pz      :     0.012250  p :     0.045611
      px      :     0.009500
      py      :     0.023861

 16 H s       :     0.797657  s :     0.797657
      pz      :     0.010911  p :     0.045592
      px      :     0.027422
      py      :     0.007259

 17 H s       :     0.791933  s :     0.791933
      pz      :     0.020313  p :     0.043730
      px      :     0.014978
      py      :     0.008440

 18 H s       :     0.790256  s :     0.790256
      pz      :     0.014005  p :     0.043977
      px      :     0.008059
      py      :     0.021913

 19 H s       :     0.786504  s :     0.786504
      pz      :     0.016988  p :     0.043619
      px      :     0.008062
      py      :     0.018569

 20 H s       :     0.789130  s :     0.789130
      pz      :     0.011629  p :     0.043761
      px      :     0.011475
      py      :     0.020656

 21 H s       :     0.766892  s :     0.766892
      pz      :     0.018732  p :     0.046797
      px      :     0.018950
      py      :     0.009115

 22 H s       :     0.780306  s :     0.780306
      pz      :     0.012486  p :     0.043777
      px      :     0.008485
      py      :     0.022806

 23 H s       :     0.779056  s :     0.779056
      pz      :     0.016163  p :     0.044216
      px      :     0.009354
      py      :     0.018698

 24 H s       :     0.805541  s :     0.805541
      pz      :     0.024029  p :     0.039471
      px      :     0.008142
      py      :     0.007300


---------------------------------
LOEWDIN BOND ORDERS (THRESH 0.050000)
---------------------------------
B(  0-C ,  1-C ) :   1.1118 B(  0-C ,  2-C ) :   0.1003 B(  0-C ,  3-C ) :   0.0654 
B(  0-C , 12-H ) :   0.9171 B(  0-C , 13-H ) :   0.9094 B(  0-C , 14-H ) :   0.9047 
B(  1-C ,  2-C ) :   1.9746 B(  1-C ,  3-C ) :   1.0453 B(  1-C ,  5-C ) :   0.0670 
B(  1-C ,  9-C ) :   0.0725 B(  1-C , 15-H ) :   0.0639 B(  1-C , 16-H ) :   0.0648 
B(  2-C ,  3-C ) :   0.1082 B(  2-C , 15-H ) :   0.9084 B(  2-C , 16-H ) :   0.9097 
B(  3-C ,  4-H ) :   0.8433 B(  3-C ,  5-C ) :   1.0470 B(  3-C ,  6-C ) :   0.0663 
B(  3-C ,  8-C ) :   0.0649 B(  3-C ,  9-C ) :   1.0358 B(  5-C ,  6-C ) :   1.0929 
B(  5-C ,  7-C ) :   0.0639 B(  5-C ,  9-C ) :   0.0586 B(  5-C , 17-H ) :   0.8833 
B(  5-C , 18-H ) :   0.8769 B(  6-C ,  7-C ) :   1.0622 B(  6-C ,  8-C ) :   0.0824 
B(  6-C , 10-C ) :   0.0894 B(  6-C , 19-H ) :   0.8711 B(  6-C , 20-H ) :   0.8743 
B(  7-C ,  8-C ) :   1.7589 B(  7-C ,  9-C ) :   0.0892 B(  7-C , 10-C ) :   1.0747 
B(  7-C , 11-O ) :   0.2280 B(  7-C , 21-H ) :   0.0582 B(  7-C , 24-H ) :   0.0596 
B(  8-C ,  9-C ) :   1.1352 B(  8-C , 10-C ) :   0.1254 B(  8-C , 11-O ) :   0.1409 
B(  8-C , 21-H ) :   0.8502 B(  9-C , 22-H ) :   0.8662 B(  9-C , 23-H ) :   0.8533 
B( 10-C , 11-O ) :   2.3731 B( 10-C , 24-H ) :   0.7870 B( 11-O , 24-H ) :   0.1440 


------------------------------------------
LOEWDIN REDUCED ORBITAL POPULATIONS PER MO
-------------------------------------------
THRESHOLD FOR PRINTING IS 0.1%%
                      0         1         2         3         4         5   
                 -18.93731 -10.10946 -10.05478 -10.05014 -10.04854 -10.04767
                   2.00000   2.00000   2.00000   2.00000   2.00000   2.00000
                  --------  --------  --------  --------  --------  --------
 1 C  s               0.0       0.0       0.0       0.1       0.0      99.4
 2 C  py              0.0       0.0       0.0       0.0       0.0       0.1
 3 C  s               0.0       0.0       0.0      99.4       0.2       0.1
 7 C  s               0.0       0.0       0.1       0.0       0.0       0.0
 7 C  pz              0.0       0.0       0.1       0.0       0.0       0.0
 8 C  s               0.0       0.0      99.5       0.0       0.0       0.0
 9 C  s               0.0       0.0       0.0       0.2      99.5       0.0
10 C  s               0.0      99.2       0.0       0.0       0.0       0.0
11 O  s              99.9       0.0       0.0       0.0       0.0       0.0
11 O  pz              0.0       0.1       0.0       0.0       0.0       0.0
11 O  px              0.0       0.1       0.0       0.0       0.0       0.0
11 O  dxz             0.0       0.2       0.0       0.0       0.0       0.0

                      6         7         8         9        10        11   
                 -10.04645 -10.04493 -10.04150 -10.03315 -10.01917  -0.99797
                   2.00000   2.00000   2.00000   2.00000   2.00000   2.00000
                  --------  --------  --------  --------  --------  --------
 0 C  s               0.0       0.0       0.0      99.7       0.0       0.0
 1 C  py              0.0       0.0       0.0       0.1       0.1       0.0
 2 C  s               0.0       0.0       0.0       0.0      99.6       0.0
 5 C  s               0.0       0.0      99.7       0.0       0.0       0.0
 6 C  s              99.4       0.3       0.0       0.0       0.0       0.1
 6 C  px              0.0       0.0       0.1       0.0       0.0       0.1
 7 C  s               0.3      99.2       0.0       0.0       0.0       1.3
 7 C  px              0.0       0.0       0.0       0.0       0.0       2.1
 8 C  s               0.0       0.1       0.0       0.0       0.0       0.2
 8 C  pz              0.0       0.1       0.0       0.0       0.0       0.1
 8 C  px              0.0       0.0       0.0       0.0       0.0       0.4
10 C  s               0.0       0.0       0.0       0.0       0.0      17.6
10 C  pz              0.0       0.0       0.0       0.0       0.0       6.6
10 C  px              0.0       0.1       0.0       0.0       0.0       5.6
10 C  py              0.0       0.0       0.0       0.0       0.0       1.0
10 C  dxz             0.0       0.0       0.0       0.0       0.0       1.1
10 C  dyz             0.0       0.0       0.0       0.0       0.0       0.2
10 C  dx2y2           0.0       0.0       0.0       0.0       0.0       0.3
10 C  dxy             0.0       0.0       0.0       0.0       0.0       0.2
11 O  s               0.0       0.0       0.0       0.0       0.0      54.7
11 O  pz              0.0       0.0       0.0       0.0       0.0       2.9
11 O  px              0.0       0.0       0.0       0.0       0.0       3.0
11 O  py              0.0       0.0       0.0       0.0       0.0       0.5
11 O  dxz             0.0       0.0       0.0       0.0       0.0       0.4
24 H  s               0.0       0.0       0.0       0.0       0.0       1.0

                     12        13        14        15        16        17   
                  -0.83341  -0.78333  -0.73172  -0.72277  -0.66427  -0.62226
                   2.00000   2.00000   2.00000   2.00000   2.00000   2.00000
                  --------  --------  --------  --------  --------  --------
 0 C  s               1.6       9.0       0.6       6.8      25.6       0.2
 0 C  pz              0.1       0.2       0.0       0.0       0.1       0.0
 0 C  px              0.3       0.2       0.0       0.1       0.0       0.5
 0 C  py              0.5       1.8       0.0       0.5       1.4       0.0
 1 C  s               6.0      19.7       0.3       4.8       1.0       0.1
 1 C  pz              0.0       0.0       0.1       0.3       1.5       0.2
 1 C  px              1.2       0.1       0.3       6.2       0.1       8.4
 1 C  py              0.0       0.0       0.1       0.0      19.7       0.6
 1 C  dz2             0.0       0.1       0.0       0.0       0.0       0.0
 1 C  dxy             0.0       0.0       0.0       0.0       0.3       0.1
 2 C  s               1.6       9.3       0.3       6.4      15.7       5.9
 2 C  px              0.5       1.2       0.0       0.1       0.4       0.7
 2 C  py              0.5       2.0       0.1       0.8       0.4       0.1
 3 C  s              14.0       5.2       0.2       6.5       0.6       9.0
 3 C  pz              0.2       0.2       5.1       0.3       0.1       0.0
 3 C  px              0.4       4.7       0.5       2.7       0.4       0.9
 3 C  py              0.5       0.0       1.3       0.5       1.5       0.1
 3 C  dxz             0.0       0.0       0.1       0.0       0.0       0.0
 4 H  s               1.5       0.7       0.0       1.1       0.5       2.2
 4 H  py              0.1       0.0       0.0       0.1       0.0       0.1
 5 C  s               9.7       0.0       9.4       9.7       0.2       0.4
 5 C  pz              0.5       0.4       1.1       0.1       0.0       1.5
 5 C  px              0.3       2.6       1.2       0.1       0.0       3.6
 5 C  py              1.4       0.1       0.1       0.3       0.2       1.0
 6 C  s               8.4       4.7      14.9       0.0       0.0       5.2
 6 C  pz              1.6       0.6       0.1       0.3       0.0       0.5
 6 C  px              0.3       0.8       0.5       5.2       0.1       1.2
 6 C  py              0.1       0.1       0.1       0.3       0.0       0.3
 6 C  dxz             0.0       0.0       0.0       0.1       0.0       0.0
 7 C  s               9.5      10.7       0.3      10.5       0.1       2.1
 7 C  pz              0.1       0.0       8.2       0.3       0.1       0.2
 7 C  px              1.7       0.1       0.0       1.1       0.1       9.3
 7 C  py              0.0       0.0       1.2       0.1       0.0       0.0
 7 C  dxz             0.0       0.0       0.1       0.0       0.0       0.0
 8 C  s               9.7       5.2      10.7       3.1       0.1       2.7
 8 C  pz              1.0       1.3       1.2       1.4       0.1       1.2
 8 C  px              0.9       0.5       2.5       3.3       0.1       1.6
 8 C  py              0.1       0.2       0.2       0.2       0.0       0.1
 8 C  dx2y2           0.1       0.0       0.1       0.0       0.0       0.0
 9 C  s              10.7       0.0      17.5       2.4       0.1       1.0
 9 C  pz              1.8       0.1       0.2       0.5       0.1       1.6
 9 C  px              0.1       3.0       1.2       1.2       0.1       4.0
 9 C  py              0.1       0.0       0.0       0.0       0.1       0.0
10 C  s               0.6       1.1       0.3       2.4       0.1       7.7
10 C  pz              0.1       0.1       0.4       0.2       0.0       1.9
10 C  px              2.3       3.4       0.1       5.0       0.1       4.3
10 C  py              0.0       0.0       0.1       0.0       0.0       0.3
10 C  dxz             0.0       0.0       0.0       0.1       0.0       0.1
11 O  s               0.5       0.8       0.0       1.5       0.0       3.0
11 O  pz              0.0       0.1       0.0       0.1       0.0       0.9
11 O  px              0.1       0.1       0.0       0.4       0.0       1.2
11 O  py              0.0       0.0       0.0       0.0       0.0       0.1
11 O  dxz             0.0       0.1       0.0       0.2       0.0       0.7
11 O  dx2y2           0.1       0.1       0.0       0.2       0.0       0.2
11 O  dxy             0.0       0.0       0.0       0.0       0.0       0.1
12 H  s               0.2       1.2       0.1       1.4       5.6       0.3
12 H  px              0.0       0.1       0.0       0.1       0.4       0.0
13 H  s               0.2       1.2       0.1       1.0       6.8       0.0
13 H  pz              0.0       0.1       0.0       0.0       0.3       0.0
13 H  px              0.0       0.0       0.0       0.0       0.2       0.0
14 H  s               0.2       1.1       0.1       1.1       6.6       0.0
14 H  pz              0.0       0.1       0.0       0.1       0.3       0.0
14 H  py              0.0       0.1       0.0       0.0       0.2       0.0
15 H  s               0.2       1.0       0.0       0.8       3.9       1.3
15 H  py              0.0       0.1       0.0       0.1       0.3       0.1
16 H  s               0.1       1.1       0.0       1.1       2.7       2.1
16 H  px              0.0       0.1       0.0       0.1       0.2       0.2
17 H  s               1.0       0.0       1.7       1.7       0.1       0.1
17 H  pz              0.0       0.0       0.1       0.1       0.0       0.0
18 H  s               1.0       0.0       1.5       1.6       0.2       0.1
18 H  py              0.1       0.0       0.1       0.1       0.0       0.0
19 H  s               0.9       0.6       2.6       0.0       0.0       1.4
19 H  pz              0.0       0.0       0.1       0.0       0.0       0.0
19 H  py              0.0       0.0       0.1       0.0       0.0       0.1
20 H  s               0.9       0.6       2.8       0.0       0.0       1.4
20 H  py              0.0       0.0       0.2       0.0       0.0       0.1
21 H  s               0.9       0.6       1.8       0.6       0.0       0.7
22 H  s               1.1       0.0       3.2       0.4       0.0       0.3
22 H  py              0.1       0.0       0.2       0.0       0.0       0.0
23 H  s               1.2       0.0       3.1       0.4       0.1       0.4
23 H  pz              0.0       0.0       0.1       0.0       0.0       0.0
23 H  py              0.1       0.0       0.2       0.0       0.0       0.0
24 H  s               0.1       0.2       0.1       0.4       0.0       2.9
24 H  pz              0.0       0.0       0.0       0.0       0.0       0.2

                     18        19        20        21        22        23   
                  -0.60708  -0.55884  -0.51042  -0.49173  -0.46811  -0.44317
                   2.00000   2.00000   2.00000   2.00000   2.00000   2.00000
                  --------  --------  --------  --------  --------  --------
 0 C  s               0.1       0.0       1.9       0.7       0.2       0.1
 0 C  pz              0.1       0.0       1.1       0.0       0.6       0.1
 0 C  px              0.0       0.1       2.2       1.2       0.2       6.3
 0 C  py              0.0       0.1       5.0       1.7       3.3       5.2
 1 C  s               0.0       0.9       8.4       0.7       1.7       0.3
 1 C  pz              0.6       0.0       0.0       0.9       0.0       0.5
 1 C  px              0.0       2.6       1.3       0.0       2.1       9.4
 1 C  py              0.0       0.0       0.4       0.3       0.3       0.0
 2 C  s               0.1       2.5       4.0       0.0       0.6       0.7
 2 C  pz              0.0       0.0       0.1       0.2       0.2       1.6
 2 C  px              0.0       1.4       5.0       0.1       0.1       0.3
 2 C  py              0.0       0.3       5.9       0.5       5.7      13.3
 2 C  dxy             0.0       0.0       0.2       0.0       0.1       0.1
 3 C  s               0.0       2.8       1.0       1.0       0.1       0.2
 3 C  pz              5.2       0.0       0.4       6.8       0.4       0.4
 3 C  px              0.1       0.8      10.9       0.0       0.6       3.5
 3 C  py              1.9       3.3       0.9       6.2       0.5       1.2
 3 C  dx2y2           0.0       0.1       0.1       0.0       0.0       0.0
 4 H  s               0.0       2.2       1.9       5.7       0.1       0.2
 4 H  py              0.0       0.1       0.1       0.2       0.0       0.0
 5 C  s               6.4       7.9       0.1       0.0       0.1       0.6
 5 C  pz              0.1       0.1       2.0       5.7       1.3       3.0
 5 C  px              2.6       1.1       0.2       0.3       0.5       0.0
 5 C  py              0.2       4.6       2.3       3.8       0.7       1.0
 6 C  s               6.7       2.5       0.9       0.4       0.1       0.2
 6 C  pz              1.5       0.0       3.3       7.7       1.8       0.0
 6 C  px              4.2       1.4       0.1       0.8       0.1       2.8
 6 C  py              0.0       1.9       1.5       0.8       0.4       2.5
 7 C  s               0.3       0.6       0.4       2.8       0.6       0.3
 7 C  pz             13.8       0.1       0.1       0.1       0.1       0.0
 7 C  px              0.4       8.1       0.8       1.2       6.7       1.4
 7 C  py              1.5       0.2       0.0       1.0       0.0       1.1
 7 C  dz2             0.0       0.1       0.0       0.0       0.0       0.1
 8 C  s               6.3       0.1       1.5       2.8       1.0       1.4
 8 C  pz              0.8       2.9       5.4       6.9       0.3       1.7
 8 C  px              5.4       0.6       1.3       0.5       5.1       0.1
 8 C  py              0.1       0.1       0.3       3.7       0.1       0.4
 9 C  s               8.3       2.3       0.0       0.4       0.4       0.8
 9 C  pz              1.2       3.2       5.0       0.1       3.0       0.1
 9 C  px              2.5       0.2       0.2       3.5       6.1       0.5
 9 C  py              0.2       0.2       0.0       5.0       0.8       4.6
 9 C  dz2             0.0       0.0       0.1       0.0       0.0       0.0
 9 C  dx2y2           0.0       0.0       0.0       0.0       0.1       0.1
10 C  s               1.4       7.4       0.0       0.9       0.8       0.1
10 C  pz              2.6       3.8       0.0       1.7      10.4       2.2
10 C  px              0.0       0.5       0.0       0.6      10.1       2.6
10 C  py              0.4       0.7       0.0       0.1       1.4       1.0
11 O  s               0.1       2.9       0.0       0.8       0.3       0.1
11 O  pz              0.4       2.2       0.1       1.1       6.2       0.2
11 O  px              0.0       1.1       0.0       0.2       1.8       1.9
11 O  py              0.1       0.4       0.0       0.1       0.8       0.2
11 O  dz2             0.1       0.1       0.0       0.1       1.0       0.2
11 O  dxz             0.1       0.5       0.0       0.0       0.0       0.1
11 O  dyz             0.0       0.2       0.0       0.1       0.2       0.1
11 O  dx2y2           0.1       0.0       0.0       0.0       0.4       0.1
12 H  s               0.0       0.0       2.6       0.9       0.0       1.5
13 H  s               0.1       0.0       1.3       0.1       1.3       2.6
14 H  s               0.0       0.0       1.3       0.8       0.4       0.9
15 H  s               0.0       0.8       4.0       0.3       2.7       7.3
15 H  py              0.0       0.0       0.1       0.0       0.1       0.2
16 H  s               0.0       1.7       4.8       0.0       0.3       0.0
16 H  px              0.0       0.1       0.2       0.0       0.0       0.0
17 H  s               2.4       4.0       0.8       0.7       0.8       1.3
17 H  pz              0.1       0.2       0.0       0.0       0.0       0.0
18 H  s               2.1       5.0       0.1       2.6       0.1       0.4
18 H  pz              0.1       0.1       0.0       0.0       0.0       0.0
18 H  py              0.1       0.2       0.0       0.1       0.0       0.0
19 H  s               2.7       1.6       0.5       2.8       0.2       0.1
19 H  py              0.1       0.0       0.0       0.1       0.0       0.0
20 H  s               3.3       0.3       2.1       0.3       0.6       2.4
20 H  py              0.2       0.0       0.1       0.0       0.0       0.0
21 H  s               2.4       0.0       3.7       5.9       0.2       1.7
21 H  pz              0.2       0.0       0.1       0.1       0.0       0.0
21 H  px              0.0       0.0       0.1       0.2       0.0       0.0
22 H  s               3.7       1.1       0.2       0.1       2.4       3.1
22 H  py              0.2       0.1       0.0       0.0       0.1       0.1
23 H  s               3.2       2.0       0.4       2.3       1.1       0.1
23 H  py              0.2       0.1       0.0       0.0       0.1       0.0
24 H  s               1.6       5.4       0.0       2.1       8.6       1.7
24 H  pz              0.1       0.3       0.0       0.1       0.3       0.0

                     24        25        26        27        28        29   
                  -0.42728  -0.41675  -0.41214  -0.39695  -0.39544  -0.38009
                   2.00000   2.00000   2.00000   2.00000   2.00000   2.00000
                  --------  --------  --------  --------  --------  --------
 0 C  s               0.2       0.0       0.0       0.1       0.0       0.0
 0 C  pz              0.3       7.7       1.3       6.6      23.0       0.8
 0 C  px              2.3       0.0       2.3       4.9       1.5       1.8
 0 C  py              1.8       2.0       1.2       0.6       2.4       0.1
 0 C  dyz             0.0       0.0       0.0       0.0       0.1       0.0
 1 C  s               0.0       0.0       0.1       0.1       0.0       0.1
 1 C  pz              0.1       4.6       0.1       0.3       6.0       0.1
 1 C  px              0.1       0.0       0.8       0.8       0.3       0.2
 1 C  py              5.6       0.1       1.4       6.9       0.2       0.4
 2 C  s               0.4       0.0       0.0       0.2       0.0       0.0
 2 C  pz              0.1       1.3       0.4       0.2       1.4       0.1
 2 C  px              9.5       1.2       7.1       8.4       0.1       3.4
 2 C  py              0.3       0.1       1.3       1.1       0.1       0.1
 3 C  s               0.1       0.8       2.0       0.0       0.0       0.1
 3 C  pz              0.3       3.3       0.2       3.9       0.4       0.1
 3 C  px              0.1       1.4       1.5       0.1       0.0       0.4
 3 C  py              9.8       0.1       0.1       0.0       0.1       0.9
 3 C  dxy             0.0       0.0       0.0       0.2       0.0       0.0
 4 H  s               1.4       0.0       0.7       0.6       0.0       0.3
 5 C  s               0.1       0.1       0.0       0.1       0.4       0.2
 5 C  pz              0.1       0.5       6.0       0.0       0.5      12.0
 5 C  px              2.7       6.4       0.1       0.2       0.0       2.9
 5 C  py              8.4       0.0       0.0       3.3       0.2       0.1
 5 C  dxz             0.0       0.1       0.0       0.0       0.0       0.0
 6 C  s               0.1       0.4       0.0       0.0       0.1       0.2
 6 C  pz              3.6       2.7       0.1       0.7       0.2       3.3
 6 C  px              0.0       2.6       4.5       0.2       0.1       0.0
 6 C  py             14.0       4.8       6.1       0.2       1.1       4.1
 6 C  dxz             0.0       0.2       0.0       0.0       0.0       0.0
 7 C  s               0.1       1.7       0.2       0.0       0.2       0.3
 7 C  pz              0.5       5.8       2.2       0.4       0.1       8.0
 7 C  px              0.4       0.5       2.7       0.7       0.2       0.4
 7 C  py              1.7       0.1       3.1       2.1       0.8       1.2
 7 C  dxz             0.0       0.0       0.0       0.0       0.0       0.2
 8 C  s               0.0       0.1       0.1       0.1       0.1       0.1
 8 C  pz              0.8       0.2       8.2       3.5       0.0       5.8
 8 C  px              0.1       3.2       0.3       0.1       1.9       0.3
 8 C  py              0.0       0.3       0.7       3.3       1.0       5.6
 8 C  dxz             0.0       0.0       0.2       0.0       0.0       0.1
 9 C  s               0.0       0.2       0.1       0.0       0.2       0.2
 9 C  pz              0.5       3.3       2.0       3.0       0.0       0.1
 9 C  px              0.0       2.4       0.8       0.6       1.1       1.9
 9 C  py              8.9       2.0       0.1      17.7       2.1       2.2
 9 C  dxz             0.0       0.1       0.1       0.0       0.0       0.0
 9 C  dyz             0.0       0.0       0.0       0.2       0.0       0.1
10 C  s               0.0       0.6       0.3       0.0       0.6       0.3
10 C  pz              0.0       2.1       0.3       0.2       6.8       0.5
10 C  px              0.2       1.0       3.1       1.2       0.5       0.7
10 C  py              0.7       0.1       0.8       0.7       0.2       6.2
11 O  s               0.0       4.6       2.8       0.3       3.6       0.7
11 O  pz              0.0       4.4       9.4       2.4       3.0       1.2
11 O  px              0.1       9.1       2.4       0.1      13.7       5.7
11 O  py              0.3       1.7       0.3       0.1       2.1       3.2
11 O  dz2             0.0       0.0       0.1       0.0       0.2       0.0
11 O  dyz             0.0       0.0       0.0       0.0       0.0       0.1
11 O  dxy             0.0       0.0       0.0       0.0       0.1       0.1
12 H  s               1.3       0.5       0.5       3.8       0.2       0.5
12 H  pz              0.0       0.0       0.0       0.0       0.1       0.0
12 H  px              0.0       0.0       0.0       0.1       0.0       0.0
13 H  s               0.0       0.9       2.2       0.7       5.9       1.1
13 H  py              0.0       0.0       0.0       0.0       0.1       0.0
[...]
 9 C  dx2y2           0.3       1.4       0.0       0.0       0.0       0.0
10 C  s               0.0       0.2       6.7       7.1       0.2       7.5
10 C  pz              0.1       1.1       3.9       0.0       0.0       0.0
10 C  px              0.2       1.4       3.4       0.0       0.0       0.0
10 C  py              0.0       0.1       0.6       0.0       0.0       0.0
10 C  dz2             0.8      11.8       0.2       0.0       0.0       0.0
10 C  dxz             0.1       1.7       4.5       0.0       0.0       0.0
10 C  dyz             0.1       2.5       0.6       0.0       0.0       0.0
10 C  dx2y2           0.4       5.5       0.9       0.0       0.0       0.0
10 C  dxy             0.0       0.4       0.7       0.0       0.0       0.0
11 O  s               0.0       0.7      18.4       0.0       0.0       0.0
11 O  pz              0.1       0.8      10.0       0.0       0.0       0.0
11 O  px              0.1       2.6      10.8       0.0       0.0       0.0
11 O  py              0.0       0.1       1.6       0.0       0.0       0.0
11 O  dz2             0.5       7.9       1.3       0.0       0.0       0.0
11 O  dxz             0.0       0.0      23.6       0.0       0.0       0.0
11 O  dyz             0.1       1.2       3.4       0.0       0.0       0.0
11 O  dx2y2           0.3       5.7       3.9       0.0       0.0       0.0
11 O  dxy             0.0       0.0       3.7       0.0       0.0       0.0
12 H  s               0.4       0.0       0.0       0.0       0.0       0.0
12 H  pz              0.1       0.0       0.0       0.0       0.0       0.0
12 H  px              0.7       0.0       0.0       0.0       0.0       0.0
15 H  s               4.7       0.2       0.0       0.0       0.0       0.0
15 H  pz              1.1       0.1       0.0       0.0       0.0       0.0
15 H  px              1.8       0.1       0.0       0.0       0.0       0.0
15 H  py              6.7       0.3       0.0       0.0       0.0       0.0
16 H  s               4.3       0.2       0.0       0.0       0.0       0.0
16 H  pz              0.6       0.0       0.0       0.0       0.0       0.0
16 H  px              7.6       0.3       0.0       0.0       0.0       0.0
16 H  py              0.4       0.0       0.0       0.0       0.0       0.0
17 H  s               0.3       0.1       0.0       0.0       0.0       0.0
17 H  pz              0.3       0.1       0.0       0.0       0.0       0.0
17 H  px              0.2       0.1       0.0       0.0       0.0       0.0
19 H  pz              0.0       0.2       0.0       0.0       0.0       0.0
20 H  s               0.0       0.5       0.0       0.0       0.0       0.0
20 H  px              0.0       0.2       0.0       0.0       0.0       0.0
20 H  py              0.0       0.7       0.0       0.0       0.0       0.0
21 H  s               0.0       1.7       0.0       0.0       0.0       0.0
21 H  pz              0.0       1.3       0.0       0.0       0.0       0.0
21 H  px              0.1       2.5       0.0       0.0       0.0       0.0
21 H  py              0.0       0.1       0.0       0.0       0.0       0.0
22 H  s               0.4       0.4       0.0       0.0       0.0       0.0
22 H  pz              0.2       0.1       0.0       0.0       0.0       0.0
22 H  px              0.1       0.0       0.0       0.0       0.0       0.0
22 H  py              0.6       0.8       0.0       0.0       0.0       0.0
23 H  pz              0.0       0.1       0.0       0.0       0.0       0.0
23 H  px              0.0       0.1       0.0       0.0       0.0       0.0
24 H  s               0.2       3.3       0.0       0.0       0.0       0.0
24 H  pz              0.4       5.5       0.0       0.0       0.0       0.0
24 H  px              0.1       1.4       0.1       0.0       0.0       0.0
24 H  py              0.1       0.7       0.0       0.0       0.0       0.0

                    276       277       278       279       280       281   
                  21.99643  22.05402  22.11846  22.13181  22.19387  22.23994
                   0.00000   0.00000   0.00000   0.00000   0.00000   0.00000
                  --------  --------  --------  --------  --------  --------
 0 C  s              70.0       8.8       0.1       0.8       0.2       3.3
 1 C  s               7.5       0.0       0.1       0.9       0.9      47.1
 1 C  py              0.0       0.0       0.0       0.0       0.0       0.1
 2 C  s               0.3       0.2       0.4       1.1       0.1      38.6
 3 C  s               1.9       3.4      35.1       8.6      48.1       0.4
 5 C  s               0.0       6.5      20.2      14.8      23.9       0.0
 6 C  s              13.1      64.5       0.2       0.3       7.7       0.6
 7 C  s               0.1       0.9       0.4       1.2       4.3       4.0
 8 C  s               0.3       4.9      14.6       5.7       7.6       3.0
 9 C  s               6.5       8.4       1.5      24.8       6.0       1.1
10 C  s               0.0       2.0      26.7      41.4       0.9       1.2

                    282       283   
                  22.25925  43.62844
                   0.00000   0.00000
                  --------  --------
 0 C  s               1.7       0.0
 1 C  s               3.4       0.0
 2 C  s               2.2       0.0
 3 C  s               1.3       0.0
 5 C  s               7.8       0.0
 6 C  s               0.2       0.0
 7 C  s              36.6       0.0
 8 C  s              29.4       0.0
 9 C  s               4.7       0.0
10 C  s              12.1       0.0
11 O  s               0.0      99.9


                      *****************************
                      * MAYER POPULATION ANALYSIS *
                      *****************************

  NA   - Mulliken gross atomic population
  ZA   - Total nuclear charge
  QA   - Mulliken gross atomic charge
  VA   - Mayer's total valence
  BVA  - Mayer's bonded valence
  FA   - Mayer's free valence

  ATOM       NA         ZA         QA         VA         BVA        FA
  0 C      6.5337     6.0000    -0.5337     3.8617     3.8617     0.0000
  1 C      5.9270     6.0000     0.0730     3.4258     3.4258    -0.0000
  2 C      6.3792     6.0000    -0.3792     3.9735     3.9735    -0.0000
  3 C      5.9871     6.0000     0.0129     3.5244     3.5244    -0.0000
  4 H      0.8244     1.0000     0.1756     0.9614     0.9614    -0.0000
  5 C      6.3497     6.0000    -0.3497     3.5937     3.5937    -0.0000
  6 C      6.3616     6.0000    -0.3616     3.7717     3.7717    -0.0000
  7 C      5.8888     6.0000     0.1112     3.2247     3.2247    -0.0000
  8 C      6.0842     6.0000    -0.0842     3.7451     3.7451    -0.0000
  9 C      6.4136     6.0000    -0.4136     3.6915     3.6915     0.0000
 10 C      5.9776     6.0000     0.0224     3.9491     3.9491    -0.0000
 11 O      8.3517     8.0000    -0.3517     1.9926     1.9926     0.0000
 12 H      0.8458     1.0000     0.1542     0.9656     0.9656     0.0000
 13 H      0.8389     1.0000     0.1611     0.9591     0.9591     0.0000
 14 H      0.8319     1.0000     0.1681     0.9535     0.9535    -0.0000
 15 H      0.8577     1.0000     0.1423     0.9736     0.9736    -0.0000
 16 H      0.8607     1.0000     0.1393     0.9742     0.9742    -0.0000
 17 H      0.8308     1.0000     0.1692     0.9561     0.9561    -0.0000
 18 H      0.8296     1.0000     0.1704     0.9554     0.9554    -0.0000
 19 H      0.8228     1.0000     0.1772     0.9520     0.9520    -0.0000
 20 H      0.8438     1.0000     0.1562     0.9609     0.9609     0.0000
 21 H      0.8127     1.0000     0.1873     0.9523     0.9523     0.0000
 22 H      0.8301     1.0000     0.1699     0.9573     0.9573     0.0000
 23 H      0.8210     1.0000     0.1790     0.9515     0.9515     0.0000
 24 H      0.8957     1.0000     0.1043     0.9664     0.9664    -0.0000

  Mayer bond orders larger than 0.100000
B(  0-C ,  1-C ) :   0.8799 B(  0-C , 12-H ) :   0.9788 B(  0-C , 13-H ) :   0.9807 
B(  0-C , 14-H ) :   0.9634 B(  1-C ,  2-C ) :   1.8738 B(  1-C ,  3-C ) :   0.8724 
B(  2-C , 15-H ) :   0.9899 B(  2-C , 16-H ) :   0.9687 B(  3-C ,  4-H ) :   0.9940 
B(  3-C ,  5-C ) :   0.8492 B(  3-C ,  9-C ) :   0.8935 B(  5-C ,  6-C ) :   0.9046 
B(  5-C , 17-H ) :   0.9744 B(  5-C , 18-H ) :   0.9783 B(  6-C ,  7-C ) :   0.8832 
B(  6-C , 19-H ) :   0.9935 B(  6-C , 20-H ) :   0.9712 B(  7-C ,  8-C ) :   1.7324 
B(  7-C , 10-C ) :   0.8958 B(  7-C , 11-O ) :  -0.1264 B(  7-C , 24-H ) :  -0.1027 
B(  8-C ,  9-C ) :   0.8841 B(  8-C , 11-O ) :   0.1359 B(  8-C , 21-H ) :   0.9520 
B(  9-C , 22-H ) :   0.9599 B(  9-C , 23-H ) :   0.9859 B( 10-C , 11-O ) :   1.9417 
B( 10-C , 24-H ) :   1.0300 

-------
TIMINGS
-------

Total SCF time: 0 days 0 hours 0 min 52 sec 

Total time                  ....      52.506 sec
Sum of individual times     ....      51.794 sec  ( 98.6%)

SCF preparation             ....       0.347 sec  (  0.7%)
Fock matrix formation       ....      49.791 sec  ( 94.8%)
  Startup                   ....       0.146 sec  (  0.3% of F)
  Split-RI-J                ....      12.484 sec  ( 25.1% of F)
  XC integration            ....      36.308 sec  ( 72.9% of F)
    XC Preparation          ....       0.000 sec  (  0.0% of XC)
    Basis function eval.    ....       6.867 sec  ( 18.9% of XC)
    Density eval.           ....      12.055 sec  ( 33.2% of XC)
    XC-Functional eval.     ....       3.916 sec  ( 10.8% of XC)
    XC-Potential eval.      ....      11.911 sec  ( 32.8% of XC)
Diagonalization             ....       0.000 sec  (  0.0%)
Density matrix formation    ....       0.379 sec  (  0.7%)
Total Energy calculation    ....       0.067 sec  (  0.1%)
Population analysis         ....       0.221 sec  (  0.4%)
Orbital Transformation      ....       0.093 sec  (  0.2%)
Orbital Orthonormalization  ....       0.000 sec  (  0.0%)
DIIS solution               ....       0.707 sec  (  1.3%)
  MO trafo                  ....       0.000 sec  (  0.0 % of DIIS)
  Orb grad                  ....       0.000 sec  (  0.0 % of DIIS)
  Energy W gradient         ....       0.000 sec  (  0.0 % of DIIS)
  DIIS error                ....       0.054 sec  (  7.6 % of DIIS)
  DIIS work                 ....       0.561 sec  ( 79.3 % of DIIS)
  Form Q                    ....       0.000 sec  (  0.0 % of DIIS)
  Form QpQm                 ....       0.000 sec  (  0.0 % of DIIS)
  Exp/Cayley                ....       0.000 sec  (  0.0 % of DIIS)
  Orb update                ....       0.000 sec  (  0.0 % of DIIS)
  Wake-sleep                ....       0.044 sec  (  6.2 % of DIIS)
SOSCF solution              ....       0.189 sec  (  0.4%)
  MO trafo                  ....       0.085 sec  ( 45.0 % of SOSCF)
  Orb grad                  ....       0.002 sec  (  1.1 % of SOSCF)
  Rot update                ....       0.039 sec  ( 20.5 % of SOSCF)
  Step                      ....       0.063 sec  ( 33.3 % of SOSCF)
Finished LeanSCF after  52.8 sec

Maximum memory used throughout the entire LEANSCF-calculation: 33.1 MB


-------------------------------------------------------------------------------
                          DFT DISPERSION CORRECTION                            
                                                                               
                                DFTD4 V3.4.0                                   
-------------------------------------------------------------------------------
The R2SCAN3C composite method is recognized
Using three-body term ABC
Active option DFTDOPT                   ...         5   

-------------------------   ----------------
Dispersion correction           -0.008894399
-------------------------   ----------------

------------------   -----------------
gCP correction             0.009543281
------------------   -----------------

-------------------------   --------------------
FINAL SINGLE POINT ENERGY      -464.551781157460
-------------------------   --------------------


------------------------------------------------------------------------------
                              ORCA PROPERTY CALCULATIONS
------------------------------------------------------------------------------

GBWName                                 ... sp_gas.gbw
Number of atoms                         ...     25
Number of basis functions               ...    284
Max core memory                         ...   1024 MB

Electric properties:
Dipole moment                           ... YES
Quadrupole moment                       ...  NO
Static polarizability (Dipole/Dipole)   ...  NO
Static polarizability (Dipole/Quad.)    ...  NO
Static polarizability (Quad./Quad.)     ...  NO
Static polarizability (Velocity)        ...  NO

Atomic electric properties:
Dipole moment                           ...  NO
Quadrupole moment                       ...  NO
Static polarizability                   ...  NO

Choice of electric origin               ... Center of mass
Position of electric origin             ...     0.000037    -0.000004    -0.000003

General magnetic properties:
Magnetizability                         ...  NO

EPR properties:
g-Tensor (aka g-matrix)                 ...  NO
Zero-Field splitting spin-orbit         ...  NO
Zero-field splitting spin-spin          ...  NO
Hyperfine couplings                     ...  NO (   0 nuclei)
Quadrupole couplings                    ...  NO (   0 nuclei)
Contact density                         ...  NO (   0 nuclei)

NMR properties:
Chemical shifts                         ...  NO (   0 nuclei)
Spin-rotation constants                 ...  NO (   0 nuclei)
Spin-spin couplings                     ...  NO (   0 nuclei,    0 pairs)

Choice of magnetic origin               ... GIAO
Position of magnetic origin             ...     0.000000     0.000000     0.000000

Properties with geometric perturbations:
SCF Hessian                             ...  NO
IR spectrum                             ...  NO
VCD spectrum                            ...  NO
X-ray spectroscopy properties:
SCF XES/XAS/RIXS spectra                ...  NO


-------------
DIPOLE MOMENT
-------------

Method             : SCF
Type of density    : Electron Density
Multiplicity       :   1
Irrep              :   0
Energy             :  -464.5524300396476747 Eh
Relativity type    : 
Basis              : AO
                                X                 Y                 Z
Electronic contribution:    -11.253922566       1.948587455       0.526277557
Nuclear contribution   :     12.540609530      -2.291398857      -0.886032629
                        -----------------------------------------
Total Dipole Moment    :      1.286686964      -0.342811402      -0.359755071
                        -----------------------------------------
Magnitude (a.u.)       :      1.379313856
Magnitude (Debye)      :      3.505937200



--------------------
Rotational spectrum 
--------------------
 
Rotational constants in cm-1:             0.097340             0.018192             0.017162 
Rotational constants in MHz :          2918.185858           545.375040           514.494582 

Dipole components along the rotational axes: 
x,y,z [a.u.] :    -1.259101     0.559224     0.066628 
x,y,z [Debye]:    -3.200381     1.421435     0.169356 

 

Dipole moment calculation done in   0.0 sec 

Maximum memory used throughout the entire PROP-calculation: 19.9 MB

--------------------------------
SUGGESTED CITATIONS FOR THIS RUN
--------------------------------

Below you find a list of papers that are relevant to this ORCA run
We neither can nor want to force you to cite these papers, but we appreciate if you do
You receive ORCA, which is the product of decades of hard work by many enthusiastic individuals, for free
The only thing we kindly ask in return is that you cite our papers,
We deeply appreciate it, if you show your appreciation for ORCA by not just citing the generic ORCA reference.

Please note that relegating all ORCA citations to the supporting information does *not* help us.
SI sections are not indexed - citations you put there will not count into any citation statistics
But we need these citations in order to attract the funding resources that allow us to do what we are doing

Therefore, if you are a happy ORCA user, please consider citing a few of the papers listed below in the main body of your paper

In addition to the list printed below, the program has created the file sp_gas.bibtex that contains the list in bibtex format
You can import this file easily into all common literature databanks and citation aid programs


List of essential papers. We consider these as the minimum necessary citations

  1. Neese,F.
     Software update: the ORCA program system, version 5.0
     WIRES Comput. Molec. Sci., 2022 12(1)e1606
     doi.org/10.1002/wcms.1606
  2. Grimme,S.; Hansen,A.; Ehlert,S.; Mewes,J.
     r2SCAN-3c: A 'Swiss army knife' composite electronic-structure method
     J. Chem. Phys., 2021 154 064103
     doi.org/10.1063/5.0040021

List of papers to cite with high priority. The work reported in these papers was absolutely
necessary for this run to complete.
Our perspective: the developers of density functionals and basis sets usually get cited in chemistry papers
Good! But without the algorithms to do something with them, the functionals or basis sets would not do anything.
Hence, in our opinion, the algorithm design and method developments papers are equally worthy of getting cited

  1. Neese,F.
     An improvement of the resolution of the identity approximation for the formation of the Coulomb matrix
     J. Comp. Chem., 2003 24(14)1740-1747
     doi.org/10.1002/jcc.10318
  2. Neese,F.
     The SHARK Integral Generation and Digestion System
     J. Comp. Chem., 2022  1-16
     doi.org/10.1002/jcc.26942
  3. Lehtola,S.; Steigemann,C.; Oliveira,M.; Marques,M.
     Recent developments in Libxc - A comprehensive library of functionals for density functional theory
     Software X, 2018 7 
     doi.org/10.1016/j.softx.2017.11.002
  4. Caldeweyher,E.; Bannwarth,C.; Grimme,S.
     Extension of the D3 dispersion coefficient model
     J. Chem. Phys., 2017 147 034112-XXXX
     doi.org/10.1063/1.4993215
  5. Caldeweyher,E.; Ehlert,S.; Hansen,A.; Neugebauer,H.; Spicher,S.; Bannwarth,C.; Grimme,S.
     A generally applicable atomic-charge dependent London dispersion correction
     J. Chem. Phys., 2019 150 154122-XXXX
     doi.org/10.1063/1.5090222
  6. Caldeweyher,E.; Mewes,J.; Ehlert,S.; Grimme,S.
     Extension and evaluation of the D4 London-dispersion model for periodic systems
     Phys. Chem. Chem. Phys., 2020 22(16)8499-8512
     doi.org/10.1039/D0CP00502A

List of suggested additional citations. These are papers that are important in the 'surrounding' of 
of this run, or papers that preceded the highly important papers. If you like your results we are grateful for a citation.

  1. Neese,F.
     The ORCA program system
     WIRES Comput. Molec. Sci., 2012 2(1)73-78
     doi.org/10.1002/wcms.81
  2. Neese,F.
     Software update: the ORCA program system, version 4.0
     WIRES Comput. Molec. Sci., 2018 8(1)1-6
     doi.org/10.1002/wcms.1327
  3. Neese,F.; Wennmohs,F.; Becker,U.; Riplinger,C.
     The ORCA quantum chemistry program package
     J. Chem. Phys., 2020 152 Art. No. L224108
     doi.org/10.1063/5.0004608

List of optional additional citations

  1. Neese,F.
     Approximate second-order SCF convergence for spin unrestricted wavefunctions
     Chem. Phys. Lett., 2000 325(1-3)93-98
     doi.org/10.1016/s0009-2614(00)00662-x

Timings for individual modules:

Sum of individual times          ...       55.476 sec (=   0.925 min)
Startup calculation              ...        2.018 sec (=   0.034 min)   3.6 %
SCF iterations                   ...       53.313 sec (=   0.889 min)  96.1 %
Property calculations            ...        0.145 sec (=   0.002 min)   0.3 %
                             ****ORCA TERMINATED NORMALLY****
TOTAL RUN TIME: 0 days 0 hours 0 minutes 56 seconds 498 msec
