15
 energy: -16.906971752342 gnorm: 0.019665810904 xtb: 6.7.1 (edcfbbe)
C            2.60564132755697       -0.83753873526904       -0.14213754784990
C            1.99836670777694        0.56378346789586       -0.15193343483890
C            0.56786985512177        0.62258013581318        0.39736413739142
C           -0.41188332324971       -0.18714184370636       -0.44123309779326
S           -2.15762861697482       -0.07269943486686        0.15649066215348
H            2.56414212160155       -1.27402959122949        0.86249639767911
H            3.65500491352175       -0.81137390727509       -0.45275537735798
H            2.07953156084105       -1.51430070116861       -0.82304421977993
H            2.00941177811651        0.96505641920267       -1.17358609927493
H            2.62311391046074        1.23292191570054        0.45172844938218
H            0.23591605169496        1.66768186511617        0.42282037557750
H            0.55287406495923        0.25501096908918        1.43080988566295
H           -0.37977813375392        0.12148512247003       -1.49099771048651
H           -0.18424154079721       -1.25664097604228       -0.40199736284900
H           -2.28023123522515        1.26049661560214        0.01348231478346
15
 energy: -16.907680249331 gnorm: 0.007325204937 xtb: 6.7.1 (edcfbbe)
C            2.60110808715764       -0.83442510334583       -0.13806359339577
C            1.99481409045320        0.56248324082029       -0.15415631505826
C            0.56841089348099        0.61597391490885        0.39780181874327
C           -0.40285271702845       -0.19037758185818       -0.44766446547291
S           -2.13028919983430       -0.06464476981069        0.16343576007083
H            2.55732651089569       -1.26172926872116        0.86372909679609
H            3.64494912107276       -0.79601095494882       -0.44639802047138
H            2.07633078352592       -1.50248970488034       -0.81932548114773
H            2.00225130738914        0.95201616023017       -1.17661184928515
H            2.61674797970821        1.22558466986965        0.45316888152010
H            0.24035302541984        1.65929981509137        0.42138769625849
H            0.55355434779678        0.24134766082982        1.42525118004231
H           -0.39749824929317        0.13075456665707       -1.49088897672303
H           -0.18946150012481       -1.25872914740796       -0.40106934106066
H           -2.25763503896877        1.25623782389780        0.00691098158350
15
 energy: -16.907759351588 gnorm: 0.002017091769 xtb: 6.7.1 (edcfbbe)
C            2.60285482996236       -0.83420219186461       -0.13544006423094
C            1.99546212690680        0.56266759118554       -0.15552352598021
C            0.56886221636905        0.61268413289273        0.39499248469855
C           -0.40651036138042       -0.18889801291091       -0.44890583251819
S           -2.12670888927370       -0.06153924827865        0.16870224484783
H            2.55621952703563       -1.25611588477240        0.86575343342302
H            3.64504140645941       -0.79253750663738       -0.44137097947008
H            2.07896523659355       -1.50024459604624       -0.81569701356393
H            1.99901317369921        0.94593054674278       -1.17829908336495
H            2.61509698186544        1.22685026430764        0.45033405027360
H            0.24124552335818        1.65472562472596        0.42249129853927
H            0.55424735572397        0.23174258700104        1.41838552483041
H           -0.40474297340081        0.13729512221043       -1.48850788469920
H           -0.19325078401132       -1.25539800367703       -0.40447814593730
H           -2.24768592825669        1.25233089645315        0.00507086555183
15
 energy: -16.907772281374 gnorm: 0.000813669857 xtb: 6.7.1 (edcfbbe)
C            2.60486933971361       -0.83449612594496       -0.13350022198955
C            1.99476559845913        0.56223518104576       -0.15763374231628
C            0.56874020706757        0.61119414615577        0.39492959671106
C           -0.40834820978250       -0.18803735083470       -0.45062085830539
S           -2.12551112352040       -0.05871322920206        0.17232756265899
H            2.55707823152553       -1.25354798036354        0.86871707767590
H            3.64731736844782       -0.79197578735032       -0.43808048543736
H            2.08220290449692       -1.50222720062330       -0.81282310422509
H            1.99688427053934        0.94242555718515       -1.18129336591481
H            2.61310943733587        1.22909258134159        0.44604809391432
H            0.24134229370027        1.65316708043738        0.42623225345841
H            0.55529746774908        0.22668302397400        1.41695342258879
H           -0.40743799310243        0.14142257142215       -1.48902841286848
H           -0.19371606728690       -1.25440233550613       -0.41070646787744
H           -2.24848428369222        1.25247118959527        0.00598602432665
15
 energy: -16.907784036700 gnorm: 0.001806968514 xtb: 6.7.1 (edcfbbe)
C            2.60939147380661       -0.83476692273681       -0.12890084775651
C            1.99402801584084        0.56092502450327       -0.16211900535278
C            0.56962536877311        0.60806239138143        0.39523971896729
C           -0.41325968702292       -0.18361088594302       -0.45353048863048
S           -2.12620955739752       -0.05686964202433        0.17869837036817
H            2.56053195628820       -1.24770982444180        0.87617448004676
H            3.65261592484470       -0.79076384916183       -0.43148179498595
H            2.08971426390821       -1.50819425051332       -0.80541594299483
H            1.99222105331576        0.93356864884941       -1.18859414079473
H            2.61155603929929        1.23447415797484        0.43490855396202
H            0.24321362689248        1.65020655210782        0.43607414016704
H            0.55886868660422        0.21547401594505        1.41448651363771
H           -0.41463570664641        0.15371874076894       -1.48972646792849
H           -0.19746760799752       -1.25052949064597       -0.42469248370300
H           -2.25208440885838        1.25130665526840        0.00638676739749
15
 energy: -16.907791908362 gnorm: 0.001176055638 xtb: 6.7.1 (edcfbbe)
C            2.61149612162933       -0.83452611169558       -0.12600146520636
C            1.99356841894168        0.55941678941728       -0.16429859862363
C            0.57035342951418        0.60641608257763        0.39533855303720
C           -0.41432834081171       -0.18083191529109       -0.45518971383399
S           -2.12655329455022       -0.05722616086551        0.18019535969901
H            2.56380101571206       -1.24407318744030        0.88064610404259
H            3.65471657643102       -0.78998794467309       -0.42889503471226
H            2.09322816956562       -1.51212403048207       -0.79967857547182
H            1.98897461883536        0.92735710960991       -1.19264242916499
H            2.61167699061091        1.23697089498205        0.42795676134348
H            0.24466298197817        1.64863210759227        0.44121525396841
H            0.56069541837695        0.20954123253570        1.41298230266962
H           -0.41803822346931        0.16234997035870       -1.48963813510518
H           -0.19857249178863       -1.24812290826888       -0.43278760400847
H           -2.25757194932475        1.25149939297506        0.00830459376610
15
 energy: -16.907798310343 gnorm: 0.000449849521 xtb: 6.7.1 (edcfbbe)
C            2.61339726843883       -0.83426206600040       -0.12200591171027
C            1.99291062028223        0.55747231316172       -0.16687135979224
C            0.57084334451260        0.60460959498349        0.39502822000087
C           -0.41509066074752       -0.17661734118039       -0.45833418400839
S           -2.12680960090289       -0.06008638946473        0.18108582818317
H            2.56838812637935       -1.23894095338686        0.88666882664761
H            3.65600775823125       -0.78923188690789       -0.42669265862662
H            2.09596174408672       -1.51693838078898       -0.79112845044354
H            1.98523349985426        0.91972811715635       -1.19726676856893
H            2.61128570637917        1.23963339062768        0.41992183221702
H            0.24689530788944        1.64698004649021        0.44594635090768
H            0.56176743833245        0.20325560925613        1.41083842155519
H           -0.42185483364669        0.17338855589837       -1.49029498573556
H           -0.20018637403457       -1.24399506794656       -0.44283977051975
H           -2.26063990340395        1.25029577943392        0.01345198229347
15
 energy: -16.907801701922 gnorm: 0.000479182175 xtb: 6.7.1 (edcfbbe)
C            2.61503445629028       -0.83429220192654       -0.11863286695740
C            1.99263748392983        0.55622921959785       -0.16870249131775
C            0.57079942290473        0.60334291801161        0.39406523604103
C           -0.41568162625603       -0.17434600446200       -0.46130222231698
S           -2.12718597096939       -0.06158153478094        0.18047113617974
H            2.57306527453791       -1.23391587162945        0.89216809276870
H            3.65681116141012       -0.78938386455732       -0.42608402926259
H            2.09689748431932       -1.52113866506723       -0.78292064552461
H            1.98298366814722        0.91397912800881       -1.20061995960055
H            2.61076134687579        1.24179855316580        0.41434531209793
H            0.24796679647768        1.64585362531314        0.44849803480053
H            0.56193045324162        0.19874085559943        1.40850928381847
H           -0.42490343207665        0.18173966662122       -1.49102334648496
H           -0.19984920233463       -1.24159770923723       -0.45217809274556
H           -2.26315787484712        1.24986320667493        0.02091393090373
15
 energy: -16.907804665109 gnorm: 0.000411260205 xtb: 6.7.1 (edcfbbe)
C            2.61612893140679       -0.83449063081607       -0.11602163203302
C            1.99238852424166        0.55540167886986       -0.16981238809310
C            0.57044008113229        0.60283023938456        0.39315580365544
C           -0.41629407309496       -0.17234366550859       -0.46419093335379
S           -2.12738930091500       -0.06359752479427        0.17996763919634
H            2.57805286935475       -1.22969141104376        0.89668131332968
H            3.65677720371429       -0.79021129529975       -0.42747547560127
H            2.09601260751549       -1.52456368723552       -0.77539302573067
H            1.98218687171962        0.91036583906196       -1.20263110376451
H            2.61006988439033        1.24289290231934        0.41127635179522
H            0.24840322534740        1.64548857058915        0.44948562529381
H            0.56126281885325        0.19626665557099        1.40682251879346
H           -0.42694036116748        0.18774846778369       -1.49248245355746
H           -0.19953959309657       -1.23941229494753       -0.45951678351576
H           -2.26345024775121        1.24860747739802        0.02764191598535
15
 energy: -16.907808193830 gnorm: 0.000242024531 xtb: 6.7.1 (edcfbbe)
C            2.61681937905944       -0.83478812911247       -0.11294265822748
C            1.99246844566318        0.55483921252848       -0.17049793653731
C            0.57000644291059        0.60244641437588        0.39141269872854
C           -0.41700997074440       -0.17034609556718       -0.46795876612319
S           -2.12730122119004       -0.06650577962558        0.17886615210269
H            2.58516228987765       -1.22433927928254        0.90215045361672
H            3.65548272936842       -0.79168232924040       -0.43114215939270
H            2.09288931157475       -1.52858869549443       -0.76532719445746
H            1.98269207388395        0.90732183262594       -1.20410628304065
H            2.60936182163701        1.24385338628244        0.40950136791835
H            0.24887527653284        1.64528902368986        0.44894179048109
H            0.55961968293071        0.19435690403844        1.40442538896865
H           -0.42919715671924        0.19396016120714       -1.49474063324514
H           -0.19893556397113       -1.23710994003185       -0.46812669318474
H           -2.26282409916303        1.24658463493836        0.03705184479237
15
 energy: -16.907810383835 gnorm: 0.000161279686 xtb: 6.7.1 (edcfbbe)
C            2.61775853033753       -0.83506630193358       -0.10988195281903
C            1.99228459115445        0.55395105316434       -0.17109812762404
C            0.56932035303533        0.60243760785794        0.38943642083705
C           -0.41764005917837       -0.16828637217481       -0.47201654081514
S           -2.12673280827088       -0.06958507808058        0.17819378296935
H            2.59247641282063       -1.21898744573016        0.90752361078257
H            3.65441041473048       -0.79364686415431       -0.43491412243023
H            2.08976733047204       -1.53250244486386       -0.75505208730327
H            1.98355583339486        0.90439165996075       -1.20543000604700
H            2.60837363647462        1.24433979507123        0.40813823457004
H            0.24881620044221        1.64546509949503        0.44797199692732
H            0.55760575097235        0.19289675842308        1.40188058065871
H           -0.43152793213509        0.20012446464232       -1.49738841805300
H           -0.19813943471994       -1.23478346883535       -0.47691203051740
H           -2.26221937787953        1.24454285849005        0.04705603126381
15
 energy: -16.907811094766 gnorm: 0.000112620658 xtb: 6.7.1 (edcfbbe)
C            2.61802422196346       -0.83518301742995       -0.10799089959629
C            1.99245075357406        0.55366390188217       -0.17164871106455
C            0.56928059168927        0.60205509052035        0.38826941412116
C           -0.41814702975556       -0.16709110527176       -0.47417508477836
S           -2.12657357214890       -0.07134375528112        0.17787480151944
H            2.59581356228126       -1.21607921565100        0.91059481730301
H            3.65368129079322       -0.79438780305895       -0.43605772862313
H            2.08853019569832       -1.53476006198268       -0.74956615742576
H            1.98403612859705        0.90265164846976       -1.20652397817076
H            2.60813137430970        1.24508299124158        0.40688854074332
H            0.24931345672469        1.64519567640645        0.44751500318377
H            0.55683698687899        0.19170532521669        1.40039391550653
H           -0.43324909093661        0.20387598513626       -1.49863837548037
H           -0.19782212646017       -1.23342097027263       -0.48211782130384
H           -2.26219730155808        1.24332663140693        0.05268963646555
15
 energy: -16.907811396793 gnorm: 0.000082691743 xtb: 6.7.1 (edcfbbe)
C            2.61830084980168       -0.83525839803159       -0.10719343770047
C            1.99242503303115        0.55336431395804       -0.17196417418639
C            0.56920439933653        0.60209067666792        0.38770881378582
C           -0.41834969889607       -0.16648478260397       -0.47507393828856
S           -2.12638297974937       -0.07216457331055        0.17802249851085
H            2.59655326915141       -1.21500327595350        0.91178477051690
H            3.65379336821643       -0.79473187085237       -0.43575339438290
H            2.08859109745534       -1.53556347983037       -0.74771600560663
H            1.98407221102642        0.90156570894891       -1.20709630801272
H            2.60797716241973        1.24531280838828        0.40607656297885
H            0.24945851736579        1.64528007522341        0.44741609461451
H            0.55656578710547        0.19125458192991        1.39961904087651
H           -0.43412335728330        0.20568426900615       -1.49907456301306
H           -0.19769309925225       -1.23272082174103       -0.48440811130248
H           -2.26228311807830        1.24266608953286        0.05515952360951
15
 energy: -16.907811644086 gnorm: 0.000065663192 xtb: 6.7.1 (edcfbbe)
C            2.61840592637291       -0.83533022487703       -0.10669319148520
C            1.99239906150024        0.55317693978275       -0.17232361312169
C            0.56920608527226        0.60215192123840        0.38739978589703
C           -0.41839722981070       -0.16607286384135       -0.47558814197505
S           -2.12619167283125       -0.07274276940813        0.17833573854181
H            2.59608702074474       -1.21470285165800        0.91241179105865
H            3.65410022288448       -0.79487589288214       -0.43465641578597
H            2.08911756066646       -1.53591395110423       -0.74724841819421
H            1.98402779734133        0.90080350117070       -1.20765021277915
H            2.60792696052953        1.24549123324618        0.40529516464633
H            0.24960737972369        1.64536920942976        0.44730965340889
H            0.55650799986282        0.19111051727217        1.39922932440385
H           -0.43470725979004        0.20686675501282       -1.49929319621667
H           -0.19742475288621       -1.23222384833546       -0.48579433309112
H           -2.26255565792958        1.24218364628566        0.05677343709221
15
 energy: -16.907811920634 gnorm: 0.000049523558 xtb: 6.7.1 (edcfbbe)
C            2.61839488689168       -0.83544885864855       -0.10622877139466
C            1.99248025821637        0.55305764208206       -0.17268247981339
C            0.56925425883653        0.60238647899849        0.38697092380697
C           -0.41843122340739       -0.16567700083633       -0.47602562268399
S           -2.12602456157562       -0.07358004720814        0.17874214298085
H            2.59468908425611       -1.21478971326214        0.91287376161913
H            3.65455225825280       -0.79503453169908       -0.43277696542579
H            2.08997110741410       -1.53608676714166       -0.74747116180481
H            1.98409976539800        0.90004185429999       -1.20821528269411
H            2.60803222975007        1.24569998679736        0.40450690085145
H            0.24985460878844        1.64566368136350        0.44691674953000
H            0.55650771848933        0.19131642593556        1.39878555966311
H           -0.43544479596713        0.20800099710041       -1.49944211198052
H           -0.19700267588884       -1.23172366061000       -0.48709656982597
H           -2.26282347780378        1.24146483416064        0.05865029957146
15
 energy: -16.907812177364 gnorm: 0.000046452512 xtb: 6.7.1 (edcfbbe)
C            2.61823921924819       -0.83561424588981       -0.10573616226052
C            1.99259762138493        0.55297769236417       -0.17306073540371
C            0.56929492071309        0.60275704836069        0.38640129464948
C           -0.41837949492524       -0.16530975675312       -0.47655829420870
S           -2.12567715355956       -0.07461888680502        0.17927023813125
H            2.59277469987692       -1.21514716304810        0.91326166610181
H            3.65495232869867       -0.79526820882445       -0.43052479317960
H            2.09083179597799       -1.53609042820270       -0.74799626583611
H            1.98446656876860        0.89944044333676       -1.20876057236212
H            2.60814177812454        1.24578322365763        0.40391188152310
H            0.25008635175215        1.64610163101334        0.44602796743285
H            0.55632925859556        0.19193110064684        1.39831449421077
H           -0.43620898864631        0.20900540015525       -1.49971982907568
H           -0.19630511681467       -1.23120282642265       -0.48839672059768
H           -2.26303434754417        1.24054629774329        0.06107320327459
15
 energy: -16.907812354516 gnorm: 0.000048733333 xtb: 6.7.1 (edcfbbe)
C            2.61803527162506       -0.83579598958383       -0.10536084427502
C            1.99274343864844        0.55293748834121       -0.17325955420160
C            0.56929450135239        0.60319992653594        0.38580064981887
C           -0.41832460207274       -0.16503278581234       -0.47706896975846
S           -2.12535840815066       -0.07568978027104        0.17966582165506
H            2.59114930205257       -1.21546006066883        0.91357218679164
H            3.65520088389958       -0.79559220221304       -0.42875601609913
H            2.09135890948877       -1.53612670436410       -0.74842225183202
H            1.98498190636731        0.89908799088721       -1.20906455684049
H            2.60825989962691        1.24580046189693        0.40368497417580
H            0.25025964669732        1.64662924545226        0.44496885464677
H            0.55606038619908        0.19275140347805        1.39786934524879
H           -0.43687266328684        0.20974766285075       -1.50005176703214
H           -0.19563111116039       -1.23079521031211       -0.48950655818517
H           -2.26304791963612        1.23962987511505        0.06343605828683
15
 energy: -16.907812463806 gnorm: 0.000033201867 xtb: 6.7.1 (edcfbbe)
C            2.61786769769518       -0.83592177837287       -0.10504051852655
C            1.99286214003247        0.55292686051255       -0.17338753100012
C            0.56927491504084        0.60354205871289        0.38528848109786
C           -0.41829186526225       -0.16485377504574       -0.47749414188758
S           -2.12509829833159       -0.07651471332874        0.17990682895146
H            2.59015013550706       -1.21565826367445        0.91383930009595
H            3.65526983523503       -0.79588921073563       -0.42766938401909
H            2.09155918359762       -1.53610977589079       -0.74854240577351
H            1.98550339966058        0.89894255451803       -1.20924322865275
H            2.60834062441709        1.24572123411639        0.40367463625558
H            0.25034442636787        1.64703074495139        0.44402109416146
H            0.55574223956857        0.19342280101403        1.39749220320149
H           -0.43735969911548        0.21024033060673       -1.50035558214512
H           -0.19510142447443       -1.23050868970693       -0.49034717268266
H           -2.26295386828788        1.23892094365524        0.06536479332332
15
 energy: -16.907812531650 gnorm: 0.000024664496 xtb: 6.7.1 (edcfbbe)
C            2.61774792132308       -0.83601958051099       -0.10482345584895
C            1.99293667724878        0.55290880835395       -0.17341815603618
C            0.56923824587834        0.60376148627941        0.38492741508636
C           -0.41826440827872       -0.16471861280488       -0.47787171410771
S           -2.12489316304647       -0.07709143951752        0.18002557119735
H            2.58972878527098       -1.21562133467249        0.91410168824243
H            3.65523951472073       -0.79611870560594       -0.42717685027060
H            2.09153695321016       -1.53624393947547       -0.74838417074817
H            1.98587533772470        0.89882337836671       -1.20931083190724
H            2.60834365142877        1.24570965688148        0.40373124123665
H            0.25039043617135        1.64729534941660        0.44336571247970
H            0.55548408087448        0.19386441486002        1.39722150513830
H           -0.43767431204807        0.21060387905762       -1.50064899445270
H           -0.19475349388315       -1.23030432519324       -0.49103237832876
H           -2.26282678494427        1.23844228589685        0.06680079071927
