16
 energy: -19.866416120151 gnorm: 0.029495895821 xtb: 6.7.1 (edcfbbe)
C           -2.74747278780508       -0.33623056062739        0.00702658151825
C           -1.33534735921984       -0.02201809055640        0.48800659642563
C           -0.30785733284030       -0.15139970843358       -0.65468246032093
C            1.06897496117384        0.16923002901954       -0.13811921750236
O            1.48732892612527        1.32494172960142       -0.12626941057900
C            1.88333866880059       -0.97076066039656        0.39044087296913
H           -3.46778192538812       -0.24315517494499        0.82587259975195
H           -2.81012172317529       -1.35718784531850       -0.38420074333724
H           -3.05145130198009        0.34984791702870       -0.79063587426082
H           -1.05912775114873       -0.70078357543972        1.30339870546072
H           -1.29272644081964        0.99722144586107        0.88897043367444
H           -0.33466563413925       -1.17261639822742       -1.04989609952858
H           -0.56192982638220        0.55252143848036       -1.45374561463030
H            1.26943094132443       -1.61549367886647        1.02815385342665
H            2.76206089808999       -0.61649001189551        0.93128359206285
H            2.20073748778805       -1.58764867330411       -0.45994206849431
16
 energy: -19.867044922152 gnorm: 0.009958322504 xtb: 6.7.1 (edcfbbe)
C           -2.74106893445246       -0.33656907861636        0.00419485132028
C           -1.33277030663039       -0.02309250107170        0.48741466887222
C           -0.30723256958050       -0.15804542887361       -0.65088460889113
C            1.06558204554943        0.17527965559680       -0.13050952888047
O            1.48441380924838        1.32154408091663       -0.12288821385397
C            1.87278361444821       -0.97320969312887        0.38554298380973
H           -3.45183231157750       -0.23971262397877        0.82319500062464
H           -2.79887299622378       -1.35350584001193       -0.38160983697600
H           -3.03821146503029        0.34835056256175       -0.78879621858495
H           -1.06356498374982       -0.70356651117765        1.29909668252613
H           -1.29241701515486        0.99592798903277        0.88155258062596
H           -0.33286818527107       -1.17596574169174       -1.04342830877734
H           -0.56581125807869        0.54711687823907       -1.44324531854889
H            1.26327658168281       -1.60734052692436        1.02757590500033
H            2.74815851348469       -0.61720491238229        0.92122228397033
H            2.19382526173947       -1.58002812650934       -0.46277117560079
16
 energy: -19.867112203556 gnorm: 0.001941734262 xtb: 6.7.1 (edcfbbe)
C           -2.73881442479630       -0.33704376483763        0.00420731168863
C           -1.32962635989628       -0.02496366158329        0.48827242668950
C           -0.30695683104281       -0.15972884185332       -0.65127077405919
C            1.06766441079740        0.17951381723498       -0.13530445407941
O            1.48290766616416        1.32295131789580       -0.12028568267460
C            1.86740279284800       -0.97446256798143        0.38417011981075
H           -3.44672395281508       -0.23843760378597        0.82266172765035
H           -2.79430065526687       -1.35226069605278       -0.37984648363104
H           -3.03190516082449        0.34724241038702       -0.78775886066680
H           -1.06334852762918       -0.70547785504457        1.29908096302619
H           -1.28897762039245        0.99377757467553        0.87953898685215
H           -0.32946576311124       -1.17639796806985       -1.04101871153162
H           -0.57112862280316        0.54438202057435       -1.44156550747374
H            1.25422721011339       -1.60217964656943        1.02445193838862
H            2.74106028062688       -0.62029377924048        0.92286301038547
H            2.19137535843166       -1.57664257376852       -0.46253426373917
16
 energy: -19.867118399463 gnorm: 0.001410420611 xtb: 6.7.1 (edcfbbe)
C           -2.73856680339695       -0.33732339759271        0.00412228721601
C           -1.32826859908960       -0.02494254985753        0.48844779959100
C           -0.30690529333919       -0.15997048750886       -0.65223905422435
C            1.06622951437812        0.18304703158899       -0.13141618957564
O            1.48269868851742        1.32570106318079       -0.11968316147617
C            1.86628945720677       -0.97480607891430        0.38369350740103
H           -3.44618748385022       -0.23813921581949        0.82275771251746
H           -2.79331727805281       -1.35279913988053       -0.37946665961624
H           -3.03047859837094        0.34701888349718       -0.78825433291387
H           -1.06236683010017       -0.70583701342895        1.29889897785852
H           -1.28709004632525        0.99351545433458        0.88012507994219
H           -0.32539349992726       -1.17756939752283       -1.03901871762191
H           -0.57297736957856        0.54162020667400       -1.44431477235968
H            1.25059248884738       -1.59969647858247        1.02369680264932
H            2.74184915324413       -0.62392899574834        0.92286837768891
H            2.18728230024075       -1.57591170243910       -0.46455591044051
16
 energy: -19.867121124045 gnorm: 0.000340231620 xtb: 6.7.1 (edcfbbe)
C           -2.73873751220608       -0.33717820055243        0.00462521745150
C           -1.32796825732706       -0.02522716135279        0.48818401490475
C           -0.30655958953003       -0.15977332450994       -0.65266356058555
C            1.06739909028868        0.18310048889941       -0.13399062382960
O            1.48268934670306        1.32650136809863       -0.11922892716078
C            1.86627111355283       -0.97441204753349        0.38402253123522
H           -3.44651636744185       -0.23797168265873        0.82347048573464
H           -2.79393849182375       -1.35289802720004       -0.37909079577394
H           -3.03101742871515        0.34727306886804       -0.78791256726122
H           -1.06163314863784       -0.70670464453761        1.29821834235441
H           -1.28664361656051        0.99305928092340        0.88075297639778
H           -0.32454150088616       -1.17755323191379       -1.03954962613452
H           -0.57335798269640        0.54136568694509       -1.44490353738640
H            1.24889507608964       -1.59921732064260        1.02311684076386
H            2.74133655918543       -0.62433118130090        0.92462806295006
H            2.18771251040883       -1.57605488955183       -0.46401708702412
16
 energy: -19.867121343317 gnorm: 0.000060516654 xtb: 6.7.1 (edcfbbe)
C           -2.73855796681047       -0.33700022893349        0.00455378872162
C           -1.32792066009488       -0.02552497864724        0.48806775246633
C           -0.30649751573812       -0.15987556825596       -0.65266598167590
C            1.06715623370942        0.18308943231921       -0.13371519701058
O            1.48233266663764        1.32643597325547       -0.11901507950900
C            1.86619090967860       -0.97414109199804        0.38399071564342
H           -3.44607964982453       -0.23758711384315        0.82350616543268
H           -2.79428832205172       -1.35264934482211       -0.37908604708274
H           -3.03101632559279        0.34743008566467       -0.78784954603805
H           -1.06167652348849       -0.70722583687098        1.29796559132207
H           -1.28638316315108        0.99267858837742        0.88079725700133
H           -0.32450592038419       -1.17769375402185       -1.03950400994782
H           -0.57311901406027        0.54114480087319       -1.44501140708984
H            1.24907508542504       -1.59902052151695        1.02324793732859
H            2.74118174689301       -0.62405119624217        0.92428719029749
H            2.18749821925644       -1.57603106335759       -0.46390738322351
16
 energy: -19.867121388690 gnorm: 0.000042676556 xtb: 6.7.1 (edcfbbe)
C           -2.73857018651702       -0.33685001534290        0.00457040710056
C           -1.32785062225797       -0.02573215904789        0.48796889811237
C           -0.30644948426782       -0.16008152906943       -0.65278326482754
C            1.06705688454173        0.18316646150254       -0.13363017447836
O            1.48200994509944        1.32659867049668       -0.11879070017861
C            1.86619217189534       -0.97400176218221        0.38399936780462
H           -3.44600897743850       -0.23724269052210        0.82357834471427
H           -2.79460657343083       -1.35246675354661       -0.37910830808192
H           -3.03084460058234        0.34769295112524       -0.78779449829310
H           -1.06169100297021       -0.70770227503354        1.29765539597785
H           -1.28605685782578        0.99234679699709        0.88100954210479
H           -0.32430649007542       -1.17791488237025       -1.03959610525419
H           -0.57320226303016        0.54087056307869       -1.44514198056875
H            1.24912986921512       -1.59878075256419        1.02341835179503
H            2.74125562284318       -0.62387461514619        0.92415059568532
H            2.18733236520486       -1.57604982639452       -0.46384412497626
