
                                 *****************
                                 * O   R   C   A *
                                 *****************

                                            #,                                       
                                            ###                                      
                                            ####                                     
                                            #####                                    
                                            ######                                   
                                           ########,                                 
                                     ,,################,,,,,                         
                               ,,#################################,,                 
                          ,,##########################################,,             
                       ,#########################################, ''#####,          
                    ,#############################################,,   '####,        
                  ,##################################################,,,,####,       
                ,###########''''           ''''###############################       
              ,#####''   ,,,,##########,,,,          '''####'''          '####       
            ,##' ,,,,###########################,,,                        '##       
           ' ,,###''''                  '''############,,,                           
         ,,##''                                '''############,,,,        ,,,,,,###''
      ,#''                                            '''#######################'''  
     '                                                          ''''####''''         
             ,#######,   #######,   ,#######,      ##                                
            ,#'     '#,  ##    ##  ,#'     '#,    #''#        ,####,   ,####,        
            ##       ##  ##   ,#'  ##            #'  '#       #'       #'  '#        
            ##       ##  #######   ##           ,######,      #####,   #    #        
            '#,     ,#'  ##    ##  '#,     ,#' ,#      #,     #,   #   #,  ,#        
             '#######'   ##     ##  '#######'  #'      '#     '####' # '####'        



                #########################################################
                #                        -***-                          #
                #          Department of theory and spectroscopy        #
                #                                                       #
                #                      Frank Neese                      #
                #                                                       #
                #     Directorship, Architecture, Infrastructure        #
                #                    SHARK, DRIVERS                     #
                #        Core code/Algorithms in most modules           #
                #                                                       #
                #        Max Planck Institute fuer Kohlenforschung      #
                #                Kaiser Wilhelm Platz 1                 #
                #                 D-45470 Muelheim/Ruhr                 #
                #                      Germany                          #
                #                                                       #
                #                  All rights reserved                  #
                #                        -***-                          #
                #########################################################


                         Program Version 6.0.0  -   RELEASE  -


 With contributions from (in alphabetic order):
   Daniel Aravena         : Magnetic Suceptibility
   Michael Atanasov       : Ab Initio Ligand Field Theory (pilot matlab implementation)
   Alexander A. Auer      : GIAO ZORA, VPT2 properties, NMR spectrum
   Ute Becker             : All parallelization in ORCA, NUMFREQ, NUMCALC
   Giovanni Bistoni       : ED, misc. LED, open-shell LED, HFLD
   Martin Brehm           : Molecular dynamics
   Dmytro Bykov           : pre 5.0 version of the SCF Hessian
   Marcos Casanova-Páez   : Triplet and SCS-CIS(D). UHF-(DLPNO)-IP/EA/STEOM-CCSD. UHF-CVS-IP/STEOM-CCSD
   Vijay G. Chilkuri      : MRCI spin determinant printing, contributions to CSF-ICE
   Pauline Colinet        : FMM embedding
   Dipayan Datta          : RHF DLPNO-CCSD density
   Achintya Kumar Dutta   : EOM-CC, STEOM-CC
   Nicolas Foglia         : Exact transition moments, OPA infrastructure, MCD improvements
   Dmitry Ganyushin       : Spin-Orbit,Spin-Spin,Magnetic field MRCI
   Miquel Garcia          : C-PCM and meta-GGA Hessian, CCSD/C-PCM, Gaussian charge scheme
   Tiago L. C. Gouveia    : GS-ROHF, GS-ROCIS
   Yang Guo               : DLPNO-NEVPT2, F12-NEVPT2, CIM, IAO-localization
   Andreas Hansen         : Spin unrestricted coupled pair/coupled cluster methods
   Ingolf Harden          : AUTO-CI MPn and infrastructure 
   Benjamin Helmich-Paris : MC-RPA, TRAH-(SCF,CASSCF), AVAS, COSX integrals, SCF dyn. polar.
   Lee Huntington         : MR-EOM, pCC
   Robert Izsak           : Overlap fitted RIJCOSX, COSX-SCS-MP3, EOM
   Riya Kayal             : Wick's Theorem for AUTO-CI, AUTO-CI UHF-CCSDT
   Emily Kempfer          : AUTO-CI, RHF CISDT and CCSDT
   Christian Kollmar      : KDIIS, OOCD, Brueckner-CCSD(T), CCSD density, CASPT2, CASPT2-K, improved NEVPT2
   Axel Koslowski         : Symmetry handling
   Simone Kossmann        : Meta GGA functionals, TD-DFT gradient, OOMP2, (MP2 Hessian; deprecated post 5.0)
   Lucas Lang             : DCDCAS
   Marvin Lechner         : AUTO-CI (C++ implementation), FIC-MRCC
   Spencer Leger          : CASSCF response
   Dagmar Lenk            : GEPOL surface, SMD, ORCA-2-JSON
   Dimitrios Liakos       : Extrapolation schemes; Compound Job, initial MDCI parallelization
   Dimitrios Manganas     : Further ROCIS development; embedding schemes. LFT, Crystal Embedding
   Dimitrios Pantazis     : SARC Basis sets
   Anastasios Papadopoulos: AUTO-CI, single reference methods and gradients
   Taras Petrenko         : pre 6.0 DFT Hessian and TD-DFT gradient, (ASA, deprecated), ECA, 1-Electron XAS/XES, NRVS
   Peter Pinski           : DLPNO-MP2, DLPNO-MP2 Gradient
   Christoph Reimann      : Effective Core Potentials
   Marius Retegan         : Local ZFS, SOC
   Christoph Riplinger    : Optimizer, TS searches, QM/MM, DLPNO-CCSD(T), (RO)-DLPNO pert. Triples
   Michael Roemelt        : Original ROCIS implementation
   Masaaki Saitow         : Open-shell DLPNO-CCSD energy and density
   Barbara Sandhoefer     : DKH picture change effects
   Kantharuban Sivalingam : CASSCF convergence/infrastructure, NEVPT2 and variants, FIC-MRCI
   Bernardo de Souza      : ESD, SOC TD-DFT
   Georgi Stoychev        : AutoAux, RI-MP2 NMR, DLPNO-MP2 response, X2C
   Van Anh Tran           : RI-MP2 g-tensors
   Willem Van den Heuvel  : Paramagnetic NMR
   Zikuan Wang            : NOTCH, Electric field optimization 
   Frank Wennmohs         : Technical directorship and infrastructure
   Hang Xu                : AUTO-CI-Response properties 


 We gratefully acknowledge several colleagues who have allowed us to
 interface, adapt or use parts of their codes:
   Stefan Grimme, W. Hujo, H. Kruse, P. Pracht,  : VdW corrections, initial TS optimization,
                  C. Bannwarth, S. Ehlert,         DFT functionals, gCP, sTDA/sTD-DF
                  L. Wittmann, M. Mueller
   Ed Valeev, F. Pavosevic, A. Kumar             : LibInt (2-el integral package), F12 methods
   Garnet Chan, S. Sharma, J. Yang, R. Olivares  : DMRG
   Ulf Ekstrom                                   : XCFun DFT Library
   Mihaly Kallay                                 : mrcc  (arbitrary order and MRCC methods)
   Frank Weinhold                                : gennbo (NPA and NBO analysis)
   Simon Mueller                                 : openCOSMO-RS
   Christopher J. Cramer and Donald G. Truhlar   : smd solvation model
   Lars Goerigk                                  : TD-DFT with DH, B97 family of functionals
   V. Asgeirsson, H. Jonsson                     : NEB implementation
   FAccTs GmbH                                   : IRC, NEB, NEB-TS, DLPNO-Multilevel, CI-OPT
                                                   MM, QMMM, 2- and 3-layer-ONIOM, Crystal-QMMM,
                                                   LR-CPCM, SF, NACMEs, symmetry and pop. for TD-DFT,
                                                   nearIR, NL-DFT gradient (VV10), updates on ESD,
                                                   ML-optimized integration grids, MBIS, APM,
                                                   GOAT, DOCKER, SOLVATOR, interface openCOSMO-RS
   S Lehtola, MJT Oliveira, MAL Marques          : LibXC Library
   Liviu Ungur et al                             : ANISO software


 Your calculation uses the libint2 library for the computation of 2-el integrals
 For citations please refer to: http://libint.valeyev.net

 Your ORCA version has been built with support for libXC version: 6.2.2
 For citations please refer to: https://libxc.gitlab.io

 This ORCA versions uses:
   CBLAS   interface :  Fast vector & matrix operations
   LAPACKE interface :  Fast linear algebra routines
   SCALAPACK package :  Parallel linear algebra routines
   Shared memory     :  Shared parallel matrices
   BLAS/LAPACK       :  OpenBLAS 0.3.27  USE64BITINT DYNAMIC_ARCH NO_AFFINITY SkylakeX SINGLE_THREADED
        Core in use  :  SkylakeX
   Copyright (c) 2011-2014, The OpenBLAS Project


Your calculation utilizes the geometrical counterpoise correction gCP
Please cite in your paper:
H.Kruse, S. Grimme J.Chem.Phys., 136, (2012), 154101 
   

Your calculation utilizes the atom-pairwise dispersion correction
based on EEQ partial charges (D4)


================================================================================

----- Orbital basis set information -----
Your calculation utilizes the basis: def2-mTZVPP
   Stefan Grimme, Andreas Hansen, Sebastian Ehlert, and Jan-Michael Mewes 
   J. Chem. Phys. 154, 064103 (2021). DOI: 10.1063/5.0040021

----- AuxJ basis set information -----
Your calculation utilizes the auxiliary basis: def2/J
   F. Weigend, Phys. Chem. Chem. Phys. 8, 1057 (2006).

================================================================================
                                        WARNINGS
                       Please study these warnings very carefully!
================================================================================

Using LibXC functional ID 497 : Re-regularized SCAN exchange by Furness et al
[ 1]  J. W. Furness, A. D. Kaplan, J. Ning, J. P. Perdew, and J. Sun.,  J. Phys. Chem. Lett. 11, 8208-8215 (2020)
[ 2]  J. W. Furness, A. D. Kaplan, J. Ning, J. P. Perdew, and J. Sun.,  J. Phys. Chem. Lett. 11, 9248-9248 (2020)
Using LibXC functional ID 498 : Re-regularized SCAN correlation by Furness et al
[ 1]  J. W. Furness, A. D. Kaplan, J. Ning, J. P. Perdew, and J. Sun.,  J. Phys. Chem. Lett. 11, 8208-8215 (2020)
[ 2]  J. W. Furness, A. D. Kaplan, J. Ning, J. P. Perdew, and J. Sun.,  J. Phys. Chem. Lett. 11, 9248-9248 (2020)
Using LibXC functional ID 497 : Re-regularized SCAN exchange by Furness et al
[ 1]  J. W. Furness, A. D. Kaplan, J. Ning, J. P. Perdew, and J. Sun.,  J. Phys. Chem. Lett. 11, 8208-8215 (2020)
[ 2]  J. W. Furness, A. D. Kaplan, J. Ning, J. P. Perdew, and J. Sun.,  J. Phys. Chem. Lett. 11, 9248-9248 (2020)
Using LibXC functional ID 498 : Re-regularized SCAN correlation by Furness et al
[ 1]  J. W. Furness, A. D. Kaplan, J. Ning, J. P. Perdew, and J. Sun.,  J. Phys. Chem. Lett. 11, 8208-8215 (2020)
[ 2]  J. W. Furness, A. D. Kaplan, J. Ning, J. P. Perdew, and J. Sun.,  J. Phys. Chem. Lett. 11, 9248-9248 (2020)

================================================================================
                                       INPUT FILE
================================================================================
NAME = sp_gas.inp
|  1> ! r2scan-3c def2/J RI DEFGRID2 scfconv6 printgap
|  2> %output
|  3>     printlevel normal
|  4> end
|  5> * xyz 0 1
|  6> C -2.1561646512 -0.4321587198 -0.9236079164
|  7> C -2.0730306451 0.5657388402 0.2255288089
|  8> C -0.816868223 0.3705536824 1.0703591449
|  9> O 0.3532635613 0.7391661917 0.3260456643
| 10> C 1.2139131651 -0.2008957594 -0.0462122309
| 11> O 1.094817603 -1.3768912303 0.2298596142
| 12> C 2.3444579091 0.383587006 -0.8405249751
| 13> H -3.0687347253 -0.2785539915 -1.4925363373
| 14> H -1.308741159 -0.3158013211 -1.5964549931
| 15> H -2.1482026223 -1.4519734303 -0.544752225
| 16> H -2.9356480211 0.4468836634 0.8810389599
| 17> H -2.0731819499 1.5834032739 -0.1671838278
| 18> H -0.8319675989 1.0272787064 1.9428491665
| 19> H -0.7155367918 -0.6717819816 1.3881142858
| 20> H 3.0904407914 -0.3809258592 -1.0297573698
| 21> H 2.7771349161 1.2158308419 -0.2931280432
| 22> H 1.9562212455 0.7640886687 -1.7819150452
| 23> *
| 24> 
| 25>                          ****END OF INPUT****
================================================================================

                       ****************************
                       * Single Point Calculation *
                       ****************************

---------------------------------
CARTESIAN COORDINATES (ANGSTROEM)
---------------------------------
  C     -2.156165   -0.432159   -0.923608
  C     -2.073031    0.565739    0.225529
  C     -0.816868    0.370554    1.070359
  O      0.353264    0.739166    0.326046
  C      1.213913   -0.200896   -0.046212
  O      1.094818   -1.376891    0.229860
  C      2.344458    0.383587   -0.840525
  H     -3.068735   -0.278554   -1.492536
  H     -1.308741   -0.315801   -1.596455
  H     -2.148203   -1.451973   -0.544752
  H     -2.935648    0.446884    0.881039
  H     -2.073182    1.583403   -0.167184
  H     -0.831968    1.027279    1.942849
  H     -0.715537   -0.671782    1.388114
  H      3.090441   -0.380926   -1.029757
  H      2.777135    1.215831   -0.293128
  H      1.956221    0.764089   -1.781915

----------------------------
CARTESIAN COORDINATES (A.U.)
----------------------------
  NO LB      ZA    FRAG     MASS         X           Y           Z
   0 C     6.0000    0    12.011   -4.074561   -0.816662   -1.745366
   1 C     6.0000    0    12.011   -3.917460    1.069091    0.426188
   2 C     6.0000    0    12.011   -1.543657    0.700245    2.022686
   3 O     8.0000    0    15.999    0.667571    1.396822    0.616137
   4 C     6.0000    0    12.011    2.293963   -0.379638   -0.087328
   5 O     8.0000    0    15.999    2.068905   -2.601947    0.434372
   6 C     6.0000    0    12.011    4.430383    0.724874   -1.588362
   7 H     1.0000    0     1.008   -5.799068   -0.526391   -2.820485
   8 H     1.0000    0     1.008   -2.473162   -0.596778   -3.016863
   9 H     1.0000    0     1.008   -4.059515   -2.743832   -1.029433
  10 H     1.0000    0     1.008   -5.547571    0.844488    1.664922
  11 H     1.0000    0     1.008   -3.917746    2.992199   -0.315932
  12 H     1.0000    0     1.008   -1.572191    1.941275    3.671453
  13 H     1.0000    0     1.008   -1.352169   -1.269484    2.623156
  14 H     1.0000    0     1.008    5.840087   -0.719846   -1.945959
  15 H     1.0000    0     1.008    5.248024    2.297587   -0.553932
  16 H     1.0000    0     1.008    3.696722    1.443918   -3.367331

--------------------------------
INTERNAL COORDINATES (ANGSTROEM)
--------------------------------
 C      0   0   0     0.000000000000     0.00000000     0.00000000
 C      1   0   0     1.524213245139     0.00000000     0.00000000
 C      2   1   0     1.526361547323   112.23814351     0.00000000
 O      3   2   1     1.434951613137   110.55770522    68.94956143
 C      4   3   2     1.327783925556   119.47975589   248.70681856
 O      5   4   3     1.213822377511   123.95675967   358.26687596
 C      5   4   3     1.500228068273   111.16587091   178.52479841
 H      1   2   3     1.086304791855   110.37078691   178.93673824
 H      1   2   3     1.088296286858   110.71064533   298.92784499
 H      1   2   3     1.087941667812   110.53388642    58.61803312
 H      2   1   3     1.089921487307   109.80793909   240.20230257
 H      2   1   3     1.090808937227   109.83800376   120.89870502
 H      3   2   1     1.092133044135   110.72633963   185.79504645
 H      3   2   1     1.094394821334   111.02033454   308.28764250
 H      7   5   4     1.084794580068   109.63382758   173.27850552
 H      7   5   4     1.086039868436   109.38493536    51.67866151
 H      7   5   4     1.087071518514   109.01045457   293.68196286

---------------------------
INTERNAL COORDINATES (A.U.)
---------------------------
 C      0   0   0     0.000000000000     0.00000000     0.00000000
 C      1   0   0     2.880345603008     0.00000000     0.00000000
 C      2   1   0     2.884405305789   112.23814351     0.00000000
 O      3   2   1     2.711665564257   110.55770522    68.94956143
 C      4   3   2     2.509147984324   119.47975589   248.70681856
 O      5   4   3     2.293791868721   123.95675967   358.26687596
 C      5   4   3     2.835020187458   111.16587091   178.52479841
 H      1   2   3     2.052818554572   110.37078691   178.93673824
 H      1   2   3     2.056581934725   110.71064533   298.92784499
 H      1   2   3     2.055911801847   110.53388642    58.61803312
 H      2   1   3     2.059653118486   109.80793909   240.20230257
 H      2   1   3     2.061330155793   109.83800376   120.89870502
 H      3   2   1     2.063832355221   110.72633963   185.79504645
 H      3   2   1     2.068106494704   111.02033454   308.28764250
 H      7   5   4     2.049964667891   109.63382758   173.27850552
 H      7   5   4     2.052317921865   109.38493536    51.67866151
 H      7   5   4     2.054267457977   109.01045457   293.68196286

---------------------
BASIS SET INFORMATION
---------------------
There are 3 groups of distinct atoms

 Group   1 Type C   : 11s6p1d contracted to 5s3p1d pattern {62111/411/1}
 Group   2 Type O   : 11s6p2d contracted to 5s3p2d pattern {62111/411/11}
 Group   3 Type H   : 4s1p contracted to 2s1p pattern {31/1}

Atom   0C    basis set group =>   1
Atom   1C    basis set group =>   1
Atom   2C    basis set group =>   1
Atom   3O    basis set group =>   2
Atom   4C    basis set group =>   1
Atom   5O    basis set group =>   2
Atom   6C    basis set group =>   1
Atom   7H    basis set group =>   3
Atom   8H    basis set group =>   3
Atom   9H    basis set group =>   3
Atom  10H    basis set group =>   3
Atom  11H    basis set group =>   3
Atom  12H    basis set group =>   3
Atom  13H    basis set group =>   3
Atom  14H    basis set group =>   3
Atom  15H    basis set group =>   3
Atom  16H    basis set group =>   3
---------------------------------
AUXILIARY/J BASIS SET INFORMATION
---------------------------------
There are 3 groups of distinct atoms

 Group   1 Type C   : 12s5p4d2f1g contracted to 6s4p3d1f1g pattern {711111/2111/211/2/1}
 Group   2 Type O   : 12s5p4d2f1g contracted to 6s4p3d1f1g pattern {711111/2111/211/2/1}
 Group   3 Type H   : 5s2p1d contracted to 3s1p1d pattern {311/2/1}

Atom   0C    basis set group =>   1
Atom   1C    basis set group =>   1
Atom   2C    basis set group =>   1
Atom   3O    basis set group =>   2
Atom   4C    basis set group =>   1
Atom   5O    basis set group =>   2
Atom   6C    basis set group =>   1
Atom   7H    basis set group =>   3
Atom   8H    basis set group =>   3
Atom   9H    basis set group =>   3
Atom  10H    basis set group =>   3
Atom  11H    basis set group =>   3
Atom  12H    basis set group =>   3
Atom  13H    basis set group =>   3
Atom  14H    basis set group =>   3
Atom  15H    basis set group =>   3
Atom  16H    basis set group =>   3

Checking for AutoStart:
The File: sp_gas.gbw exists
Trying to determine its content:
     ... Fine, the file contains calculation information
     ... Fine, the calculation information was read
     ... Fine, the file contains a basis set
     ... Fine, the basis set was read
     ... Fine, the file contains a geometry
     ... Fine, the geometry was read
     ... Fine, the file contains a set of orbitals
     ... Fine, the orbitals can be read
     => possible old guess file was deleted
     => GBW file was renamed to GES file
     => GES file is set as startup file
     => Guess is set to MORead
     ... now leaving AutoStart

------------------------------------------------------------------------------
                             ORCA STARTUP CALCULATIONS
                           -- RI-GTO INTEGRALS CHOSEN --
------------------------------------------------------------------------------
------------------------------------------------------------------------------
                   ___                                                        
                  /   \      - P O W E R E D   B Y -                         
                 /     \                                                     
                 |  |  |   _    _      __       _____    __    __             
                 |  |  |  | |  | |    /  \     |  _  \  |  |  /  |          
                  \  \/   | |  | |   /    \    | | | |  |  | /  /          
                 / \  \   | |__| |  /  /\  \   | |_| |  |  |/  /          
                |  |  |   |  __  | /  /__\  \  |    /   |      \           
                |  |  |   | |  | | |   __   |  |    \   |  |\   \          
                \     /   | |  | | |  |  |  |  | |\  \  |  | \   \       
                 \___/    |_|  |_| |__|  |__|  |_| \__\ |__|  \__/        
                                                                              
                      - O R C A' S   B I G   F R I E N D -                    
                                      &                                       
                       - I N T E G R A L  F E E D E R -                       
                                                                              
 v1 FN, 2020, v2 2021, v3 2022-2024                                           
------------------------------------------------------------------------------


----------------------
SHARK INTEGRAL PACKAGE
----------------------

Number of atoms                             ...     17
Number of basis functions                   ...    193
Number of shells                            ...     95
Maximum angular momentum                    ...      2
Integral batch strategy                     ... SHARK/LIBINT Hybrid
RI-J (if used) integral strategy            ... SPLIT-RIJ (Revised 2003 algorithm where possible)
Printlevel                                  ...      1
Contraction scheme used                     ... SEGMENTED contraction
Prescreening option                         ... SCHWARTZ
   Thresh                                   ... 1.000e-10
   Tcut                                     ... 1.000e-11
   Tpresel                                  ... 1.000e-11 
Coulomb Range Separation                    ... NOT USED
Exchange Range Separation                   ... NOT USED
Multipole approximations                    ... NOT USED
Finite Nucleus Model                        ... NOT USED
CABS basis                                  ... NOT available
Auxiliary Coulomb fitting basis             ... AVAILABLE
   # of basis functions in Aux-J            ...    453
   # of shells in Aux-J                     ...    155
   Maximum angular momentum in Aux-J        ...      4
Auxiliary J/K fitting basis                 ... NOT available
Auxiliary Correlation fitting basis         ... NOT available
Auxiliary 'external' fitting basis          ... NOT available

Checking pre-screening integrals            ... done (  0.0 sec) Dimension = 95
Check shell pair data                       ... done (  0.0 sec)
Shell pair information
Shell pair cut-off parameter TPreSel        ...   1.0e-11
Total number of shell pairs                 ...      4560
Shell pairs after pre-screening             ...      4141
Total number of primitive shell pairs       ...     16115
Primitive shell pairs kept                  ...     10520
          la=0 lb=0:   1375 shell pairs
          la=1 lb=0:   1543 shell pairs
          la=1 lb=1:    455 shell pairs
          la=2 lb=0:    459 shell pairs
          la=2 lb=1:    264 shell pairs
          la=2 lb=2:     45 shell pairs

Calculating one electron integrals          ... done (  0.0 sec)
Calculating RI/J V-Matrix + Cholesky decomp.... done (  0.1 sec)
Calculating Nuclear repulsion               ... done (  0.0 sec) ENN=    319.762220882136 Eh

Diagonalization of the overlap matrix:
Smallest eigenvalue                        ... 2.134e-04
Time for diagonalization                   ...    0.004 sec
Threshold for overlap eigenvalues          ... 1.000e-07
Number of eigenvalues below threshold      ... 0
Time for construction of square roots      ...    0.014 sec
Total time needed                          ...    0.050 sec

-------------------
DFT GRID GENERATION
-------------------

General Integration Accuracy     IntAcc      ... 4.388
Radial Grid Type                 RadialGrid  ... OptM3 with GC (2021)
Angular Grid (max. ang.)         AngularGrid ... 4 (Lebedev-302)
Angular grid pruning method      GridPruning ... 4 (adaptive)
Weight generation scheme         WeightScheme... mBecke (2022)
Basis function cutoff            BFCut       ... 1.0000e-10
Integration weight cutoff        WCut        ... 1.0000e-14
Partially contracted basis set               ... off
Rotationally invariant grid construction     ... off
Angular grids for H and He will be reduced by one unit
Diffuse basis detected: some atoms will have their outermost
                        angular grid increased by 1.

Total number of grid points                  ...    75065
Total number of batches                      ...     1182
Average number of points per batch           ...       63
Average number of grid points per atom       ...     4416
Initializing property integral containers    ... done (  0.0 sec)

SHARK setup successfully completed in   1.0 seconds

Maximum memory used throughout the entire STARTUP-calculation: 33.7 MB
-------------------------------------------------------------------------------
                                 ORCA GUESS
                   Start orbitals & Density for SCF / CASSCF
-------------------------------------------------------------------------------

------------
SCF SETTINGS
------------
Hamiltonian:
 Density Functional     Method          .... DFT(GTOs)
  Functional kind                       .... Exchange
  Functional name                       .... Re-regularized SCAN exchange by Furness et al
  Functional family                     .... MGGA
  Functional refs                              
    [ 0] J. W. Furness, A. D. Kaplan, J. Ning, J. P. Perdew, and J. Sun.,  J. Phys. Chem. Lett. 11, 8208-8215 (2020), doi: 10.1021/acs.jpclett.0c02405
    [ 1] J. W. Furness, A. D. Kaplan, J. Ning, J. P. Perdew, and J. Sun.,  J. Phys. Chem. Lett. 11, 9248-9248 (2020), doi: 10.1021/acs.jpclett.0c03077
  Functional external parameters        .... 6
    Parameter  0 _c1        =  6.670000e-01 : c1 parameter        
    Parameter  1 _c2        =  8.000000e-01 : c2 parameter        
    Parameter  2 _d         =  1.240000e+00 : d parameter         
    Parameter  3 _k1        =  6.500000e-02 : k1 parameter        
    Parameter  4 _eta       =  1.000000e-03 : eta parameter       
    Parameter  5 _dp2       =  3.610000e-01 : dp2 parameter       
  Functional kind                       .... Correlation
  Functional name                       .... Re-regularized SCAN correlation by Furness et al
  Functional family                     .... MGGA
  Functional refs                              
    [ 0] J. W. Furness, A. D. Kaplan, J. Ning, J. P. Perdew, and J. Sun.,  J. Phys. Chem. Lett. 11, 8208-8215 (2020), doi: 10.1021/acs.jpclett.0c02405
    [ 1] J. W. Furness, A. D. Kaplan, J. Ning, J. P. Perdew, and J. Sun.,  J. Phys. Chem. Lett. 11, 9248-9248 (2020), doi: 10.1021/acs.jpclett.0c03077
  Functional external parameters        .... 1
    Parameter  0 _eta       =  1.000000e-03 : Regularization parameter
 Gradients option       PostSCFGGA      .... off
 RI-approximation to the Coulomb term is turned on
   Number of AuxJ basis functions       .... 453


General Settings:
 Integral files         IntName         .... sp_gas
 Hartree-Fock type      HFTyp           .... RHF
 Total Charge           Charge          ....    0
 Multiplicity           Mult            ....    1
 Number of Electrons    NEL             ....   56
 Basis Dimension        Dim             ....  193
 Nuclear Repulsion      ENuc            ....    319.7622208821 Eh

Convergence Acceleration:
 AO-DIIS                CNVDIIS         .... on
   Start iteration      DIISMaxIt       ....    12
   Startup error        DIISStart       ....  0.200000
   # of expansion vecs  DIISMaxEq       ....     5
   Bias factor          DIISBfac        ....   1.050
   Max. coefficient     DIISMaxC        ....  10.000
 MO-DIIS                CNVKDIIS        .... off
 Trust-Rad. Augm. Hess. CNVTRAH         .... auto
   Auto Start mean grad. ratio tolernc. ....  1.125000
   Auto Start start iteration           ....     1
   Auto Start num. interpolation iter.  ....    10
   Max. Number of Micro iterations      ....    24
   Max. Number of Macro iterations      .... Maxiter - #DIIS iter
   Number of Davidson start vectors     ....     2
   Converg. threshold    (grad. norm)   ....   3.330e-04
   Grad. Scal. Fac. for Micro threshold ....   0.100
   Minimum threshold for Micro iter.    ....   1.000e-02
   NR start threshold (gradient norm)   ....   1.000e-04
   Initial trust radius                 ....   0.400
   Minimum AH scaling param. (alpha)    ....   1.000
   Maximum AH scaling param. (alpha)    .... 1000.000
   Quad. conv. algorithm                .... NR
   White noise on init. David. guess    .... on
   Maximum white noise                  ....   0.010
   Pseudo random numbers                .... off
   Inactive MOs                         .... canonical
   Orbital update algorithm             .... Taylor
   Preconditioner                       .... Diag
   Full preconditioner red. dimension   ....   250
   COSX micro iterations for RIJONX calc.... off
 SOSCF                  CNVSOSCF        .... on
   Start iteration      SOSCFMaxIt      ....   150
   Startup grad/error   SOSCFStart      ....  0.003300
   Hessian update       SOSCFHessUp     .... L-BFGS
 Level Shifting         CNVShift        .... on
   Level shift para.    LevelShift      ....    0.2500
   Turn off err/grad.   ShiftErr        ....    0.0010
 Zerner damping         CNVZerner       .... off
 Static damping         CNVDamp         .... on
   Fraction old density DampFac         ....    0.7000
   Max. Damping (<1)    DampMax         ....    0.9800
   Min. Damping (>=0)   DampMin         ....    0.0000
   Turn off err/grad.   DampErr         ....    0.1000

SCF Procedure:
 Maximum # iterations   MaxIter         ....   125
 SCF integral mode      SCFMode         .... Direct
   Integral package                     .... SHARK and LIBINT hybrid scheme
 Reset frequency        DirectResetFreq ....    20
 Integral Threshold     Thresh          ....  1.000e-10 Eh
 Primitive CutOff       TCut            ....  1.000e-11 Eh

Convergence Tolerance:
 Convergence Check Mode ConvCheckMode   .... Total+1el-Energy
 Convergence forced     ConvForced      .... 0
 Energy Change          TolE            ....  1.000e-06 Eh
 1-El. energy change                    ....  1.000e-03 Eh
 Orbital Gradient       TolG            ....  3.330e-04
 Orbital Rotation angle TolX            ....  3.330e-04
 DIIS Error             TolErr          ....  1.000e-06

---------------------
INITIAL GUESS: MOREAD
---------------------
Guess MOs are being read from file: sp_gas.ges
Input Geometry matches current geometry (good)
Atom 0: N(Shells)= 9 and 6 - projection required
Input basis set needs projection
NBasis(read)= 118
NBasis(calc)= 193
Basis set overlap was calculated
Using GuessMode=FMatrix for the initial guess
C*T matrix was formed
Effective Fockian was calculated
Effective Fockian was diagonalized
Initial density was built
                      ------------------
                      INITIAL GUESS DONE (   0.0 sec)
                      ------------------
             **** ENERGY FILE WAS UPDATED (sp_gas.en.tmp) ****
Finished Guess after   0.2 sec
Maximum memory used throughout the entire GUESS-calculation: 13.0 MB

-------------------------------------------------------------------------------------------
                                      ORCA LEAN-SCF
                              memory conserving SCF solver
-------------------------------------------------------------------------------------------

----------------------------------------D-I-I-S--------------------------------------------
Iteration    Energy (Eh)           Delta-E    RMSDP     MaxDP     DIISErr   Damp  Time(sec)
-------------------------------------------------------------------------------------------
               ***  Starting incremental Fock matrix formation  ***
    1    -346.7669911330303876     0.00e+00  4.37e-03  1.77e-01  6.26e-01  0.700   2.3
    2    -346.8192668010843818    -5.23e-02  3.52e-03  1.13e-01  4.40e-01  0.700   2.1
    3    -346.8562250600507468    -3.70e-02  2.57e-03  7.41e-02  3.08e-01  0.700   2.0
    4    -346.8821719357283655    -2.59e-02  1.83e-03  5.01e-02  2.16e-01  0.700   1.9
                               ***Turning on AO-DIIS***
    5    -346.9003709208841428    -1.82e-02  1.32e-03  3.32e-02  1.51e-01  0.700   2.0
    6    -346.9131271563771861    -1.28e-02  9.34e-04  2.26e-02  1.06e-01  0.700   1.9
    7    -346.9220689668318300    -8.94e-03  6.57e-04  1.58e-02  7.40e-02  0.700   1.9
    8    -346.9283335873371925    -6.26e-03  1.54e-03  3.69e-02  5.19e-02  0.000   1.8
                              *** Initializing SOSCF ***
---------------------------------------S-O-S-C-F--------------------------------------
Iteration    Energy (Eh)           Delta-E    RMSDP     MaxDP     MaxGrad    Time(sec)
--------------------------------------------------------------------------------------
    9    -346.9429693928597089    -1.46e-02  8.72e-06  2.62e-04  8.21e-05     1.9
                  *** Gradient check signals convergence ***

               *****************************************************
               *                     SUCCESS                       *
               *           SCF CONVERGED AFTER   9 CYCLES          *
               *****************************************************

             **** ENERGY FILE WAS UPDATED (sp_gas.en.tmp) ****

----------------
TOTAL SCF ENERGY
----------------

Total Energy       :       -346.94296939285971 Eh           -9440.79816 eV

Components:
Nuclear Repulsion  :        319.76222088213558 Eh            8701.17239 eV
Electronic Energy  :       -666.70519027499540 Eh          -18141.97055 eV
One Electron Energy:      -1104.83897174187450 Eh          -30064.19686 eV
Two Electron Energy:        438.13378146687916 Eh           11922.22631 eV

Virial components:
Potential Energy   :       -692.47126851200642 Eh          -18843.10118 eV
Kinetic Energy     :        345.52829911914677 Eh            9402.30302 eV
Virial Ratio       :          2.00409422405435

DFT components:
N(Alpha)           :       27.999975805753 electrons
N(Beta)            :       27.999975805753 electrons
N(Total)           :       55.999951611507 electrons
E(X)               :      -46.156769519539 Eh       
E(C)               :       -1.788501064434 Eh       
E(XC)              :      -47.945270583973 Eh       

---------------
SCF CONVERGENCE
---------------

  Last Energy change         ...    1.4636e-02  Tolerance :   1.0000e-06
  Last MAX-Density change    ...    2.6161e-04  Tolerance :   1.0000e-05
  Last RMS-Density change    ...    8.7236e-06  Tolerance :   1.0000e-06
  Last DIIS Error            ...    8.2087e-05  Tolerance :   1.0000e-06
  Last Orbital Gradient      ...    8.2087e-05  Tolerance :   3.3300e-04
  Last Orbital Rotation      ...    8.2087e-05  Tolerance :   3.3300e-04


----------------
ORBITAL ENERGIES
----------------

  NO   OCC          E(Eh)            E(eV) 
   0   2.0000     -18.996323      -516.9162 
   1   2.0000     -18.928041      -515.0582 
   2   2.0000     -10.156124      -276.3622 
   3   2.0000     -10.086779      -274.4752 
   4   2.0000     -10.039035      -273.1760 
   5   2.0000     -10.037302      -273.1289 
   6   2.0000     -10.020583      -272.6739 
   7   2.0000      -1.071260       -29.1505 
   8   2.0000      -0.975897       -26.5555 
   9   2.0000      -0.767367       -20.8811 
  10   2.0000      -0.721263       -19.6266 
  11   2.0000      -0.661803       -18.0086 
  12   2.0000      -0.580701       -15.8017 
  13   2.0000      -0.526489       -14.3265 
  14   2.0000      -0.466444       -12.6926 
  15   2.0000      -0.457961       -12.4618 
  16   2.0000      -0.437397       -11.9022 
  17   2.0000      -0.413633       -11.2555 
  18   2.0000      -0.412693       -11.2299 
  19   2.0000      -0.380959       -10.3664 
  20   2.0000      -0.375027       -10.2050 
  21   2.0000      -0.357794        -9.7361 
  22   2.0000      -0.331261        -9.0141 
  23   2.0000      -0.326894        -8.8952 
  24   2.0000      -0.321841        -8.7577 
  25   2.0000      -0.302711        -8.2372 
  26   2.0000      -0.267301        -7.2736 
  27   2.0000      -0.236814        -6.4440 
  28   0.0000      -0.013397        -0.3646 
  29   0.0000       0.075141         2.0447 
  30   0.0000       0.096035         2.6132 
  31   0.0000       0.112599         3.0640 
  32   0.0000       0.119537         3.2528 
  33   0.0000       0.132307         3.6002 
  34   0.0000       0.139110         3.7854 
  35   0.0000       0.157063         4.2739 
  36   0.0000       0.158534         4.3139 
  37   0.0000       0.162921         4.4333 
  38   0.0000       0.177921         4.8415 
*Only the first 10 virtual orbitals were printed.

                    ********************************
                    * MULLIKEN POPULATION ANALYSIS *
                    ********************************

-----------------------
MULLIKEN ATOMIC CHARGES
-----------------------
   0 C :   -0.459180
   1 C :   -0.245023
   2 C :   -0.190829
   3 O :   -0.169829
   4 C :    0.438180
   5 O :   -0.437512
   6 C :   -0.516722
   7 H :    0.148106
   8 H :    0.146490
   9 H :    0.154348
  10 H :    0.140882
  11 H :    0.147565
  12 H :    0.146417
  13 H :    0.185638
  14 H :    0.177417
  15 H :    0.166624
  16 H :    0.167426
Sum of atomic charges:   -0.0000000

--------------------------------
MULLIKEN REDUCED ORBITAL CHARGES
--------------------------------
  0 C s       :     3.311182  s :     3.311182
      pz      :     1.007721  p :     3.121209
      px      :     1.094844
      py      :     1.018645
      dz2     :     0.003376  d :     0.026789
      dxz     :     0.008408
      dyz     :     0.006072
      dx2y2   :     0.007752
      dxy     :     0.001181

  1 C s       :     3.234857  s :     3.234857
      pz      :     0.971225  p :     2.974022
      px      :     0.981764
      py      :     1.021033
      dz2     :     0.004834  d :     0.036144
      dxz     :     0.011083
      dyz     :     0.007820
      dx2y2   :     0.009454
      dxy     :     0.002953

  2 C s       :     3.299192  s :     3.299192
      pz      :     0.949237  p :     2.838468
      px      :     0.772982
      py      :     1.116249
      dz2     :     0.008369  d :     0.053170
      dxz     :     0.014652
      dyz     :     0.008950
      dx2y2   :     0.013988
      dxy     :     0.007211

  3 O s       :     3.695552  s :     3.695552
      pz      :     1.589783  p :     4.452154
      px      :     1.265251
      py      :     1.597120
      dz2     :     0.008132  d :     0.022123
      dxz     :     0.001508
      dyz     :     0.004272
      dx2y2   :     0.006477
      dxy     :     0.001734

  4 C s       :     3.112077  s :     3.112077
      pz      :     0.783512  p :     2.324306
      px      :     0.777170
      py      :     0.763624
      dz2     :     0.011713  d :     0.125437
      dxz     :     0.009540
      dyz     :     0.031301
      dx2y2   :     0.027502
      dxy     :     0.045381

  5 O s       :     3.841989  s :     3.841989
      pz      :     1.526978  p :     4.574346
      px      :     1.719141
      py      :     1.328227
      dz2     :     0.003875  d :     0.021177
      dxz     :     0.000303
      dyz     :     0.005658
      dx2y2   :     0.008082
      dxy     :     0.003259

  6 C s       :     3.335173  s :     3.335173
      pz      :     1.054775  p :     3.156919
      px      :     1.002714
      py      :     1.099430
      dz2     :     0.003469  d :     0.024629
      dxz     :     0.006225
      dyz     :     0.004858
      dx2y2   :     0.002971
      dxy     :     0.007106

  7 H s       :     0.833569  s :     0.833569
      pz      :     0.005803  p :     0.018325
      px      :     0.008755
      py      :     0.003767

  8 H s       :     0.835207  s :     0.835207
      pz      :     0.006475  p :     0.018303
      px      :     0.008122
      py      :     0.003707

  9 H s       :     0.827489  s :     0.827489
      pz      :     0.004314  p :     0.018162
      px      :     0.003643
      py      :     0.010205

 10 H s       :     0.841109  s :     0.841109
      pz      :     0.006022  p :     0.018010
      px      :     0.008354
      py      :     0.003634

 11 H s       :     0.834561  s :     0.834561
      pz      :     0.004430  p :     0.017874
      px      :     0.003373
      py      :     0.010071

 12 H s       :     0.836136  s :     0.836136
      pz      :     0.008687  p :     0.017447
      px      :     0.002607
      py      :     0.006153

 13 H s       :     0.796015  s :     0.796015
      pz      :     0.003679  p :     0.018347
      px      :     0.002911
      py      :     0.011757

 14 H s       :     0.804601  s :     0.804601
      pz      :     0.003633  p :     0.017981
      px      :     0.007054
      py      :     0.007294

 15 H s       :     0.814854  s :     0.814854
      pz      :     0.005503  p :     0.018522
      px      :     0.004798
      py      :     0.008220

 16 H s       :     0.813958  s :     0.813958
      pz      :     0.009382  p :     0.018616
      px      :     0.004450
      py      :     0.004784


------------------------
MULLIKEN OVERLAP CHARGES
------------------------
B(  0-C ,  1-C ) :   0.4376 B(  0-C ,  2-C ) :  -0.1645 B(  0-C ,  7-H ) :   0.8076 
B(  0-C ,  8-H ) :   0.8325 B(  0-C ,  9-H ) :   0.8285 B(  0-C , 10-H ) :  -0.0640 
B(  0-C , 11-H ) :  -0.0836 B(  1-C ,  2-C ) :   0.5114 B(  1-C ,  7-H ) :  -0.0863 
B(  1-C ,  8-H ) :  -0.0726 B(  1-C ,  9-H ) :  -0.0730 B(  1-C , 10-H ) :   0.8357 
B(  1-C , 11-H ) :   0.8733 B(  1-C , 12-H ) :  -0.0602 B(  1-C , 13-H ) :  -0.0627 
B(  2-C ,  3-O ) :   0.2483 B(  2-C ,  4-C ) :  -0.2425 B(  2-C , 10-H ) :  -0.0917 
B(  2-C , 11-H ) :  -0.0675 B(  2-C , 12-H ) :   0.7751 B(  2-C , 13-H ) :   0.8664 
B(  3-O ,  4-C ) :   0.3215 B(  3-O ,  5-O ) :  -0.2218 B(  3-O ,  6-C ) :  -0.0840 
B(  3-O , 12-H ) :  -0.0827 B(  3-O , 13-H ) :  -0.0710 B(  4-C ,  5-O ) :   1.0062 
B(  4-C ,  6-C ) :   0.5715 B(  4-C , 13-H ) :  -0.0560 B(  4-C , 14-H ) :  -0.1219 
B(  5-O ,  6-C ) :  -0.1330 B(  6-C , 14-H ) :   0.8821 B(  6-C , 15-H ) :   0.7922 
B(  6-C , 16-H ) :   0.7716 


                     *******************************
                     * LOEWDIN POPULATION ANALYSIS *
                     *******************************

----------------------
LOEWDIN ATOMIC CHARGES
----------------------
   0 C :   -0.415987
   1 C :   -0.286557
   2 C :    0.033853
   3 O :   -0.599301
   4 C :    0.352530
   5 O :   -0.439834
   6 C :   -0.335413
   7 H :    0.151081
   8 H :    0.155574
   9 H :    0.156962
  10 H :    0.159722
  11 H :    0.160142
  12 H :    0.178881
  13 H :    0.197760
  14 H :    0.174387
  15 H :    0.177604
  16 H :    0.178596

-------------------------------
LOEWDIN REDUCED ORBITAL CHARGES
-------------------------------
  0 C s       :     2.971148  s :     2.971148
      pz      :     1.110016  p :     3.382058
      px      :     1.150335
      py      :     1.121708
      dz2     :     0.006901  d :     0.062782
      dxz     :     0.020229
      dyz     :     0.014629
      dx2y2   :     0.018897
      dxy     :     0.002125

  1 C s       :     2.940206  s :     2.940206
      pz      :     1.088861  p :     3.268278
      px      :     1.062558
      py      :     1.116860
      dz2     :     0.009045  d :     0.078073
      dxz     :     0.024808
      dyz     :     0.018025
      dx2y2   :     0.021227
      dxy     :     0.004967

  2 C s       :     2.866181  s :     2.866181
      pz      :     0.997978  p :     2.979963
      px      :     0.885121
      py      :     1.096864
      dz2     :     0.017414  d :     0.120004
      dxz     :     0.033258
      dyz     :     0.021227
      dx2y2   :     0.033840
      dxy     :     0.014264

  3 O s       :     3.460207  s :     3.460207
      pz      :     1.623806  p :     4.664147
      px      :     1.416916
      py      :     1.623425
      dz2     :     0.075843  d :     0.474947
      dxz     :     0.109616
      dyz     :     0.065758
      dx2y2   :     0.121397
      dxy     :     0.102334

  4 C s       :     2.738454  s :     2.738454
      pz      :     0.787251  p :     2.636171
      px      :     0.877749
      py      :     0.971171
      dz2     :     0.025370  d :     0.272845
      dxz     :     0.019392
      dyz     :     0.063595
      dx2y2   :     0.064594
      dxy     :     0.099894

  5 O s       :     3.552215  s :     3.552215
      pz      :     1.515224  p :     4.670697
      px      :     1.672822
      py      :     1.482651
      dz2     :     0.023384  d :     0.216923
      dxz     :     0.018045
      dyz     :     0.053286
      dx2y2   :     0.060784
      dxy     :     0.061425

  6 C s       :     2.957532  s :     2.957532
      pz      :     1.112296  p :     3.320945
      px      :     1.076839
      py      :     1.131810
      dz2     :     0.008462  d :     0.056936
      dxz     :     0.013226
      dyz     :     0.011578
      dx2y2   :     0.005741
      dxy     :     0.017930

  7 H s       :     0.805294  s :     0.805294
      pz      :     0.013575  p :     0.043624
      px      :     0.021593
      py      :     0.008456

  8 H s       :     0.800816  s :     0.800816
      pz      :     0.015367  p :     0.043610
      px      :     0.020072
      py      :     0.008172

  9 H s       :     0.799524  s :     0.799524
      pz      :     0.010096  p :     0.043514
      px      :     0.007990
      py      :     0.025428

 10 H s       :     0.796757  s :     0.796757
      pz      :     0.014768  p :     0.043521
      px      :     0.020374
      py      :     0.008378

 11 H s       :     0.796832  s :     0.796832
      pz      :     0.010623  p :     0.043026
      px      :     0.007448
      py      :     0.024956

 12 H s       :     0.780853  s :     0.780853
      pz      :     0.019249  p :     0.040267
      px      :     0.005802
      py      :     0.015216

 13 H s       :     0.757021  s :     0.757021
      pz      :     0.008424  p :     0.045218
      px      :     0.007458
      py      :     0.029336

 14 H s       :     0.782081  s :     0.782081
      pz      :     0.008174  p :     0.043531
      px      :     0.017007
      py      :     0.018351

 15 H s       :     0.777914  s :     0.777914
      pz      :     0.013424  p :     0.044482
      px      :     0.010725
      py      :     0.020333

 16 H s       :     0.776846  s :     0.776846
      pz      :     0.022900  p :     0.044558
      px      :     0.010645
      py      :     0.011013


---------------------------------
LOEWDIN BOND ORDERS (THRESH 0.050000)
---------------------------------
B(  0-C ,  1-C ) :   1.1411 B(  0-C ,  2-C ) :   0.0655 B(  0-C ,  7-H ) :   0.9288 
B(  0-C ,  8-H ) :   0.9219 B(  0-C ,  9-H ) :   0.9271 B(  1-C ,  2-C ) :   1.0514 
B(  1-C ,  3-O ) :   0.1583 B(  1-C , 10-H ) :   0.8857 B(  1-C , 11-H ) :   0.8896 
B(  2-C ,  3-O ) :   1.2995 B(  2-C ,  4-C ) :   0.0824 B(  2-C ,  5-O ) :   0.0707 
B(  2-C , 12-H ) :   0.8288 B(  2-C , 13-H ) :   0.8052 B(  3-O ,  4-C ) :   1.4507 
B(  3-O ,  5-O ) :   0.4586 B(  3-O ,  6-C ) :   0.1871 B(  3-O , 12-H ) :   0.0966 
B(  3-O , 13-H ) :   0.0887 B(  4-C ,  5-O ) :   2.1784 B(  4-C ,  6-C ) :   0.9733 
B(  5-O ,  6-C ) :   0.1830 B(  6-C , 14-H ) :   0.9093 B(  6-C , 15-H ) :   0.8995 
B(  6-C , 16-H ) :   0.8983 

------------------------------------------
LOEWDIN REDUCED ORBITAL POPULATIONS PER MO
-------------------------------------------
THRESHOLD FOR PRINTING IS 0.1%%
                      0         1         2         3         4         5   
                 -18.99632 -18.92804 -10.15612 -10.08678 -10.03904 -10.03730
                   2.00000   2.00000   2.00000   2.00000   2.00000   2.00000
                  --------  --------  --------  --------  --------  --------
 1 C  s               0.0       0.0       0.0       0.0       0.0      99.7
 2 C  s               0.0       0.0       0.0      99.4       0.0       0.0
 3 O  s              99.9       0.0       0.0       0.0       0.0       0.0
 3 O  dxz             0.0       0.0       0.0       0.2       0.0       0.0
 3 O  dxy             0.0       0.0       0.2       0.0       0.0       0.0
 4 C  s               0.0       0.0      98.9       0.0       0.0       0.0
 5 O  s               0.0      99.9       0.0       0.0       0.0       0.0
 5 O  py              0.0       0.0       0.2       0.0       0.0       0.0
 5 O  dx2y2           0.0       0.0       0.2       0.0       0.0       0.0
 6 C  s               0.0       0.0       0.0       0.0      99.7       0.0

                      6         7         8         9        10        11   
                 -10.02058  -1.07126  -0.97590  -0.76737  -0.72126  -0.66180
                   2.00000   2.00000   2.00000   2.00000   2.00000   2.00000
                  --------  --------  --------  --------  --------  --------
 0 C  s              99.7       0.0       0.0      10.5       8.9      16.8
 0 C  pz              0.0       0.0       0.0       1.7       0.4       0.2
 0 C  py              0.0       0.0       0.0       1.0       0.3       0.0
 1 C  s               0.0       0.3       0.2      22.3       7.4       0.1
 1 C  pz              0.0       0.0       0.0       0.0       0.7       6.6
 1 C  px              0.0       0.7       0.3       0.8       0.2       2.5
 1 C  py              0.0       0.0       0.0       0.5       0.4       1.2
 1 C  dyz             0.0       0.0       0.0       0.0       0.0       0.1
 2 C  s               0.0       4.4       1.8      14.9       0.2      12.9
 2 C  pz              0.0       1.5       0.5       0.7       0.3       1.0
 2 C  px              0.0       3.9       0.9       2.7       2.7       0.0
 2 C  py              0.0       0.1       0.4       0.1       0.1       0.2
 2 C  dxz             0.0       0.2       0.1       0.1       0.1       0.0
 2 C  dx2y2           0.0       0.2       0.1       0.0       0.0       0.0
 3 O  s               0.0      42.3      15.7       0.5       1.0       0.6
 3 O  pz              0.0       0.0       0.1       2.1       1.5       3.0
 3 O  px              0.0       0.1       0.5       8.6       2.7       7.1
 3 O  py              0.0       2.7       0.5       0.2       0.1       0.7
 3 O  dz2             0.0       0.2       0.2       0.0       0.1       0.0
 3 O  dxz             0.0       0.2       0.0       0.1       0.3       1.4
 3 O  dyz             0.0       0.0       0.0       0.1       0.1       0.1
 3 O  dx2y2           0.0       0.0       0.6       0.2       0.7       0.6
 3 O  dxy             0.0       0.3       0.6       0.5       0.1       0.1
 4 C  s               0.0      16.3       4.3       2.3       4.1       0.4
 4 C  pz              0.0       1.2       0.1       0.5       3.5       0.8
 4 C  px              0.0       3.5       1.0       0.9       5.5       3.5
 4 C  py              0.0       0.2      22.1       3.7       3.3       0.7
 4 C  dz2             0.0       0.4       0.1       0.0       0.0       0.0
 4 C  dxz             0.0       0.1       0.0       0.0       0.1       0.0
 4 C  dyz             0.0       0.0       0.4       0.0       0.0       0.0
 4 C  dx2y2           0.0       0.2       0.9       0.0       0.1       0.1
 4 C  dxy             0.0       0.4       0.4       0.0       0.1       0.2
 5 O  s               0.0      11.7      42.8       1.0       1.4       0.0
 5 O  pz              0.0       0.1       0.3       0.0       0.2       0.0
 5 O  px              0.0       0.0       0.1       0.0       0.3       0.2
 5 O  py              0.0       3.0       3.4       0.2       0.5       0.0
 5 O  dz2             0.0       0.4       0.0       0.0       0.0       0.0
 5 O  dxz             0.0       0.0       0.0       0.0       0.0       0.1
 5 O  dyz             0.0       0.0       0.1       0.1       0.3       0.0
 5 O  dx2y2           0.0       0.9       0.1       0.2       0.1       0.1
 5 O  dxy             0.0       0.1       0.2       0.1       0.4       0.1
 6 C  s               0.0       1.1       0.2       4.2      26.9       9.6
 6 C  pz              0.0       0.6       0.1       0.1       0.1       0.1
 6 C  px              0.0       1.3       0.1       0.4       0.3       0.4
 6 C  py              0.0       0.1       0.4       0.0       0.0       0.0
 7 H  s               0.0       0.0       0.0       1.4       1.5       4.1
 7 H  px              0.0       0.0       0.0       0.1       0.1       0.3
 8 H  s               0.0       0.0       0.0       1.4       1.4       3.7
 8 H  pz              0.0       0.0       0.0       0.1       0.1       0.1
 8 H  px              0.0       0.0       0.0       0.1       0.1       0.2
 9 H  s               0.0       0.0       0.0       1.4       1.4       3.6
 9 H  py              0.0       0.0       0.0       0.1       0.1       0.3
10 H  s               0.0       0.0       0.0       3.2       1.4       0.0
10 H  px              0.0       0.0       0.0       0.2       0.1       0.0
11 H  s               0.0       0.0       0.0       3.1       1.2       0.0
11 H  py              0.0       0.0       0.0       0.2       0.1       0.0
12 H  s               0.0       0.3       0.2       2.3       0.0       4.1
12 H  pz              0.0       0.0       0.0       0.1       0.0       0.2
12 H  py              0.0       0.0       0.0       0.1       0.0       0.1
13 H  s               0.0       0.4       0.1       2.1       0.0       2.6
13 H  py              0.0       0.0       0.0       0.2       0.0       0.2
14 H  s               0.0       0.1       0.0       0.5       4.7       2.7
14 H  px              0.0       0.0       0.0       0.0       0.2       0.1
14 H  py              0.0       0.0       0.0       0.0       0.2       0.1
15 H  s               0.0       0.1       0.0       0.7       5.2       2.2
15 H  pz              0.0       0.0       0.0       0.0       0.1       0.1
15 H  py              0.0       0.0       0.0       0.0       0.3       0.1
16 H  s               0.0       0.1       0.0       0.7       5.3       2.3
16 H  pz              0.0       0.0       0.0       0.1       0.4       0.1

                     12        13        14        15        16        17   
                  -0.58070  -0.52649  -0.46644  -0.45796  -0.43740  -0.41363
                   2.00000   2.00000   2.00000   2.00000   2.00000   2.00000
                  --------  --------  --------  --------  --------  --------
 0 C  s              10.5       0.6       0.4       0.0       0.1       0.1
 0 C  pz              3.8       0.1       1.6       0.1       0.2      14.3
 0 C  px              0.0       0.1       1.4       4.1       0.8       0.1
 0 C  py              2.9       2.4       0.1       0.0       1.6       6.0
 0 C  dyz             0.1       0.0       0.0       0.0       0.0       0.0
 1 C  s              12.3       2.4       0.2       0.2       0.3       0.1
 1 C  pz              3.4       2.1       0.1       0.4       1.9       3.5
 1 C  px              0.9       0.8       0.5       8.3       2.0       0.5
 1 C  py              2.8       4.8       1.4       0.0       0.2      17.1
 1 C  dyz             0.1       0.0       0.0       0.0       0.0       0.0
 2 C  s               0.3       6.6       0.2       0.2       0.4       0.2
 2 C  pz              0.1       9.9       6.7       5.7       1.0       4.5
 2 C  px              8.9       1.1       0.1       0.4       4.7       0.2
 2 C  py              0.1       9.9      10.7       0.0       1.0       2.9
 2 C  dxz             0.3       0.1       0.0       0.0       0.0       0.0
 2 C  dx2y2           0.0       0.2       0.0       0.0       0.1       0.1
 2 C  dxy             0.1       0.1       0.0       0.0       0.0       0.1
 3 O  s               0.4       4.9       0.5       0.3       0.9       1.3
 3 O  pz              4.2       0.3       3.5       7.3      10.1       0.0
 3 O  px              8.8       7.0       2.1       7.8       1.3       0.6
 3 O  py              1.2      10.0      10.5       0.3       9.5       3.1
 3 O  dz2             0.1       0.0       0.1       0.0       0.2       0.2
 3 O  dxz             0.0       0.9       0.3       0.1       0.4       0.2
 3 O  dyz             0.0       0.1       0.1       0.6       0.1       0.0
 3 O  dx2y2           0.1       0.0       0.5       0.1       0.1       0.0
 3 O  dxy             0.3       0.1       1.2       0.1       0.1       0.2
 4 C  s               1.8       2.4       1.7       2.3       1.1       0.0
 4 C  pz              0.1       0.4       0.4      12.2       4.6       0.2
 4 C  px              0.7       0.4      11.5       0.6       0.7       4.3
 4 C  py              1.6       1.3       0.3       1.0       2.7       0.0
 4 C  dx2y2           0.0       0.0       0.1       0.1       0.3       0.0
 5 O  s               0.3       2.0       0.5       4.0       9.6       0.2
 5 O  pz              0.0       0.1       0.3       8.4       0.1       0.0
 5 O  px              0.0       0.4       7.1       0.4       0.6       2.8
 5 O  py              0.4       2.2       1.0       5.3      23.8       1.0
 5 O  dz2             0.0       0.1       0.0       0.0       0.2       0.0
 5 O  dyz             0.0       0.0       0.0       1.1       0.1       0.0
 5 O  dx2y2           0.2       0.1       0.1       0.0       0.2       0.1
 5 O  dxy             0.0       0.1       1.1       0.0       0.0       0.3
 6 C  s               2.4       0.5       1.3       0.7       0.1       0.0
 6 C  pz              0.6       0.7       8.5       0.2       1.0       4.8
 6 C  px              1.5       1.1       3.2       7.5       5.7       0.3
 6 C  py              0.0       0.0       3.2       7.2       3.2       2.4
 6 C  dxz             0.0       0.0       0.2       0.0       0.0       0.1
 6 C  dyz             0.0       0.0       0.0       0.1       0.0       0.0
 7 H  s               3.9       0.1       1.4       0.7       0.1       2.1
 7 H  px              0.2       0.0       0.0       0.0       0.0       0.1
 8 H  s               4.4       0.3       0.1       0.9       0.4       3.4
 8 H  px              0.2       0.0       0.0       0.0       0.0       0.1
 9 H  s               4.1       1.1       0.1       0.0       0.6       4.0
 9 H  py              0.2       0.0       0.0       0.0       0.0       0.2
10 H  s               6.2       0.5       0.0       2.9       0.2       2.1
10 H  pz              0.1       0.0       0.0       0.1       0.0       0.0
10 H  px              0.3       0.0       0.0       0.0       0.0       0.1
11 H  s               4.6       4.1       0.1       0.0       0.7       6.9
11 H  py              0.3       0.2       0.0       0.0       0.0       0.2
12 H  s               0.1       3.6       6.6       0.7       1.7       4.4
12 H  pz              0.0       0.0       0.2       0.0       0.0       0.1
12 H  py              0.0       0.2       0.1       0.0       0.0       0.0
13 H  s               0.1      10.9       1.3       0.2       0.0       0.0
13 H  py              0.0       0.6       0.0       0.0       0.0       0.0
14 H  s               1.4       0.7       0.9       0.2       2.8       0.4
15 H  s               0.8       0.2       1.1       6.0       0.0       0.0
15 H  pz              0.0       0.0       0.1       0.1       0.0       0.0
16 H  s               0.9       0.3       4.6       0.1       1.7       3.4
16 H  px              0.0       0.0       0.1       0.1       0.0       0.0

                     18        19        20        21        22        23   
                  -0.41269  -0.38096  -0.37503  -0.35779  -0.33126  -0.32689
                   2.00000   2.00000   2.00000   2.00000   2.00000   2.00000
                  --------  --------  --------  --------  --------  --------
 0 C  s               0.0       0.0       0.0       0.1       0.2       0.0
 0 C  pz              0.4       0.2       1.4       5.3       0.4       0.7
 0 C  px             12.4       0.7       2.9      14.3       0.4      15.3
 0 C  py              1.4      10.3       2.8       0.0      20.3       0.3
 0 C  dz2             0.0       0.0       0.0       0.0       0.1       0.0
 0 C  dxz             0.0       0.0       0.0       0.1       0.0       0.5
 0 C  dyz             0.0       0.1       0.0       0.0       0.2       0.0
 0 C  dx2y2           0.0       0.0       0.0       0.1       0.1       0.0
 1 C  s               0.1       0.0       0.0       0.4       0.0       0.1
 1 C  pz              2.8       6.2       3.2       1.7       1.8       0.5
 1 C  px             13.7       0.6       0.8       0.4       0.2      10.5
 1 C  py              0.5       0.0       0.9       0.8      13.5       0.3
 1 C  dz2             0.0       0.0       0.0       0.0       0.2       0.0
 1 C  dxz             0.0       0.0       0.0       0.0       0.0       0.5
 1 C  dyz             0.0       0.0       0.0       0.0       0.1       0.0
 2 C  s               0.1       0.1       0.0       0.3       0.1       0.5
 2 C  pz              2.6       0.3       0.5       0.2       3.2       3.9
 2 C  px              1.1       2.5       3.7       0.3       0.9       7.2
 2 C  py              0.2       8.8       2.7       0.1       0.3       0.0
 2 C  dxz             0.1       0.0       0.0       0.1       0.0       0.1
 2 C  dxy             0.0       0.0       0.0       0.0       0.1       0.0
 3 O  s               0.3       0.0       0.3       0.0       1.8       0.1
 3 O  pz              0.0       0.3       2.0      11.2       2.4       1.9
 3 O  px              0.5       0.2       2.8       5.3       1.6       0.3
 3 O  py              0.0       0.3       0.2       1.1      13.9       0.7
 3 O  dz2             0.8       0.1       0.0       0.1       0.1       0.6
 3 O  dxz             0.3       0.0       0.3       0.1       0.1       0.1
 3 O  dyz             0.1       0.2       0.1       0.1       0.0       0.3
 3 O  dx2y2           1.0       0.0       0.1       0.0       0.4       0.3
 3 O  dxy             0.0       0.2       0.1       0.1       0.2       0.1
 4 C  s               0.0       0.3       0.2       0.0       0.2       0.0
 4 C  pz              4.0       1.3       0.7       3.3       0.1       5.0
 4 C  px              2.1       2.2       2.3       0.8       1.0       0.6
 4 C  py              1.0       4.3       0.5       0.0       2.9       0.1
 4 C  dz2             0.0       0.0       0.0       0.3       0.1       0.0
 4 C  dxz             0.0       0.1       0.0       0.0       0.1       0.0
 4 C  dyz             0.0       0.0       0.1       0.0       0.0       0.3
 4 C  dx2y2           0.0       0.1       0.0       0.1       0.4       0.0
 4 C  dxy             0.0       0.1       0.3       0.0       0.0       0.2
 5 O  s               0.4       2.7       0.0       0.0       0.6       0.0
 5 O  pz              3.7       0.3       0.0       4.1       3.6      13.1
 5 O  px              0.6       0.5       0.2       1.6       0.1       4.9
 5 O  py              0.7      17.6       0.4       0.7       4.9       1.7
 5 O  dxz             0.0       0.4       0.0       0.0       0.0       0.0
 5 O  dyz             0.2       0.0       0.0       0.2       0.0       0.2
 5 O  dx2y2           0.0       0.1       0.0       0.0       0.1       0.0
 6 C  s               0.0       0.0       0.1       0.0       0.2       0.0
 6 C  pz             16.9       0.0       1.0      14.3       0.2       4.4
 6 C  px              1.9       0.8      18.4       3.8       3.8       0.0
 6 C  py              2.5      15.3      18.2       0.3       0.3       0.1
 6 C  dz2             0.0       0.0       0.1       0.1       0.0       0.1
 6 C  dxz             0.0       0.1       0.0       0.0       0.0       0.0
 6 C  dyz             0.1       0.0       0.0       0.2       0.0       0.1
 6 C  dxy             0.0       0.1       0.4       0.1       0.0       0.1
 7 H  s               2.5       0.7       0.4      10.0       0.0       9.3
 7 H  py              0.0       0.1       0.0       0.0       0.2       0.0
 8 H  s               3.3       0.0       1.9       1.1       0.4       4.2
 8 H  pz              0.1       0.0       0.0       0.1       0.0       0.1
 8 H  py              0.0       0.1       0.0       0.0       0.2       0.0
 9 H  s               0.6       4.6       0.8       0.6       9.1       0.5
 9 H  pz              0.0       0.0       0.0       0.0       0.1       0.0
 9 H  px              0.1       0.0       0.0       0.1       0.0       0.1
10 H  s               6.3       0.3       0.0       0.2       0.0       3.8
10 H  py              0.0       0.0       0.0       0.0       0.1       0.0
11 H  s               0.7       0.7       0.0       0.0       5.5       0.5
11 H  pz              0.0       0.0       0.0       0.0       0.1       0.0
11 H  px              0.1       0.0       0.0       0.0       0.0       0.1
12 H  s               0.6       0.8       1.3       0.0       1.0       0.7
13 H  s               0.0       5.3       1.1       0.2       0.4       0.0
13 H  py              0.0       0.1       0.0       0.0       0.0       0.0
14 H  s               0.4       2.4      20.5       0.1       0.6       0.1
14 H  pz              0.1       0.0       0.0       0.1       0.0       0.0
14 H  px              0.0       0.1       0.1       0.0       0.0       0.0
14 H  py              0.0       0.0       0.2       0.0       0.0       0.0
15 H  s               6.0       5.8       2.0       5.8       0.5       1.7
15 H  px              0.0       0.0       0.3       0.0       0.0       0.0
15 H  py              0.2       0.0       0.0       0.2       0.0       0.0
16 H  s               5.4       0.5       2.2       8.3       0.1       2.1
16 H  pz              0.0       0.0       0.2       0.1       0.0       0.0
16 H  py              0.1       0.1       0.1       0.1       0.0       0.0

                     24        25        26        27        28        29   
                  -0.32184  -0.30271  -0.26730  -0.23681  -0.01340   0.07514
                   2.00000   2.00000   2.00000   2.00000   0.00000   0.00000
                  --------  --------  --------  --------  --------  --------
 0 C  s               0.2       0.3       0.0       0.0       0.0       6.3
 0 C  pz             23.0       0.2       1.5       0.0       0.1       0.8
 0 C  px              4.1       0.0       0.8       0.0       0.0       0.4
 0 C  py              0.3       6.1       0.0       0.1       0.0       0.3
 0 C  dxz             0.2       0.0       0.1       0.0       0.0       0.0
 0 C  dx2y2           0.4       0.1       0.0       0.0       0.0       0.3
 1 C  s               0.1       0.3       0.5       0.0       0.3       1.3
 1 C  pz             16.7       0.6       2.0       0.1       0.2       0.3
 1 C  px              3.6       0.2       5.5       0.0       0.3       0.3
 1 C  py              0.1      11.0       0.0       0.1       0.0       0.2
 1 C  dz2             0.0       0.1       0.0       0.0       0.0       0.4
 1 C  dxz             0.3       0.0       0.1       0.0       0.0       0.1
 1 C  dyz             0.1       0.3       0.0       0.0       0.0       0.0
 1 C  dx2y2           0.4       0.3       0.0       0.0       0.0       0.3
 2 C  s               0.0       0.4       0.1       0.1       0.0       1.8
 2 C  pz              1.6       0.8       4.5       0.4       0.1       4.3
 2 C  px              0.3       0.1       2.1       0.3       0.1      10.3
 2 C  py              2.8      13.5       0.2       0.6       0.0       1.5
 2 C  dz2             0.2       0.1       0.4       0.0       0.2       0.0
 2 C  dxz             0.1       0.0       0.3       0.0       0.1       0.8
 2 C  dyz             0.1       0.5       0.0       0.0       0.0       0.1
 2 C  dx2y2           0.1       0.5       0.3       0.0       0.1       0.6
 3 O  s               0.3       1.7       0.0       0.4       0.0       6.6
 3 O  pz              0.2       1.9      29.0       0.1       6.7       0.2
 3 O  px              0.7       1.0      11.3       0.7       2.4       0.7
 3 O  py              0.3      19.1       0.7       6.2       0.2       0.9
 3 O  dz2             0.0       0.1       0.6       0.2       1.2       0.5
 3 O  dxz             0.2       0.2       0.1       0.0       1.1       1.9
 3 O  dyz             0.1       0.7       0.1       0.0       1.4       0.2
 3 O  dx2y2           0.0       0.7       0.1       0.2       1.0       0.2
 3 O  dxy             0.1       0.2       0.2       0.2       0.3       0.1
 4 C  s               0.0       0.2       0.0       0.2       0.0      12.1
 4 C  pz              0.4       0.0       0.2       0.3      29.1       0.1
 4 C  px              1.2       0.1       0.1       0.7      11.1       0.4
 4 C  py              0.1       2.0       0.0       0.6       0.9       0.2
 4 C  dz2             0.0       0.0       0.0       0.2       0.5       0.5
 4 C  dxz             0.0       0.1       0.1       0.1       0.1       1.2
 4 C  dyz             0.1       0.0       1.3       0.7       0.3       0.1
 4 C  dx2y2           0.0       0.3       0.2       0.2       0.0       0.0
 4 C  dxy             0.0       0.0       0.3       2.9       0.2       0.0
 5 O  s               0.0       0.5       0.0       0.0       0.0       1.8
 5 O  pz              1.7       0.3      22.8      16.6      17.3       0.0
 5 O  px              2.4       0.0       6.4      54.9       6.3       0.3
 5 O  py              0.2       4.1       0.7       2.2       0.5       0.3
 5 O  dz2             0.0       0.0       0.0       0.0       1.6       0.5
 5 O  dxz             0.0       0.1       0.0       0.0       0.0       0.8
 5 O  dyz             0.0       0.0       0.1       0.1       3.9       0.3
 5 O  dx2y2           0.0       0.4       0.0       0.0       0.0       0.3
 5 O  dxy             0.0       0.0       0.0       0.5       2.0       0.1
 6 C  s               0.0       0.1       0.0       0.7       0.0      19.6
 6 C  pz              0.1       0.2       0.1       1.6       0.1       0.0
 6 C  px              0.7       0.4       0.0       2.2       0.0       0.2
 6 C  py              0.1       0.1       0.0       3.0       0.0       0.1
 6 C  dz2             0.0       0.0       0.0       0.0       1.2       0.0
 6 C  dyz             0.0       0.0       0.0       0.0       0.5       0.0
 6 C  dxy             0.0       0.0       0.0       0.0       0.3       0.0
 7 H  s               0.2       0.1       1.5       0.0       0.0       1.4
 7 H  pz              0.2       0.0       0.0       0.0       0.0       0.0
 7 H  px              0.1       0.0       0.0       0.0       0.0       0.6
 8 H  s              12.7       0.2       0.1       0.0       0.0       2.5
 8 H  pz              0.0       0.0       0.0       0.0       0.0       0.1
 8 H  px              0.2       0.0       0.0       0.0       0.0       1.1
 9 H  s               3.6       3.6       0.2       0.1       0.0       0.2
 9 H  py              0.1       0.0       0.0       0.0       0.0       0.1
10 H  s              11.3       0.4       0.7       0.1       0.1       1.5
10 H  px              0.1       0.0       0.0       0.0       0.0       0.4
11 H  s               1.7       9.7       0.0       0.2       0.0       0.2
12 H  s               4.1       2.6       3.9       0.0       0.5       0.9
12 H  pz              0.0       0.1       0.0       0.0       0.0       0.0
12 H  px              0.0       0.0       0.0       0.0       0.0       0.3
12 H  py              0.0       0.0       0.0       0.0       0.0       0.5
13 H  s               0.5      12.6       0.1       0.1       0.0       0.4
13 H  pz              0.0       0.0       0.1       0.0       0.0       0.1
13 H  px              0.0       0.0       0.0       0.0       0.0       0.4
13 H  py              0.0       0.1       0.0       0.1       0.0       0.1
14 H  s               0.3       0.1       0.0       0.2       0.1       1.4
14 H  px              0.0       0.0       0.0       0.0       0.0       0.4
14 H  py              0.0       0.0       0.0       0.0       0.0       0.4
15 H  s               0.1       0.0       0.0       0.7       3.0       1.9
15 H  pz              0.0       0.0       0.0       0.1       0.0       0.4
15 H  px              0.0       0.0       0.0       0.0       0.1       0.1
15 H  py              0.0       0.0       0.0       0.0       0.1       0.4
16 H  s               0.5       0.0       0.0       0.4       3.8       2.4
16 H  pz              0.0       0.0       0.0       0.0       0.2       0.8
16 H  px              0.0       0.0       0.0       0.1       0.0       0.3

                     30        31        32        33        34        35   
                   0.09603   0.11260   0.11954   0.13231   0.13911   0.15706
                   0.00000   0.00000   0.00000   0.00000   0.00000   0.00000
                  --------  --------  --------  --------  --------  --------
 0 C  s               3.9       2.1      17.2       7.1       0.0       0.1
 0 C  pz              0.7       2.3       7.1       6.9       2.3       0.2
 0 C  px              0.0       4.8       1.9       1.6       0.3       4.5
 0 C  py              2.1       1.1       0.2       7.4       3.5       5.8
 0 C  dz2             0.0       0.1       0.0       0.1       0.2       0.1
 0 C  dxz             0.0       0.3       0.4       0.1       0.0       0.0
 0 C  dyz             0.5       0.3       0.0       0.6       0.1       0.1
 0 C  dx2y2           0.0       0.3       0.1       0.2       0.1       0.1
 0 C  dxy             0.0       0.0       0.0       0.2       0.0       0.6
 1 C  s               7.3      12.2       0.2       6.3       0.1       2.8
 1 C  pz              1.1       0.7       9.3       1.7       1.4       0.3
 1 C  px              1.2       8.8       3.1       4.3       0.5       8.6
 1 C  py              0.3       3.3       2.5       6.9       5.3       3.0
 1 C  dz2             0.2       0.2       0.0       0.0       0.1       0.0
 1 C  dxz             0.0       0.2       0.6       0.9       0.0       1.0
 1 C  dyz             0.1       0.0       0.9       0.5       0.1       0.5
 1 C  dx2y2           0.5       0.1       0.1       0.2       0.4       0.2
 1 C  dxy             0.0       0.2       0.0       0.1       0.1       0.3
 2 C  s               8.4       1.2       7.5       3.1       0.0       0.1
 2 C  pz              8.0       6.6      10.4       9.8       0.3       2.2
 2 C  px             15.1       1.7       2.7       4.3       0.3       2.1
 2 C  py              1.5       1.6       2.7       0.7      13.3       0.3
 2 C  dz2             0.0       0.0       0.0       0.5       0.0       0.0
 2 C  dxz             1.4       0.0       0.1       0.7       0.0       0.1
 2 C  dyz             0.0       0.6       0.0       0.0       0.7       0.1
 2 C  dx2y2           0.3       0.9       0.0       0.1       0.3       0.3
 2 C  dxy             0.3       0.0       0.3       0.0       0.0       0.1
 3 O  s               3.2       0.7       0.2       0.0       0.1       0.5
 3 O  pz              3.6       0.0       0.4       0.4       0.0       0.7
 3 O  px              2.4       2.1       0.2       0.2       0.1       0.1
 3 O  py              0.9       0.1       0.0       0.0       1.0       1.3
 3 O  dz2             0.0       1.1       0.0       0.8       0.3       0.9
 3 O  dxz             5.4       0.9       0.8       1.3       0.2       0.1
 3 O  dyz             0.4       0.6       0.0       0.0       0.9       1.9
 3 O  dx2y2           0.9       0.1       0.6       0.3       1.0       0.0
 3 O  dxy             0.7       0.2       0.1       0.0       3.4       0.6
 4 C  s               1.3       2.0       0.1       0.2       5.0       1.4
 4 C  pz              0.4       0.0       5.6       1.5       1.9       0.5
 4 C  px              0.0       2.6       0.5       0.4       1.1       0.1
 4 C  py              1.2       0.4       0.1       0.1       3.1       8.0
 4 C  dz2             0.1       0.1       0.0       0.0       0.1       0.0
 4 C  dxz             0.1       0.0       0.0       0.0       0.3       0.0
 4 C  dyz             0.1       0.1       0.0       0.0       0.1       0.1
 4 C  dx2y2           0.7       0.4       0.0       0.0       0.0       0.2
 4 C  dxy             0.0       0.0       0.0       0.0       0.0       0.1
 5 O  s               0.4       0.3       0.2       0.0       0.6       2.0
 5 O  pz              0.3       0.0       0.6       0.3       0.1       0.2
 5 O  px              0.0       1.3       0.0       0.1       0.2       1.2
 5 O  py              0.3       0.1       0.0       0.0       0.1       1.1
 5 O  dz2             0.1       1.0       0.3       0.3       0.0       0.0
 5 O  dxz             0.1       0.1       0.4       0.0       0.0       0.6
 5 O  dyz             0.1       0.1       0.0       0.0       0.3       0.0
 5 O  dx2y2           0.1       0.2       0.1       0.2       0.2       1.3
 5 O  dxy             0.2       0.1       0.1       0.0       0.7       0.1
 6 C  s               0.4       9.1       0.1       9.2       0.9       1.9
 6 C  pz              0.4       0.5       1.1       1.4       6.6       2.1
 6 C  px              0.8       0.1       0.4       1.8      18.4       4.6
 6 C  py              1.1       1.2       0.1       0.6       1.6       6.2
 6 C  dz2             0.1       0.1       0.0       0.0       0.0       0.2
 6 C  dxz             0.4       0.4       0.0       0.0       1.1       0.5
 6 C  dyz             0.0       0.0       0.0       0.0       0.2       0.0
 6 C  dx2y2           0.1       0.1       0.0       0.0       0.4       0.2
 6 C  dxy             0.2       0.1       0.0       0.0       0.9       0.2
 7 H  s               0.5       2.8       1.2       0.3       0.1       1.6
 7 H  pz              0.0       0.1       0.1       0.7       0.0       0.0
 7 H  px              0.2       0.7       0.6       0.2       0.0       0.1
 7 H  py              0.2       0.3       0.1       0.3       0.1       0.1
 8 H  s               0.7       0.1       3.7       0.3       0.2       0.1
 8 H  pz              0.0       0.2       1.3       0.2       0.1       0.0
 8 H  px              0.3       0.0       1.0       0.0       0.1       0.2
[...]
 2 C  pz              0.8       0.2       0.1       2.9       0.6       0.1
 2 C  px              0.1       0.5       0.2       4.7       1.3       0.3
 2 C  py              3.9       6.1       1.9       0.2       0.3       0.0
 2 C  dz2             1.0       2.8       1.0       0.2       0.0       0.0
 2 C  dxz             0.0       0.0       0.0       5.9       1.3       0.2
 2 C  dyz             4.5       4.1       4.2       1.2       0.0       0.0
 2 C  dx2y2           0.1       2.1       1.4       3.8       1.5       0.2
 2 C  dxy             0.4       0.6       0.5       1.5       0.3       0.2
 3 O  s               0.1       0.8       4.1      25.6       5.5       1.2
 3 O  pz              0.1       0.1       0.1       3.1       5.1       0.2
 3 O  px              0.0       0.1       0.1       7.1      19.0       0.4
 3 O  py              0.2       1.7       5.6       4.6       6.3       0.2
 3 O  dz2             0.7       0.7       0.9       2.0       3.0       0.1
 3 O  dxz             0.2       0.1       0.3      17.2       0.2       1.5
 3 O  dyz             0.4       0.9       0.3       0.1       4.7       0.1
 3 O  dx2y2           0.0       2.2       7.1       6.1       1.0       0.5
 3 O  dxy             0.0       0.0       0.0       0.0      21.9       0.1
 4 C  s               0.0       0.4       0.6       0.4       2.6       5.6
 4 C  pz              0.0       0.0       0.1       0.1       0.6       0.4
 4 C  px              0.1       0.0       0.3       0.4       3.1       0.1
 4 C  py              0.0       0.1       0.6       1.1       3.4       7.0
 4 C  dz2             0.0       0.3       0.3       0.1       1.3       1.3
 4 C  dxz             0.0       1.1       3.2       0.1       0.4       0.0
 4 C  dyz             0.0       0.1       0.5       0.4       2.0       0.9
 4 C  dx2y2           0.0       1.5       5.4       0.0       0.1       4.3
 4 C  dxy             0.1       1.6       2.9       1.3       9.0       0.1
 5 O  s               0.6       0.1       4.2       0.9       0.4      18.9
 5 O  pz              0.2       0.2       1.7       0.0       0.1       1.1
 5 O  px              0.1       0.8       6.9       0.0       0.2       0.1
 5 O  py              0.1       0.6       1.2       0.9       0.1      20.3
 5 O  dz2             0.0       0.2       1.0       0.4       0.0       5.8
 5 O  dxz             0.0       0.0       0.0       0.0       0.7       0.0
 5 O  dyz             0.1       1.0       3.8       0.1       0.4       4.9
 5 O  dx2y2           0.1       0.4       0.1       1.9       0.1      21.8
 5 O  dxy             0.1       3.9      14.8       0.0       1.0       0.9
 6 C  pz              0.0       0.3       0.2       0.0       0.0       0.0
 6 C  px              0.1       0.6       1.3       0.0       0.1       0.0
 6 C  py              0.1       0.1       0.1       0.0       0.0       0.1
 6 C  dz2             0.1       0.1       0.3       0.0       0.1       0.1
 6 C  dxz             0.0       0.1       0.4       0.0       0.0       0.1
 6 C  dyz             0.0       0.1       0.5       0.0       0.0       0.0
 6 C  dx2y2           0.0       0.1       0.5       0.0       0.0       0.0
 6 C  dxy             0.2       1.7       2.1       0.1       0.2       0.1
 7 H  s               1.4       0.3       0.0       0.0       0.0       0.0
 7 H  pz              1.1       0.1       0.0       0.0       0.0       0.0
 7 H  px              2.3       0.5       0.0       0.0       0.0       0.0
 8 H  s               0.6       1.0       0.1       0.0       0.0       0.0
 8 H  pz              0.4       1.9       0.1       0.0       0.0       0.0
 8 H  px              1.2       0.9       0.1       0.0       0.0       0.0
 9 H  s               4.2       0.0       0.0       0.0       0.0       0.0
 9 H  pz              0.7       0.0       0.0       0.0       0.0       0.0
 9 H  px              0.2       0.1       0.0       0.0       0.0       0.0
 9 H  py              9.6       0.1       0.1       0.0       0.0       0.0
10 H  s               2.0       2.3       0.3       0.0       0.0       0.0
10 H  pz              2.2       1.2       0.1       0.0       0.0       0.0
10 H  px              2.6       3.8       0.4       0.1       0.0       0.0
10 H  py              0.1       0.1       0.1       0.0       0.0       0.0
11 H  s               3.3       2.2       0.6       0.0       0.0       0.0
11 H  pz              0.6       0.2       0.1       0.0       0.0       0.0
11 H  py              7.4       5.3       1.6       0.0       0.0       0.0
12 H  s               2.7       2.2       1.2       0.5       0.0       0.0
12 H  pz              4.9       3.0       2.0       0.2       0.0       0.0
12 H  px              0.1       0.1       0.1       0.4       0.0       0.0
12 H  py              1.3       1.1       0.7       0.8       0.1       0.0
13 H  s               1.7       4.5       1.3       0.2       0.2       0.0
13 H  pz              0.6       2.5       0.1       0.0       0.0       0.0
13 H  px              0.1       0.0       1.4       0.2       0.1       0.0
13 H  py              3.1       8.8       3.3       0.4       0.3       0.0
14 H  s               0.1       0.7       0.9       0.0       0.1       0.1
14 H  px              0.1       0.5       0.6       0.0       0.0       0.0
14 H  py              0.2       0.8       0.8       0.0       0.0       0.1

                    186       187       188       189       190       191   
                  21.90764  21.93398  22.00670  22.09339  22.23400  43.68504
                   0.00000   0.00000   0.00000   0.00000   0.00000   0.00000
                  --------  --------  --------  --------  --------  --------
 0 C  s              27.1      38.3      33.5       0.8       0.0       0.0
 1 C  s              20.3       9.5      60.7       8.3       0.9       0.0
 2 C  s              11.1       0.0       2.4      86.0       0.2       0.0
 3 O  s               0.0       0.0       0.0       0.1       0.1       0.1
 4 C  s               0.0       0.3       0.7       0.3      97.8       0.0
 5 O  s               0.0       0.0       0.0       0.0       0.2      99.9
 5 O  py              0.0       0.0       0.0       0.0       0.1       0.0
 6 C  s              41.2      51.6       2.5       4.2       0.2       0.0

                    192   
                  43.75170
                   0.00000
                  --------
 3 O  s              99.9


                      *****************************
                      * MAYER POPULATION ANALYSIS *
                      *****************************

  NA   - Mulliken gross atomic population
  ZA   - Total nuclear charge
  QA   - Mulliken gross atomic charge
  VA   - Mayer's total valence
  BVA  - Mayer's bonded valence
  FA   - Mayer's free valence

  ATOM       NA         ZA         QA         VA         BVA        FA
  0 C      6.4592     6.0000    -0.4592     3.7837     3.7837     0.0000
  1 C      6.2450     6.0000    -0.2450     3.7260     3.7260     0.0000
  2 C      6.1908     6.0000    -0.1908     3.6238     3.6238    -0.0000
  3 O      8.1698     8.0000    -0.1698     1.8765     1.8765     0.0000
  4 C      5.5618     6.0000     0.4382     3.7746     3.7746    -0.0000
  5 O      8.4375     8.0000    -0.4375     1.9479     1.9479     0.0000
  6 C      6.5167     6.0000    -0.5167     3.8752     3.8752    -0.0000
  7 H      0.8519     1.0000     0.1481     0.9616     0.9616    -0.0000
  8 H      0.8535     1.0000     0.1465     0.9653     0.9653     0.0000
  9 H      0.8457     1.0000     0.1543     0.9624     0.9624     0.0000
 10 H      0.8591     1.0000     0.1409     0.9625     0.9625    -0.0000
 11 H      0.8524     1.0000     0.1476     0.9618     0.9618     0.0000
 12 H      0.8536     1.0000     0.1464     0.9539     0.9539    -0.0000
 13 H      0.8144     1.0000     0.1856     0.9568     0.9568    -0.0000
 14 H      0.8226     1.0000     0.1774     0.9588     0.9588    -0.0000
 15 H      0.8334     1.0000     0.1666     0.9594     0.9594    -0.0000
 16 H      0.8326     1.0000     0.1674     0.9585     0.9585    -0.0000

  Mayer bond orders larger than 0.100000
B(  0-C ,  1-C ) :   0.8951 B(  0-C ,  7-H ) :   0.9724 B(  0-C ,  8-H ) :   0.9763 
B(  0-C ,  9-H ) :   0.9735 B(  1-C ,  2-C ) :   0.9514 B(  1-C , 10-H ) :   0.9665 
B(  1-C , 11-H ) :   0.9807 B(  2-C ,  3-O ) :   0.7856 B(  2-C , 12-H ) :   0.9584 
B(  2-C , 13-H ) :   0.9701 B(  3-O ,  4-C ) :   1.0505 B(  4-C ,  5-O ) :   1.8367 
B(  4-C ,  6-C ) :   0.9615 B(  6-C , 14-H ) :   0.9906 B(  6-C , 15-H ) :   0.9571 
B(  6-C , 16-H ) :   0.9439 

-------
TIMINGS
-------

Total SCF time: 0 days 0 hours 0 min 18 sec 

Total time                  ....      18.149 sec
Sum of individual times     ....      17.624 sec  ( 97.1%)

SCF preparation             ....       0.181 sec  (  1.0%)
Fock matrix formation       ....      16.565 sec  ( 91.3%)
  Startup                   ....       0.039 sec  (  0.2% of F)
  Split-RI-J                ....       2.905 sec  ( 17.5% of F)
  XC integration            ....      13.121 sec  ( 79.2% of F)
    XC Preparation          ....       0.000 sec  (  0.0% of XC)
    Basis function eval.    ....       2.370 sec  ( 18.1% of XC)
    Density eval.           ....       3.691 sec  ( 28.1% of XC)
    XC-Functional eval.     ....       1.816 sec  ( 13.8% of XC)
    XC-Potential eval.      ....       4.240 sec  ( 32.3% of XC)
Diagonalization             ....       0.000 sec  (  0.0%)
Density matrix formation    ....       0.259 sec  (  1.4%)
Total Energy calculation    ....       0.030 sec  (  0.2%)
Population analysis         ....       0.098 sec  (  0.5%)
Orbital Transformation      ....       0.054 sec  (  0.3%)
Orbital Orthonormalization  ....       0.000 sec  (  0.0%)
DIIS solution               ....       0.408 sec  (  2.3%)
  MO trafo                  ....       0.000 sec  (  0.0 % of DIIS)
  Orb grad                  ....       0.000 sec  (  0.0 % of DIIS)
  Energy W gradient         ....       0.000 sec  (  0.0 % of DIIS)
  DIIS error                ....       0.010 sec  (  2.6 % of DIIS)
  DIIS work                 ....       0.348 sec  ( 85.2 % of DIIS)
  Form Q                    ....       0.000 sec  (  0.0 % of DIIS)
  Form QpQm                 ....       0.000 sec  (  0.0 % of DIIS)
  Exp/Cayley                ....       0.000 sec  (  0.0 % of DIIS)
  Orb update                ....       0.000 sec  (  0.0 % of DIIS)
  Wake-sleep                ....       0.021 sec  (  5.0 % of DIIS)
SOSCF solution              ....       0.028 sec  (  0.2%)
  MO trafo                  ....       0.028 sec  ( 99.7 % of SOSCF)
  Orb grad                  ....       0.000 sec  (  0.0 % of SOSCF)
  Rot update                ....       0.000 sec  (  0.0 % of SOSCF)
  Step                      ....       0.000 sec  (  0.0 % of SOSCF)
Finished LeanSCF after  18.2 sec

Maximum memory used throughout the entire LEANSCF-calculation: 20.2 MB


-------------------------------------------------------------------------------
                          DFT DISPERSION CORRECTION                            
                                                                               
                                DFTD4 V3.4.0                                   
-------------------------------------------------------------------------------
The R2SCAN3C composite method is recognized
Using three-body term ABC
Active option DFTDOPT                   ...         5   

-------------------------   ----------------
Dispersion correction           -0.004117084
-------------------------   ----------------

------------------   -----------------
gCP correction             0.010506306
------------------   -----------------

-------------------------   --------------------
FINAL SINGLE POINT ENERGY      -346.936580170978
-------------------------   --------------------


------------------------------------------------------------------------------
                              ORCA PROPERTY CALCULATIONS
------------------------------------------------------------------------------

GBWName                                 ... sp_gas.gbw
Number of atoms                         ...     17
Number of basis functions               ...    193
Max core memory                         ...   1024 MB

Electric properties:
Dipole moment                           ... YES
Quadrupole moment                       ...  NO
Static polarizability (Dipole/Dipole)   ...  NO
Static polarizability (Dipole/Quad.)    ...  NO
Static polarizability (Quad./Quad.)     ...  NO
Static polarizability (Velocity)        ...  NO

Atomic electric properties:
Dipole moment                           ...  NO
Quadrupole moment                       ...  NO
Static polarizability                   ...  NO

Choice of electric origin               ... Center of mass
Position of electric origin             ...    -0.000020     0.000008    -0.000009

General magnetic properties:
Magnetizability                         ...  NO

EPR properties:
g-Tensor (aka g-matrix)                 ...  NO
Zero-Field splitting spin-orbit         ...  NO
Zero-field splitting spin-spin          ...  NO
Hyperfine couplings                     ...  NO (   0 nuclei)
Quadrupole couplings                    ...  NO (   0 nuclei)
Contact density                         ...  NO (   0 nuclei)

NMR properties:
Chemical shifts                         ...  NO (   0 nuclei)
Spin-rotation constants                 ...  NO (   0 nuclei)
Spin-spin couplings                     ...  NO (   0 nuclei,    0 pairs)

Choice of magnetic origin               ... GIAO
Position of magnetic origin             ...     0.000000     0.000000     0.000000

Properties with geometric perturbations:
SCF Hessian                             ...  NO
IR spectrum                             ...  NO
VCD spectrum                            ...  NO
X-ray spectroscopy properties:
SCF XES/XAS/RIXS spectra                ...  NO


-------------
DIPOLE MOMENT
-------------

Method             : SCF
Type of density    : Electron Density
Multiplicity       :   1
Irrep              :   0
Energy             :  -346.9429693928597089 Eh
Relativity type    : 
Basis              : AO
                                X                 Y                 Z
Electronic contribution:      4.631062975      -1.020330956       2.425553322
Nuclear contribution   :     -4.911616232       1.809133859      -2.518922909
                        -----------------------------------------
Total Dipole Moment    :     -0.280553256       0.788802903      -0.093369586
                        -----------------------------------------
Magnitude (a.u.)       :      0.842400160
Magnitude (Debye)      :      2.141211041



--------------------
Rotational spectrum 
--------------------
 
Rotational constants in cm-1:             0.157084             0.052624             0.050341 
Rotational constants in MHz :          4709.265153          1577.625249          1509.177713 

Dipole components along the rotational axes: 
x,y,z [a.u.] :     0.330620     0.583051    -0.510275 
x,y,z [Debye]:     0.840368     1.481997    -1.297016 

 

Dipole moment calculation done in   0.0 sec 

Maximum memory used throughout the entire PROP-calculation: 11.5 MB

--------------------------------
SUGGESTED CITATIONS FOR THIS RUN
--------------------------------

Below you find a list of papers that are relevant to this ORCA run
We neither can nor want to force you to cite these papers, but we appreciate if you do
You receive ORCA, which is the product of decades of hard work by many enthusiastic individuals, for free
The only thing we kindly ask in return is that you cite our papers,
We deeply appreciate it, if you show your appreciation for ORCA by not just citing the generic ORCA reference.

Please note that relegating all ORCA citations to the supporting information does *not* help us.
SI sections are not indexed - citations you put there will not count into any citation statistics
But we need these citations in order to attract the funding resources that allow us to do what we are doing

Therefore, if you are a happy ORCA user, please consider citing a few of the papers listed below in the main body of your paper

In addition to the list printed below, the program has created the file sp_gas.bibtex that contains the list in bibtex format
You can import this file easily into all common literature databanks and citation aid programs


List of essential papers. We consider these as the minimum necessary citations

  1. Neese,F.
     Software update: the ORCA program system, version 5.0
     WIRES Comput. Molec. Sci., 2022 12(1)e1606
     doi.org/10.1002/wcms.1606
  2. Grimme,S.; Hansen,A.; Ehlert,S.; Mewes,J.
     r2SCAN-3c: A 'Swiss army knife' composite electronic-structure method
     J. Chem. Phys., 2021 154 064103
     doi.org/10.1063/5.0040021

List of papers to cite with high priority. The work reported in these papers was absolutely
necessary for this run to complete.
Our perspective: the developers of density functionals and basis sets usually get cited in chemistry papers
Good! But without the algorithms to do something with them, the functionals or basis sets would not do anything.
Hence, in our opinion, the algorithm design and method developments papers are equally worthy of getting cited

  1. Neese,F.
     An improvement of the resolution of the identity approximation for the formation of the Coulomb matrix
     J. Comp. Chem., 2003 24(14)1740-1747
     doi.org/10.1002/jcc.10318
  2. Neese,F.
     The SHARK Integral Generation and Digestion System
     J. Comp. Chem., 2022  1-16
     doi.org/10.1002/jcc.26942
  3. Lehtola,S.; Steigemann,C.; Oliveira,M.; Marques,M.
     Recent developments in Libxc - A comprehensive library of functionals for density functional theory
     Software X, 2018 7 
     doi.org/10.1016/j.softx.2017.11.002
  4. Caldeweyher,E.; Bannwarth,C.; Grimme,S.
     Extension of the D3 dispersion coefficient model
     J. Chem. Phys., 2017 147 034112-XXXX
     doi.org/10.1063/1.4993215
  5. Caldeweyher,E.; Ehlert,S.; Hansen,A.; Neugebauer,H.; Spicher,S.; Bannwarth,C.; Grimme,S.
     A generally applicable atomic-charge dependent London dispersion correction
     J. Chem. Phys., 2019 150 154122-XXXX
     doi.org/10.1063/1.5090222
  6. Caldeweyher,E.; Mewes,J.; Ehlert,S.; Grimme,S.
     Extension and evaluation of the D4 London-dispersion model for periodic systems
     Phys. Chem. Chem. Phys., 2020 22(16)8499-8512
     doi.org/10.1039/D0CP00502A

List of suggested additional citations. These are papers that are important in the 'surrounding' of 
of this run, or papers that preceded the highly important papers. If you like your results we are grateful for a citation.

  1. Neese,F.
     The ORCA program system
     WIRES Comput. Molec. Sci., 2012 2(1)73-78
     doi.org/10.1002/wcms.81
  2. Neese,F.
     Software update: the ORCA program system, version 4.0
     WIRES Comput. Molec. Sci., 2018 8(1)1-6
     doi.org/10.1002/wcms.1327
  3. Neese,F.; Wennmohs,F.; Becker,U.; Riplinger,C.
     The ORCA quantum chemistry program package
     J. Chem. Phys., 2020 152 Art. No. L224108
     doi.org/10.1063/5.0004608

List of optional additional citations

  1. Neese,F.
     Approximate second-order SCF convergence for spin unrestricted wavefunctions
     Chem. Phys. Lett., 2000 325(1-3)93-98
     doi.org/10.1016/s0009-2614(00)00662-x

Timings for individual modules:

Sum of individual times          ...       19.686 sec (=   0.328 min)
Startup calculation              ...        1.061 sec (=   0.018 min)   5.4 %
SCF iterations                   ...       18.523 sec (=   0.309 min)  94.1 %
Property calculations            ...        0.102 sec (=   0.002 min)   0.5 %
                             ****ORCA TERMINATED NORMALLY****
TOTAL RUN TIME: 0 days 0 hours 0 minutes 20 seconds 352 msec
