
                                 *****************
                                 * O   R   C   A *
                                 *****************

                                            #,                                       
                                            ###                                      
                                            ####                                     
                                            #####                                    
                                            ######                                   
                                           ########,                                 
                                     ,,################,,,,,                         
                               ,,#################################,,                 
                          ,,##########################################,,             
                       ,#########################################, ''#####,          
                    ,#############################################,,   '####,        
                  ,##################################################,,,,####,       
                ,###########''''           ''''###############################       
              ,#####''   ,,,,##########,,,,          '''####'''          '####       
            ,##' ,,,,###########################,,,                        '##       
           ' ,,###''''                  '''############,,,                           
         ,,##''                                '''############,,,,        ,,,,,,###''
      ,#''                                            '''#######################'''  
     '                                                          ''''####''''         
             ,#######,   #######,   ,#######,      ##                                
            ,#'     '#,  ##    ##  ,#'     '#,    #''#        ,####,   ,####,        
            ##       ##  ##   ,#'  ##            #'  '#       #'       #'  '#        
            ##       ##  #######   ##           ,######,      #####,   #    #        
            '#,     ,#'  ##    ##  '#,     ,#' ,#      #,     #,   #   #,  ,#        
             '#######'   ##     ##  '#######'  #'      '#     '####' # '####'        



                #########################################################
                #                        -***-                          #
                #          Department of theory and spectroscopy        #
                #                                                       #
                #                      Frank Neese                      #
                #                                                       #
                #     Directorship, Architecture, Infrastructure        #
                #                    SHARK, DRIVERS                     #
                #        Core code/Algorithms in most modules           #
                #                                                       #
                #        Max Planck Institute fuer Kohlenforschung      #
                #                Kaiser Wilhelm Platz 1                 #
                #                 D-45470 Muelheim/Ruhr                 #
                #                      Germany                          #
                #                                                       #
                #                  All rights reserved                  #
                #                        -***-                          #
                #########################################################


                         Program Version 6.0.0  -   RELEASE  -


 With contributions from (in alphabetic order):
   Daniel Aravena         : Magnetic Suceptibility
   Michael Atanasov       : Ab Initio Ligand Field Theory (pilot matlab implementation)
   Alexander A. Auer      : GIAO ZORA, VPT2 properties, NMR spectrum
   Ute Becker             : All parallelization in ORCA, NUMFREQ, NUMCALC
   Giovanni Bistoni       : ED, misc. LED, open-shell LED, HFLD
   Martin Brehm           : Molecular dynamics
   Dmytro Bykov           : pre 5.0 version of the SCF Hessian
   Marcos Casanova-Páez   : Triplet and SCS-CIS(D). UHF-(DLPNO)-IP/EA/STEOM-CCSD. UHF-CVS-IP/STEOM-CCSD
   Vijay G. Chilkuri      : MRCI spin determinant printing, contributions to CSF-ICE
   Pauline Colinet        : FMM embedding
   Dipayan Datta          : RHF DLPNO-CCSD density
   Achintya Kumar Dutta   : EOM-CC, STEOM-CC
   Nicolas Foglia         : Exact transition moments, OPA infrastructure, MCD improvements
   Dmitry Ganyushin       : Spin-Orbit,Spin-Spin,Magnetic field MRCI
   Miquel Garcia          : C-PCM and meta-GGA Hessian, CCSD/C-PCM, Gaussian charge scheme
   Tiago L. C. Gouveia    : GS-ROHF, GS-ROCIS
   Yang Guo               : DLPNO-NEVPT2, F12-NEVPT2, CIM, IAO-localization
   Andreas Hansen         : Spin unrestricted coupled pair/coupled cluster methods
   Ingolf Harden          : AUTO-CI MPn and infrastructure 
   Benjamin Helmich-Paris : MC-RPA, TRAH-(SCF,CASSCF), AVAS, COSX integrals, SCF dyn. polar.
   Lee Huntington         : MR-EOM, pCC
   Robert Izsak           : Overlap fitted RIJCOSX, COSX-SCS-MP3, EOM
   Riya Kayal             : Wick's Theorem for AUTO-CI, AUTO-CI UHF-CCSDT
   Emily Kempfer          : AUTO-CI, RHF CISDT and CCSDT
   Christian Kollmar      : KDIIS, OOCD, Brueckner-CCSD(T), CCSD density, CASPT2, CASPT2-K, improved NEVPT2
   Axel Koslowski         : Symmetry handling
   Simone Kossmann        : Meta GGA functionals, TD-DFT gradient, OOMP2, (MP2 Hessian; deprecated post 5.0)
   Lucas Lang             : DCDCAS
   Marvin Lechner         : AUTO-CI (C++ implementation), FIC-MRCC
   Spencer Leger          : CASSCF response
   Dagmar Lenk            : GEPOL surface, SMD, ORCA-2-JSON
   Dimitrios Liakos       : Extrapolation schemes; Compound Job, initial MDCI parallelization
   Dimitrios Manganas     : Further ROCIS development; embedding schemes. LFT, Crystal Embedding
   Dimitrios Pantazis     : SARC Basis sets
   Anastasios Papadopoulos: AUTO-CI, single reference methods and gradients
   Taras Petrenko         : pre 6.0 DFT Hessian and TD-DFT gradient, (ASA, deprecated), ECA, 1-Electron XAS/XES, NRVS
   Peter Pinski           : DLPNO-MP2, DLPNO-MP2 Gradient
   Christoph Reimann      : Effective Core Potentials
   Marius Retegan         : Local ZFS, SOC
   Christoph Riplinger    : Optimizer, TS searches, QM/MM, DLPNO-CCSD(T), (RO)-DLPNO pert. Triples
   Michael Roemelt        : Original ROCIS implementation
   Masaaki Saitow         : Open-shell DLPNO-CCSD energy and density
   Barbara Sandhoefer     : DKH picture change effects
   Kantharuban Sivalingam : CASSCF convergence/infrastructure, NEVPT2 and variants, FIC-MRCI
   Bernardo de Souza      : ESD, SOC TD-DFT
   Georgi Stoychev        : AutoAux, RI-MP2 NMR, DLPNO-MP2 response, X2C
   Van Anh Tran           : RI-MP2 g-tensors
   Willem Van den Heuvel  : Paramagnetic NMR
   Zikuan Wang            : NOTCH, Electric field optimization 
   Frank Wennmohs         : Technical directorship and infrastructure
   Hang Xu                : AUTO-CI-Response properties 


 We gratefully acknowledge several colleagues who have allowed us to
 interface, adapt or use parts of their codes:
   Stefan Grimme, W. Hujo, H. Kruse, P. Pracht,  : VdW corrections, initial TS optimization,
                  C. Bannwarth, S. Ehlert,         DFT functionals, gCP, sTDA/sTD-DF
                  L. Wittmann, M. Mueller
   Ed Valeev, F. Pavosevic, A. Kumar             : LibInt (2-el integral package), F12 methods
   Garnet Chan, S. Sharma, J. Yang, R. Olivares  : DMRG
   Ulf Ekstrom                                   : XCFun DFT Library
   Mihaly Kallay                                 : mrcc  (arbitrary order and MRCC methods)
   Frank Weinhold                                : gennbo (NPA and NBO analysis)
   Simon Mueller                                 : openCOSMO-RS
   Christopher J. Cramer and Donald G. Truhlar   : smd solvation model
   Lars Goerigk                                  : TD-DFT with DH, B97 family of functionals
   V. Asgeirsson, H. Jonsson                     : NEB implementation
   FAccTs GmbH                                   : IRC, NEB, NEB-TS, DLPNO-Multilevel, CI-OPT
                                                   MM, QMMM, 2- and 3-layer-ONIOM, Crystal-QMMM,
                                                   LR-CPCM, SF, NACMEs, symmetry and pop. for TD-DFT,
                                                   nearIR, NL-DFT gradient (VV10), updates on ESD,
                                                   ML-optimized integration grids, MBIS, APM,
                                                   GOAT, DOCKER, SOLVATOR, interface openCOSMO-RS
   S Lehtola, MJT Oliveira, MAL Marques          : LibXC Library
   Liviu Ungur et al                             : ANISO software


 Your calculation uses the libint2 library for the computation of 2-el integrals
 For citations please refer to: http://libint.valeyev.net

 Your ORCA version has been built with support for libXC version: 6.2.2
 For citations please refer to: https://libxc.gitlab.io

 This ORCA versions uses:
   CBLAS   interface :  Fast vector & matrix operations
   LAPACKE interface :  Fast linear algebra routines
   SCALAPACK package :  Parallel linear algebra routines
   Shared memory     :  Shared parallel matrices
   BLAS/LAPACK       :  OpenBLAS 0.3.27  USE64BITINT DYNAMIC_ARCH NO_AFFINITY SkylakeX SINGLE_THREADED
        Core in use  :  SkylakeX
   Copyright (c) 2011-2014, The OpenBLAS Project


Your calculation utilizes the geometrical counterpoise correction gCP
Please cite in your paper:
H.Kruse, S. Grimme J.Chem.Phys., 136, (2012), 154101 
   

Your calculation utilizes the atom-pairwise dispersion correction
based on EEQ partial charges (D4)


================================================================================

----- Orbital basis set information -----
Your calculation utilizes the basis: def2-SV(P)
   F. Weigend and R. Ahlrichs, Phys. Chem. Chem. Phys. 7, 3297 (2005).

----- AuxJ basis set information -----
Your calculation utilizes the auxiliary basis: def2/J
   F. Weigend, Phys. Chem. Chem. Phys. 8, 1057 (2006).

================================================================================
                                        WARNINGS
                       Please study these warnings very carefully!
================================================================================


================================================================================
                                       INPUT FILE
================================================================================
NAME = sp.inp
|  1> ! pbe def2-sv(p) def2/J RI DEFGRID1 loosescf d4 GCP(DFT/SV(P)) printgap
|  2> %output
|  3>     printlevel normal
|  4> end
|  5> * xyz 0 1
|  6> C -2.2526882385 1.091862493 0.2688833639
|  7> C -1.8277509914 -0.3604777809 0.0866974743
|  8> C -0.558841021 -0.5664759627 -0.7472369773
|  9> C 0.7807777267 -0.1491519559 -0.0871336654
| 10> C 1.0872901839 1.3360425496 -0.2971181399
| 11> C 1.9138920471 -0.975102259 -0.7143657877
| 12> O 0.7543151024 -0.3605317361 1.3204847131
| 13> H -3.2580302231 1.1335176117 0.6827039554
| 14> H -2.2506028505 1.6178704646 -0.6830834648
| 15> H -1.5878827894 1.6048924592 0.9579952157
| 16> H -1.6920894986 -0.8119596254 1.0709036838
| 17> H -2.6351244483 -0.8987584016 -0.4162717584
| 18> H -0.4989895109 -1.6327583594 -0.9814779149
| 19> H -0.6559171543 -0.0292439589 -1.6914560236
| 20> H 1.1332295349 1.562860249 -1.3576753606
| 21> H 2.0451606322 1.5721970468 0.1600445221
| 22> H 0.3296180127 1.9553160372 0.1683986285
| 23> H 1.7543776598 -2.0387901555 -0.5471650915
| 24> H 2.866462318 -0.6934679788 -0.2715306701
| 25> H 1.9577642884 -0.7963074048 -1.784719376
| 26> H 0.7345927291 -1.3113340716 1.4913440488
| 27> *
| 28> 
| 29>                          ****END OF INPUT****
================================================================================

                       ****************************
                       * Single Point Calculation *
                       ****************************

---------------------------------
CARTESIAN COORDINATES (ANGSTROEM)
---------------------------------
  C     -2.252688    1.091862    0.268883
  C     -1.827751   -0.360478    0.086697
  C     -0.558841   -0.566476   -0.747237
  C      0.780778   -0.149152   -0.087134
  C      1.087290    1.336043   -0.297118
  C      1.913892   -0.975102   -0.714366
  O      0.754315   -0.360532    1.320485
  H     -3.258030    1.133518    0.682704
  H     -2.250603    1.617870   -0.683083
  H     -1.587883    1.604892    0.957995
  H     -1.692089   -0.811960    1.070904
  H     -2.635124   -0.898758   -0.416272
  H     -0.498990   -1.632758   -0.981478
  H     -0.655917   -0.029244   -1.691456
  H      1.133230    1.562860   -1.357675
  H      2.045161    1.572197    0.160045
  H      0.329618    1.955316    0.168399
  H      1.754378   -2.038790   -0.547165
  H      2.866462   -0.693468   -0.271531
  H      1.957764   -0.796307   -1.784719
  H      0.734593   -1.311334    1.491344

----------------------------
CARTESIAN COORDINATES (A.U.)
----------------------------
  NO LB      ZA    FRAG     MASS         X           Y           Z
   0 C     6.0000    0    12.011   -4.256964    2.063321    0.508116
   1 C     6.0000    0    12.011   -3.453949   -0.681204    0.163834
   2 C     6.0000    0    12.011   -1.056056   -1.070484   -1.412073
   3 C     6.0000    0    12.011    1.475456   -0.281856   -0.164659
   4 C     6.0000    0    12.011    2.054681    2.524755   -0.561472
   5 C     6.0000    0    12.011    3.616732   -1.842676   -1.349956
   6 O     8.0000    0    15.999    1.425449   -0.681306    2.495354
   7 H     1.0000    0     1.008   -6.156785    2.142038    1.290124
   8 H     1.0000    0     1.008   -4.253023    3.057332   -1.290841
   9 H     1.0000    0     1.008   -3.000664    3.032807    1.810349
  10 H     1.0000    0     1.008   -3.197586   -1.534381    2.023715
  11 H     1.0000    0     1.008   -4.979664   -1.698407   -0.786640
  12 H     1.0000    0     1.008   -0.942954   -3.085466   -1.854724
  13 H     1.0000    0     1.008   -1.239504   -0.055263   -3.196389
  14 H     1.0000    0     1.008    2.141493    2.953378   -2.565635
  15 H     1.0000    0     1.008    3.864793    2.971022    0.302440
  16 H     1.0000    0     1.008    0.622888    3.695012    0.318227
  17 H     1.0000    0     1.008    3.315293   -3.852755   -1.033992
  18 H     1.0000    0     1.008    5.416829   -1.310465   -0.513119
  19 H     1.0000    0     1.008    3.699638   -1.504803   -3.372631
  20 H     1.0000    0     1.008    1.388179   -2.478062    2.818232

--------------------------------
INTERNAL COORDINATES (ANGSTROEM)
--------------------------------
 C      0   0   0     0.000000000000     0.00000000     0.00000000
 C      1   0   0     1.524157351960     0.00000000     0.00000000
 C      2   1   0     1.532323214420   115.08914212     0.00000000
 C      3   2   1     1.550636675118   116.58637724    71.55484013
 C      4   3   2     1.530962470186   112.06514806   274.02027389
 C      4   3   2     1.536086619150   108.58683354   154.13623258
 O      4   3   2     1.423647140781   111.40063192    33.18180330
 H      1   2   3     1.087977544282   109.85087414   168.04490476
 H      1   2   3     1.087625660774   110.83535670    48.23919825
 H      1   2   3     1.086297001590   110.80717277   287.08241629
 H      2   1   3     1.091284453917   108.72808757   123.10176471
 H      2   1   3     1.092966593529   108.56292039   239.93995866
 H      3   2   1     1.093347689265   107.03975486   192.33354697
 H      3   2   1     1.090684009674   109.34304472   308.42988857
 H      5   4   3     1.085512925354   110.19287042   301.37028594
 H      5   4   3     1.087328120579   109.23232555   181.46424076
 H      5   4   3     1.083638608170   110.82321410    62.43049370
 H      6   4   3     1.088500277320   110.77001487   299.56189523
 H      6   4   3     1.087571114993   109.91296496   179.55516778
 H      6   4   3     1.086070521390   110.10255403    59.63983939
 H      7   4   3     0.966233390955   108.74308602    68.40904327

---------------------------
INTERNAL COORDINATES (A.U.)
---------------------------
 C      0   0   0     0.000000000000     0.00000000     0.00000000
 C      1   0   0     2.880239980207     0.00000000     0.00000000
 C      2   1   0     2.895671223904   115.08914212     0.00000000
 C      3   2   1     2.930278649188   116.58637724    71.55484013
 C      4   3   2     2.893099789963   112.06514806   274.02027389
 C      4   3   2     2.902783028174   108.58683354   154.13623258
 O      4   3   2     2.690303207416   111.40063192    33.18180330
 H      1   2   3     2.055979598550   109.85087414   168.04490476
 H      1   2   3     2.055314635089   110.83535670    48.23919825
 H      1   2   3     2.052803833105   110.80717277   287.08241629
 H      2   1   3     2.062228752108   108.72808757   123.10176471
 H      2   1   3     2.065407535295   108.56292039   239.93995866
 H      3   2   1     2.066127701867   107.03975486   192.33354697
 H      3   2   1     2.061094076931   109.34304472   308.42988857
 H      5   4   3     2.051322143751   110.19287042   301.37028594
 H      5   4   3     2.054752365605   109.23232555   181.46424076
 H      5   4   3     2.047780197585   110.82321410    62.43049370
 H      6   4   3     2.056967420832   110.77001487   299.56189523
 H      6   4   3     2.055211558499   109.91296496   179.55516778
 H      6   4   3     2.052375847552   110.10255403    59.63983939
 H      7   4   3     1.825916490355   108.74308602    68.40904327

---------------------
BASIS SET INFORMATION
---------------------
There are 3 groups of distinct atoms

 Group   1 Type C   : 7s4p1d contracted to 3s2p1d pattern {511/31/1}
 Group   2 Type O   : 7s4p1d contracted to 3s2p1d pattern {511/31/1}
 Group   3 Type H   : 4s contracted to 2s pattern {31}

Atom   0C    basis set group =>   1
Atom   1C    basis set group =>   1
Atom   2C    basis set group =>   1
Atom   3C    basis set group =>   1
Atom   4C    basis set group =>   1
Atom   5C    basis set group =>   1
Atom   6O    basis set group =>   2
Atom   7H    basis set group =>   3
Atom   8H    basis set group =>   3
Atom   9H    basis set group =>   3
Atom  10H    basis set group =>   3
Atom  11H    basis set group =>   3
Atom  12H    basis set group =>   3
Atom  13H    basis set group =>   3
Atom  14H    basis set group =>   3
Atom  15H    basis set group =>   3
Atom  16H    basis set group =>   3
Atom  17H    basis set group =>   3
Atom  18H    basis set group =>   3
Atom  19H    basis set group =>   3
Atom  20H    basis set group =>   3
---------------------------------
AUXILIARY/J BASIS SET INFORMATION
---------------------------------
There are 3 groups of distinct atoms

 Group   1 Type C   : 12s5p4d2f1g contracted to 6s4p3d1f1g pattern {711111/2111/211/2/1}
 Group   2 Type O   : 12s5p4d2f1g contracted to 6s4p3d1f1g pattern {711111/2111/211/2/1}
 Group   3 Type H   : 5s2p1d contracted to 3s1p1d pattern {311/2/1}

Atom   0C    basis set group =>   1
Atom   1C    basis set group =>   1
Atom   2C    basis set group =>   1
Atom   3C    basis set group =>   1
Atom   4C    basis set group =>   1
Atom   5C    basis set group =>   1
Atom   6O    basis set group =>   2
Atom   7H    basis set group =>   3
Atom   8H    basis set group =>   3
Atom   9H    basis set group =>   3
Atom  10H    basis set group =>   3
Atom  11H    basis set group =>   3
Atom  12H    basis set group =>   3
Atom  13H    basis set group =>   3
Atom  14H    basis set group =>   3
Atom  15H    basis set group =>   3
Atom  16H    basis set group =>   3
Atom  17H    basis set group =>   3
Atom  18H    basis set group =>   3
Atom  19H    basis set group =>   3
Atom  20H    basis set group =>   3
------------------------------------------------------------------------------
                             ORCA STARTUP CALCULATIONS
                           -- RI-GTO INTEGRALS CHOSEN --
------------------------------------------------------------------------------
------------------------------------------------------------------------------
                   ___                                                        
                  /   \      - P O W E R E D   B Y -                         
                 /     \                                                     
                 |  |  |   _    _      __       _____    __    __             
                 |  |  |  | |  | |    /  \     |  _  \  |  |  /  |          
                  \  \/   | |  | |   /    \    | | | |  |  | /  /          
                 / \  \   | |__| |  /  /\  \   | |_| |  |  |/  /          
                |  |  |   |  __  | /  /__\  \  |    /   |      \           
                |  |  |   | |  | | |   __   |  |    \   |  |\   \          
                \     /   | |  | | |  |  |  |  | |\  \  |  | \   \       
                 \___/    |_|  |_| |__|  |__|  |_| \__\ |__|  \__/        
                                                                              
                      - O R C A' S   B I G   F R I E N D -                    
                                      &                                       
                       - I N T E G R A L  F E E D E R -                       
                                                                              
 v1 FN, 2020, v2 2021, v3 2022-2024                                           
------------------------------------------------------------------------------


----------------------
SHARK INTEGRAL PACKAGE
----------------------

Number of atoms                             ...     21
Number of basis functions                   ...    126
Number of shells                            ...     70
Maximum angular momentum                    ...      2
Integral batch strategy                     ... SHARK/LIBINT Hybrid
RI-J (if used) integral strategy            ... SPLIT-RIJ (Revised 2003 algorithm where possible)
Printlevel                                  ...      1
Contraction scheme used                     ... SEGMENTED contraction
Prescreening option                         ... SCHWARTZ
   Thresh                                   ... 1.000e-09
   Tcut                                     ... 1.000e-10
   Tpresel                                  ... 1.000e-10 
Coulomb Range Separation                    ... NOT USED
Exchange Range Separation                   ... NOT USED
Multipole approximations                    ... NOT USED
Finite Nucleus Model                        ... NOT USED
CABS basis                                  ... NOT available
Auxiliary Coulomb fitting basis             ... AVAILABLE
   # of basis functions in Aux-J            ...    497
   # of shells in Aux-J                     ...    175
   Maximum angular momentum in Aux-J        ...      4
Auxiliary J/K fitting basis                 ... NOT available
Auxiliary Correlation fitting basis         ... NOT available
Auxiliary 'external' fitting basis          ... NOT available

Checking pre-screening integrals            ... done (  0.0 sec) Dimension = 70
Check shell pair data                       ... done (  0.0 sec)
Shell pair information
Shell pair cut-off parameter TPreSel        ...   1.0e-10
Total number of shell pairs                 ...      2485
Shell pairs after pre-screening             ...      2415
Total number of primitive shell pairs       ...     10003
Primitive shell pairs kept                  ...      7010
          la=0 lb=0:   1178 shell pairs
          la=1 lb=0:    679 shell pairs
          la=1 lb=1:    105 shell pairs
          la=2 lb=0:    328 shell pairs
          la=2 lb=1:     98 shell pairs
          la=2 lb=2:     27 shell pairs

Calculating one electron integrals          ... done (  0.0 sec)
Calculating RI/J V-Matrix + Cholesky decomp.... done (  0.1 sec)
Calculating Nuclear repulsion               ... done (  0.0 sec) ENN=    342.613833091431 Eh

Diagonalization of the overlap matrix:
Smallest eigenvalue                        ... 1.504e-03
Time for diagonalization                   ...    0.002 sec
Threshold for overlap eigenvalues          ... 1.000e-07
Number of eigenvalues below threshold      ... 0
Time for construction of square roots      ...    0.017 sec
Total time needed                          ...    0.027 sec

-------------------
DFT GRID GENERATION
-------------------

General Integration Accuracy     IntAcc      ... 4.159
Radial Grid Type                 RadialGrid  ... OptM3 with GC (2021)
Angular Grid (max. ang.)         AngularGrid ... 3 (Lebedev-194)
Angular grid pruning method      GridPruning ... 4 (adaptive)
Weight generation scheme         WeightScheme... mBecke (2022)
Basis function cutoff            BFCut       ... 1.0000e-10
Integration weight cutoff        WCut        ... 1.0000e-14
Partially contracted basis set               ... off
Rotationally invariant grid construction     ... off
Angular grids for H and He will be reduced by one unit

Total number of grid points                  ...    42188
Total number of batches                      ...      670
Average number of points per batch           ...       62
Average number of grid points per atom       ...     2009
Initializing property integral containers    ... done (  0.0 sec)

SHARK setup successfully completed in   0.7 seconds

Maximum memory used throughout the entire STARTUP-calculation: 20.5 MB
-------------------------------------------------------------------------------
                                 ORCA GUESS
                   Start orbitals & Density for SCF / CASSCF
-------------------------------------------------------------------------------

------------
SCF SETTINGS
------------
Hamiltonian:
 Density Functional     Method          .... DFT(GTOs)
 Exchange Functional    Exchange        .... PBE
   PBE kappa parameter   XKappa         ....  0.804000
   PBE mue parameter    XMuePBE         ....  0.219520
 Correlation Functional Correlation     .... PBE
   PBE beta parameter  CBetaPBE         ....  0.066725
 LDA part of GGA corr.  LDAOpt          .... PW91-LDA
 Gradients option       PostSCFGGA      .... off
   NL short-range parameter             ....  6.400000
 RI-approximation to the Coulomb term is turned on
   Number of AuxJ basis functions       .... 497


General Settings:
 Integral files         IntName         .... sp
 Hartree-Fock type      HFTyp           .... RHF
 Total Charge           Charge          ....    0
 Multiplicity           Mult            ....    1
 Number of Electrons    NEL             ....   58
 Basis Dimension        Dim             ....  126
 Nuclear Repulsion      ENuc            ....    342.6138330914 Eh

Convergence Acceleration:
 AO-DIIS                CNVDIIS         .... on
   Start iteration      DIISMaxIt       ....    12
   Startup error        DIISStart       ....  0.200000
   # of expansion vecs  DIISMaxEq       ....     5
   Bias factor          DIISBfac        ....   1.050
   Max. coefficient     DIISMaxC        ....  10.000
 MO-DIIS                CNVKDIIS        .... off
 Trust-Rad. Augm. Hess. CNVTRAH         .... auto
   Auto Start mean grad. ratio tolernc. ....  1.125000
   Auto Start start iteration           ....    50
   Auto Start num. interpolation iter.  ....    10
   Max. Number of Micro iterations      ....    24
   Max. Number of Macro iterations      .... Maxiter - #DIIS iter
   Number of Davidson start vectors     ....     2
   Converg. threshold    (grad. norm)   ....   1.000e-04
   Grad. Scal. Fac. for Micro threshold ....   0.100
   Minimum threshold for Micro iter.    ....   1.000e-02
   NR start threshold (gradient norm)   ....   1.000e-04
   Initial trust radius                 ....   0.400
   Minimum AH scaling param. (alpha)    ....   1.000
   Maximum AH scaling param. (alpha)    .... 1000.000
   Quad. conv. algorithm                .... NR
   White noise on init. David. guess    .... on
   Maximum white noise                  ....   0.010
   Pseudo random numbers                .... off
   Inactive MOs                         .... canonical
   Orbital update algorithm             .... Taylor
   Preconditioner                       .... Diag
   Full preconditioner red. dimension   ....   250
 SOSCF                  CNVSOSCF        .... on
   Start iteration      SOSCFMaxIt      ....   150
   Startup grad/error   SOSCFStart      ....  0.003300
   Hessian update       SOSCFHessUp     .... L-BFGS
 Level Shifting         CNVShift        .... on
   Level shift para.    LevelShift      ....    0.2500
   Turn off err/grad.   ShiftErr        ....    0.0010
 Zerner damping         CNVZerner       .... off
 Static damping         CNVDamp         .... on
   Fraction old density DampFac         ....    0.7000
   Max. Damping (<1)    DampMax         ....    0.9800
   Min. Damping (>=0)   DampMin         ....    0.0000
   Turn off err/grad.   DampErr         ....    0.1000

SCF Procedure:
 Maximum # iterations   MaxIter         ....   125
 SCF integral mode      SCFMode         .... Direct
   Integral package                     .... SHARK and LIBINT hybrid scheme
 Reset frequency        DirectResetFreq ....    20
 Integral Threshold     Thresh          ....  1.000e-09 Eh
 Primitive CutOff       TCut            ....  1.000e-10 Eh

Convergence Tolerance:
 Convergence Check Mode ConvCheckMode   .... Total+1el-Energy
 Convergence forced     ConvForced      .... 0
 Energy Change          TolE            ....  1.000e-05 Eh
 1-El. energy change                    ....  1.000e-02 Eh
 Orbital Gradient       TolG            ....  1.000e-04
 Orbital Rotation angle TolX            ....  1.000e-04
 DIIS Error             TolErr          ....  5.000e-04

------------------------------
INITIAL GUESS: MODEL POTENTIAL
------------------------------
Loading Hartree-Fock densities                     ... done
Calculating cut-offs                               ... done
Initializing the effective Hamiltonian             ... done
Setting up the integral package (SHARK)            ... done
Starting the Coulomb interaction                   ... done (   0.1 sec)
Making the grid                                    ... done (   0.2 sec)
Mapping shells                                     ... done
Starting the XC term evaluation                    ... done (   0.2 sec)
  promolecular density results
     # of electrons  =     57.989102771
     EX              =    -42.987390765
     EC              =     -1.897427643
     EX+EC           =    -44.884818408
Transforming the Hamiltonian                       ... done (   0.0 sec)
Diagonalizing the Hamiltonian                      ... done (   0.0 sec)
Back transforming the eigenvectors                 ... done (   0.0 sec)
Now organizing SCF variables                       ... done
                      ------------------
                      INITIAL GUESS DONE (   0.5 sec)
                      ------------------
             **** ENERGY FILE WAS UPDATED (sp.en.tmp) ****
Finished Guess after   0.7 sec
Maximum memory used throughout the entire GUESS-calculation: 15.6 MB

-------------------------------------------------------------------------------------------
                                      ORCA LEAN-SCF
                              memory conserving SCF solver
-------------------------------------------------------------------------------------------

----------------------------------------D-I-I-S--------------------------------------------
Iteration    Energy (Eh)           Delta-E    RMSDP     MaxDP     DIISErr   Damp  Time(sec)
-------------------------------------------------------------------------------------------
               ***  Starting incremental Fock matrix formation  ***
    1    -311.3465199805513635     0.00e+00  5.26e-03  8.43e-02  2.41e-01  0.700   0.8
    2    -311.4721459505645385    -1.26e-01  3.66e-03  4.84e-02  9.37e-02  0.700   0.8
                               ***Turning on AO-DIIS***
    3    -311.5143336882164817    -4.22e-02  1.39e-03  1.55e-02  2.21e-02  0.700   0.8
    4    -311.5392329593274212    -2.49e-02  1.93e-03  2.49e-02  1.00e-02  0.000   0.8
    5    -311.5966355294549999    -5.74e-02  6.28e-04  6.77e-03  1.12e-02  0.000   0.8
                              *** Initializing SOSCF ***
---------------------------------------S-O-S-C-F--------------------------------------
Iteration    Energy (Eh)           Delta-E    RMSDP     MaxDP     MaxGrad    Time(sec)
--------------------------------------------------------------------------------------
    6    -311.5972975347868328    -6.62e-04  2.32e-04  2.43e-03  2.10e-03     0.8
               *** Restarting incremental Fock matrix formation ***
    7    -311.5973543113059918    -5.68e-05  1.72e-04  2.48e-03  2.99e-04     0.8
    8    -311.5973515934423972     2.72e-06  6.00e-05  1.38e-03  5.75e-04     0.7
                 **** Energy Check signals convergence ****

               *****************************************************
               *                     SUCCESS                       *
               *           SCF CONVERGED AFTER   8 CYCLES          *
               *****************************************************

             **** ENERGY FILE WAS UPDATED (sp.en.tmp) ****

----------------
TOTAL SCF ENERGY
----------------

Total Energy       :       -311.59735159344240 Eh           -8478.99500 eV

Components:
Nuclear Repulsion  :        342.61383309143133 Eh            9322.99637 eV
Electronic Energy  :       -654.21118468487373 Eh          -17801.99137 eV
One Electron Energy:      -1100.35177600281622 Eh          -29942.09405 eV
Two Electron Energy:        446.14059131794249 Eh           12140.10268 eV

Virial components:
Potential Energy   :       -620.47244939397319 Eh          -16883.91371 eV
Kinetic Energy     :        308.87509780053080 Eh            8404.91871 eV
Virial Ratio       :          2.00881344534505

DFT components:
N(Alpha)           :       29.000076740648 electrons
N(Beta)            :       29.000076740648 electrons
N(Total)           :       58.000153481296 electrons
E(X)               :      -44.057189796436 Eh       
E(C)               :       -1.908244752138 Eh       
E(XC)              :      -45.965434548574 Eh       

---------------
SCF CONVERGENCE
---------------

  Last Energy change         ...   -2.7179e-06  Tolerance :   1.0000e-05
  Last MAX-Density change    ...    1.3782e-03  Tolerance :   1.0000e-03
  Last RMS-Density change    ...    6.0032e-05  Tolerance :   1.0000e-04
  Last DIIS Error            ...    2.0953e-03  Tolerance :   5.0000e-04
  Last Orbital Gradient      ...    5.7491e-04  Tolerance :   1.0000e-04
  Last Orbital Rotation      ...    2.2359e-04  Tolerance :   1.0000e-04


----------------
ORBITAL ENERGIES
----------------

  NO   OCC          E(Eh)            E(eV) 
   0   2.0000     -18.739326      -509.9230 
   1   2.0000      -9.945714      -270.6366 
   2   2.0000      -9.878917      -268.8190 
   3   2.0000      -9.878626      -268.8111 
   4   2.0000      -9.874102      -268.6880 
   5   2.0000      -9.868132      -268.5255 
   6   2.0000      -9.866815      -268.4897 
   7   2.0000      -0.918165       -24.9845 
   8   2.0000      -0.718167       -19.5423 
   9   2.0000      -0.680178       -18.5086 
  10   2.0000      -0.617448       -16.8016 
  11   2.0000      -0.605540       -16.4776 
  12   2.0000      -0.526685       -14.3318 
  13   2.0000      -0.505635       -13.7590 
  14   2.0000      -0.429722       -11.6933 
  15   2.0000      -0.416722       -11.3396 
  16   2.0000      -0.406937       -11.0733 
  17   2.0000      -0.375957       -10.2303 
  18   2.0000      -0.374471       -10.1899 
  19   2.0000      -0.348492        -9.4830 
  20   2.0000      -0.338639        -9.2148 
  21   2.0000      -0.335708        -9.1351 
  22   2.0000      -0.326815        -8.8931 
  23   2.0000      -0.311819        -8.4850 
  24   2.0000      -0.292578        -7.9615 
  25   2.0000      -0.285033        -7.7562 
  26   2.0000      -0.274122        -7.4592 
  27   2.0000      -0.261086        -7.1045 
  28   2.0000      -0.212609        -5.7854 
  29   0.0000       0.018771         0.5108 
  30   0.0000       0.060119         1.6359 
  31   0.0000       0.064502         1.7552 
  32   0.0000       0.073724         2.0061 
  33   0.0000       0.079239         2.1562 
  34   0.0000       0.097101         2.6423 
  35   0.0000       0.106605         2.9009 
  36   0.0000       0.113289         3.0828 
  37   0.0000       0.122513         3.3337 
  38   0.0000       0.136370         3.7108 
  39   0.0000       0.142227         3.8702 
*Only the first 10 virtual orbitals were printed.

                    ********************************
                    * MULLIKEN POPULATION ANALYSIS *
                    ********************************

-----------------------
MULLIKEN ATOMIC CHARGES
-----------------------
   0 C :   -0.293397
   1 C :   -0.143616
   2 C :   -0.142482
   3 C :   -0.043656
   4 C :   -0.211504
   5 C :   -0.229372
   6 O :   -0.418445
   7 H :    0.096913
   8 H :    0.092926
   9 H :    0.126673
  10 H :    0.070636
  11 H :    0.078864
  12 H :    0.064073
  13 H :    0.075689
  14 H :    0.092451
  15 H :    0.098467
  16 H :    0.106093
  17 H :    0.086082
  18 H :    0.103103
  19 H :    0.096749
  20 H :    0.293753
Sum of atomic charges:    0.0000000

--------------------------------
MULLIKEN REDUCED ORBITAL CHARGES
--------------------------------
  0 C s       :     3.097670  s :     3.097670
      pz      :     1.059977  p :     3.166356
      px      :     1.065839
      py      :     1.040540
      dz2     :     0.003809  d :     0.029371
      dxz     :     0.005087
      dyz     :     0.008676
      dx2y2   :     0.006957
      dxy     :     0.004842

  1 C s       :     3.022612  s :     3.022612
      pz      :     1.023013  p :     3.084097
      px      :     1.012310
      py      :     1.048774
      dz2     :     0.006612  d :     0.036908
      dxz     :     0.006565
      dyz     :     0.008512
      dx2y2   :     0.006414
      dxy     :     0.008804

  2 C s       :     3.054762  s :     3.054762
      pz      :     1.052508  p :     3.053465
      px      :     0.995475
      py      :     1.005482
      dz2     :     0.007681  d :     0.034256
      dxz     :     0.005635
      dyz     :     0.005602
      dx2y2   :     0.010899
      dxy     :     0.004438

  3 C s       :     3.120950  s :     3.120950
      pz      :     0.778796  p :     2.848036
      px      :     0.986845
      py      :     1.082395
      dz2     :     0.022458  d :     0.074670
      dxz     :     0.018295
      dyz     :     0.012901
      dx2y2   :     0.010814
      dxy     :     0.010201

  4 C s       :     3.061975  s :     3.061975
      pz      :     1.030145  p :     3.122050
      px      :     1.074937
      py      :     1.016968
      dz2     :     0.007189  d :     0.027479
      dxz     :     0.003951
      dyz     :     0.003687
      dx2y2   :     0.005618
      dxy     :     0.007034

  5 C s       :     3.084230  s :     3.084230
      pz      :     1.051194  p :     3.117238
      px      :     1.035850
      py      :     1.030194
      dz2     :     0.008830  d :     0.027905
      dxz     :     0.003963
      dyz     :     0.001832
      dx2y2   :     0.009808
      dxy     :     0.003472

  6 O s       :     3.801669  s :     3.801669
      pz      :     1.371682  p :     4.601667
      px      :     1.889106
      py      :     1.340879
      dz2     :     0.005691  d :     0.015110
      dxz     :     0.001783
      dyz     :     0.001761
      dx2y2   :     0.005271
      dxy     :     0.000604

  7 H s       :     0.903087  s :     0.903087

  8 H s       :     0.907074  s :     0.907074

  9 H s       :     0.873327  s :     0.873327

 10 H s       :     0.929364  s :     0.929364

 11 H s       :     0.921136  s :     0.921136

 12 H s       :     0.935927  s :     0.935927

 13 H s       :     0.924311  s :     0.924311

 14 H s       :     0.907549  s :     0.907549

 15 H s       :     0.901533  s :     0.901533

 16 H s       :     0.893907  s :     0.893907

 17 H s       :     0.913918  s :     0.913918

 18 H s       :     0.896897  s :     0.896897

 19 H s       :     0.903251  s :     0.903251

 20 H s       :     0.706247  s :     0.706247


------------------------
MULLIKEN OVERLAP CHARGES
------------------------
B(  0-C ,  1-C ) :   0.8773 B(  0-C ,  2-C ) :  -0.0984 B(  0-C ,  7-H ) :   0.7086 
B(  0-C ,  8-H ) :   0.7552 B(  0-C ,  9-H ) :   0.7409 B(  0-C , 10-H ) :  -0.0523 
B(  0-C , 11-H ) :  -0.0532 B(  1-C ,  2-C ) :   0.8335 B(  1-C ,  3-C ) :  -0.0925 
B(  1-C ,  8-H ) :  -0.0514 B(  1-C , 10-H ) :   0.6845 B(  1-C , 11-H ) :   0.6990 
B(  2-C ,  3-C ) :   0.6707 B(  2-C ,  4-C ) :  -0.1756 B(  2-C ,  5-C ) :  -0.1902 
B(  2-C ,  6-O ) :  -0.1645 B(  2-C , 10-H ) :  -0.0583 B(  2-C , 12-H ) :   0.6355 
B(  2-C , 13-H ) :   0.6329 B(  3-C ,  4-C ) :   0.7905 B(  3-C ,  5-C ) :   0.8939 
B(  3-C ,  6-O ) :   0.6675 B(  3-C , 20-H ) :  -0.0962 B(  4-C ,  5-C ) :  -0.1485 
B(  4-C ,  6-O ) :  -0.1408 B(  4-C , 14-H ) :   0.6992 B(  4-C , 15-H ) :   0.6838 
B(  4-C , 16-H ) :   0.7097 B(  5-C ,  6-O ) :  -0.0987 B(  5-C , 17-H ) :   0.6985 
B(  5-C , 18-H ) :   0.7110 B(  5-C , 19-H ) :   0.6796 B(  6-O , 10-H ) :   0.0532 
B(  6-O , 20-H ) :   0.5166 B(  8-H ,  9-H ) :  -0.0608 B( 10-H , 11-H ) :  -0.0607 
B( 12-H , 13-H ) :  -0.0517 B( 17-H , 18-H ) :  -0.0529 


                     *******************************
                     * LOEWDIN POPULATION ANALYSIS *
                     *******************************

----------------------
LOEWDIN ATOMIC CHARGES
----------------------
   0 C :   -0.344380
   1 C :   -0.233891
   2 C :   -0.231774
   3 C :   -0.013955
   4 C :   -0.327186
   5 C :   -0.338015
   6 O :   -0.316069
   7 H :    0.118320
   8 H :    0.113954
   9 H :    0.120668
  10 H :    0.111267
  11 H :    0.114255
  12 H :    0.111202
  13 H :    0.117880
  14 H :    0.120165
  15 H :    0.121439
  16 H :    0.122844
  17 H :    0.110393
  18 H :    0.119712
  19 H :    0.122787
  20 H :    0.280385

-------------------------------
LOEWDIN REDUCED ORBITAL CHARGES
-------------------------------
  0 C s       :     2.945665  s :     2.945665
      pz      :     1.121838  p :     3.327800
      px      :     1.118574
      py      :     1.087388
      dz2     :     0.010199  d :     0.070915
      dxz     :     0.012380
      dyz     :     0.019446
      dx2y2   :     0.017818
      dxy     :     0.011073

  1 C s       :     2.904580  s :     2.904580
      pz      :     1.096089  p :     3.240074
      px      :     1.064384
      py      :     1.079600
      dz2     :     0.016097  d :     0.089238
      dxz     :     0.017134
      dyz     :     0.018351
      dx2y2   :     0.017830
      dxy     :     0.019825

  2 C s       :     2.923731  s :     2.923731
      pz      :     1.088660  p :     3.223003
      px      :     1.047538
      py      :     1.086805
      dz2     :     0.016551  d :     0.085040
      dxz     :     0.017417
      dyz     :     0.013813
      dx2y2   :     0.027559
      dxy     :     0.009700

  3 C s       :     2.858392  s :     2.858392
      pz      :     0.863645  p :     2.984466
      px      :     1.051809
      py      :     1.069012
      dz2     :     0.051984  d :     0.171097
      dxz     :     0.043053
      dyz     :     0.025249
      dx2y2   :     0.027186
      dxy     :     0.023624

  4 C s       :     2.952640  s :     2.952640
      pz      :     1.116427  p :     3.306074
      px      :     1.125873
      py      :     1.063774
      dz2     :     0.018331  d :     0.068472
      dxz     :     0.009853
      dyz     :     0.008596
      dx2y2   :     0.015478
      dxy     :     0.016215

  5 C s       :     2.961852  s :     2.961852
      pz      :     1.117795  p :     3.306473
      px      :     1.094360
      py      :     1.094318
      dz2     :     0.021345  d :     0.069691
      dxz     :     0.010633
      dyz     :     0.004941
      dx2y2   :     0.022768
      dxy     :     0.010004

  6 O s       :     3.547906  s :     3.547906
      pz      :     1.438423  p :     4.741760
      px      :     1.886381
      py      :     1.416957
      dz2     :     0.010990  d :     0.026403
      dxz     :     0.002768
      dyz     :     0.003387
      dx2y2   :     0.008596
      dxy     :     0.000662

  7 H s       :     0.881680  s :     0.881680

  8 H s       :     0.886046  s :     0.886046

  9 H s       :     0.879332  s :     0.879332

 10 H s       :     0.888733  s :     0.888733

 11 H s       :     0.885745  s :     0.885745

 12 H s       :     0.888798  s :     0.888798

 13 H s       :     0.882120  s :     0.882120

 14 H s       :     0.879835  s :     0.879835

 15 H s       :     0.878561  s :     0.878561

 16 H s       :     0.877156  s :     0.877156

 17 H s       :     0.889607  s :     0.889607

 18 H s       :     0.880288  s :     0.880288

 19 H s       :     0.877213  s :     0.877213

 20 H s       :     0.719615  s :     0.719615


---------------------------------
LOEWDIN BOND ORDERS (THRESH 0.050000)
---------------------------------
B(  0-C ,  1-C ) :   1.1320 B(  0-C ,  2-C ) :   0.0510 B(  0-C ,  7-H ) :   0.9371 
B(  0-C ,  8-H ) :   0.9409 B(  0-C ,  9-H ) :   0.9338 B(  1-C ,  2-C ) :   1.0946 
B(  1-C , 10-H ) :   0.9020 B(  1-C , 11-H ) :   0.9043 B(  2-C ,  3-C ) :   1.0225 
B(  2-C ,  4-C ) :   0.0513 B(  2-C ,  5-C ) :   0.0608 B(  2-C ,  6-O ) :   0.0655 
B(  2-C , 12-H ) :   0.8946 B(  2-C , 13-H ) :   0.8973 B(  3-C ,  4-C ) :   1.0709 
B(  3-C ,  5-C ) :   1.0710 B(  3-C ,  6-O ) :   1.1715 B(  4-C ,  5-C ) :   0.0575 
B(  4-C ,  6-O ) :   0.0578 B(  4-C , 14-H ) :   0.9322 B(  4-C , 15-H ) :   0.9300 
B(  4-C , 16-H ) :   0.9254 B(  5-C ,  6-O ) :   0.0703 B(  5-C , 17-H ) :   0.9298 
B(  5-C , 18-H ) :   0.9314 B(  5-C , 19-H ) :   0.9291 B(  6-O , 20-H ) :   0.8849 


------------------------------------------
LOEWDIN REDUCED ORBITAL POPULATIONS PER MO
-------------------------------------------
THRESHOLD FOR PRINTING IS 0.1%%
                      0         1         2         3         4         5   
                 -18.73933  -9.94571  -9.87892  -9.87863  -9.87410  -9.86813
                   2.00000   2.00000   2.00000   2.00000   2.00000   2.00000
                  --------  --------  --------  --------  --------  --------
 1 C  s               0.0       0.0      99.0       0.6       0.0       0.0
 2 C  s               0.0       0.0       0.6      99.0       0.0       0.0
 3 C  s               0.0      99.5       0.0       0.0       0.0       0.0
 3 C  py              0.0       0.0       0.0       0.0       0.0       0.1
 4 C  s               0.0       0.0       0.0       0.0       0.0      99.7
 5 C  s               0.0       0.0       0.0       0.0      99.7       0.0
 6 O  s              99.9       0.0       0.0       0.0       0.0       0.0
 6 O  pz              0.0       0.1       0.0       0.0       0.0       0.0

                      6         7         8         9        10        11   
                  -9.86681  -0.91816  -0.71817  -0.68018  -0.61745  -0.60554
                   2.00000   2.00000   2.00000   2.00000   2.00000   2.00000
                  --------  --------  --------  --------  --------  --------
 0 C  s              99.7       0.0       4.9      13.4       1.9      17.7
 0 C  px              0.0       0.0       0.2       0.1       0.0       0.2
 0 C  py              0.0       0.0       1.1       1.5       0.1       0.2
 1 C  s               0.0       0.1      11.8      16.8       0.1       0.0
 1 C  pz              0.0       0.0       0.4       0.0       0.3       1.7
 1 C  px              0.0       0.2       0.8       0.1       0.5       4.6
 1 C  py              0.1       0.0       0.2       0.9       0.8       4.8
 1 C  dx2y2           0.0       0.0       0.0       0.0       0.0       0.2
 2 C  s               0.0       0.8      17.2       1.5       2.8      14.7
 2 C  pz              0.0       0.6       0.4       0.4       0.1       0.1
 2 C  px              0.0       0.6       0.0       5.8       0.0       0.0
 2 C  py              0.0       0.0       0.3       0.0       1.0       0.1
 3 C  s               0.0      10.7      11.3       6.2       0.0       0.2
 3 C  pz              0.0       7.8       4.9       1.3       1.1       0.0
 3 C  px              0.0       0.0       0.3       3.4       0.0       9.0
 3 C  py              0.0       0.4       0.1       0.4      15.4       0.1
 3 C  dz2             0.0       0.7       0.2       0.1       0.0       0.0
 3 C  dxz             0.0       0.0       0.0       0.0       0.0       0.1
 3 C  dx2y2           0.0       0.0       0.0       0.0       0.2       0.0
 3 C  dxy             0.0       0.0       0.0       0.0       0.1       0.1
 4 C  s               0.0       0.8       6.4       7.2      24.3       0.0
 4 C  pz              0.0       0.2       0.0       0.0       0.1       0.0
 4 C  px              0.0       0.0       0.1       0.0       0.0       0.3
 4 C  py              0.0       1.0       1.3       0.8       0.3       0.0
 5 C  s               0.0       0.9       6.0       9.6      13.9      12.3
 5 C  pz              0.0       0.6       0.0       0.0       0.0       0.0
 5 C  px              0.0       0.6       0.9       0.2       0.0       0.7
 5 C  py              0.0       0.2       0.5       0.4       0.8       0.0
 6 O  s               0.0      57.0       4.9       1.3       0.1       0.0
 6 O  pz              0.0       1.8       1.4       1.0       0.1       0.0
 6 O  px              0.0       0.0       0.0       0.1       0.0       0.3
 6 O  py              0.0       1.5       1.1       0.7       1.3       0.0
 7 H  s               0.1       0.0       0.8       2.7       0.5       5.3
 8 H  s               0.1       0.0       1.0       2.6       0.5       4.3
 9 H  s               0.1       0.0       1.0       2.5       0.7       4.6
10 H  s               0.0       0.1       1.9       3.5       0.0       0.0
11 H  s               0.0       0.0       2.1       3.5       0.0       0.0
12 H  s               0.0       0.1       3.4       0.2       1.7       4.0
13 H  s               0.0       0.1       3.6       0.2       0.5       3.8
14 H  s               0.0       0.1       1.4       1.6       5.8       0.0
15 H  s               0.0       0.2       1.1       1.6       6.1       0.0
16 H  s               0.0       0.2       1.3       1.0       7.3       0.0
17 H  s               0.0       0.2       1.1       1.8       4.9       3.2
18 H  s               0.0       0.2       1.0       2.0       3.0       4.0
19 H  s               0.0       0.1       1.4       2.1       3.6       3.2
20 H  s               0.0      11.9       2.0       0.8       0.3       0.0

                     12        13        14        15        16        17   
                  -0.52669  -0.50564  -0.42972  -0.41672  -0.40694  -0.37596
                   2.00000   2.00000   2.00000   2.00000   2.00000   2.00000
                  --------  --------  --------  --------  --------  --------
 0 C  s               6.7       1.6       0.0       0.0       0.3       0.1
 0 C  pz              0.0       0.1       2.6       4.0       0.5      14.5
 0 C  px              0.1       0.0       0.2       3.8       5.2       0.8
 0 C  py              5.6       3.2       1.4       0.6       1.3       1.0
 0 C  dx2y2           0.1       0.0       0.0       0.0       0.0       0.1
 1 C  s              10.3       4.6       0.5       0.1       0.3       0.3
 1 C  pz              0.0       1.3       9.8       7.2       0.0       5.6
 1 C  px              0.4       0.6       0.9       7.1       1.5       0.5
 1 C  py              5.0       1.1       0.1       0.0       4.1       2.5
 2 C  s               0.9       3.2       1.5       0.0       0.1       0.6
 2 C  pz              0.3       5.2       4.2       7.9       0.0       1.3
 2 C  px              7.6       0.4       8.8       0.8       0.1       0.0
 2 C  py              0.4       0.0       0.0       0.4      22.1       5.4
 2 C  dxz             0.2       0.0       0.0       0.0       0.0       0.0
 2 C  dx2y2           0.0       0.1       0.1       0.0       0.1       0.2
 3 C  s               5.1       3.9       3.4       0.7       0.0       0.4
 3 C  pz              0.1       6.8       9.4       1.4       1.2       0.0
 3 C  px              2.5       0.6       0.1       9.5       1.9       0.2
 3 C  py              0.5       0.2       1.2       0.7       7.3       2.7
 3 C  dz2             0.1       0.1       0.2       0.0       0.0       0.1
 3 C  dxy             0.0       0.0       0.0       0.0       0.0       0.1
 4 C  s               4.5       2.1       0.0       0.3       0.7       0.1
 4 C  pz              0.2       2.2       4.5       0.9       0.7       0.3
 4 C  px              1.0       0.0       0.0       3.7       5.0       2.8
 4 C  py              2.7       3.2       1.5       7.1       4.3       1.8
 5 C  s               2.1       0.0       0.7       0.4       0.4       0.0
 5 C  pz              0.2       1.2       0.0       0.8       5.9       8.7
 5 C  px              2.4       0.0       9.3       0.4       3.4       2.0
 5 C  py              0.2       0.4       2.1      11.2       1.1       6.9
 5 C  dz2             0.0       0.0       0.0       0.0       0.1       0.1
 5 C  dxy             0.0       0.0       0.2       0.1       0.0       0.0
 6 O  s               0.2       0.2       1.6       0.1       0.9       2.1
 6 O  pz              5.0      14.5       1.0       0.5       3.3       3.2
 6 O  px              0.0       0.0       0.5       3.8       1.0       0.1
 6 O  py              2.4      13.8      11.6       0.2       0.5       5.4
 6 O  dz2             0.1       0.3       0.0       0.0       0.0       0.0
 7 H  s               2.7       0.6       0.2       0.3       3.2       2.9
 8 H  s               3.4       1.6       1.6       0.7       0.1       2.9
 9 H  s               3.3       1.0       0.0       3.4       0.0       2.8
10 H  s               4.8       2.9       4.5       2.3       0.0       2.6
11 H  s               5.7       2.1       0.0       4.1       0.8       0.7
12 H  s               0.1       2.1       1.1       0.1      10.1       4.1
13 H  s               0.5       4.1       3.5       2.8       1.6       0.1
14 H  s               2.4       3.1       0.8       0.0       0.0       0.3
15 H  s               2.7       0.5       0.8       0.0       4.6       0.6
16 H  s               1.2       1.2       0.9       6.2       0.1       1.4
17 H  s               0.9       0.3       1.1       5.4       0.8       5.0
18 H  s               1.7       0.0       3.8       0.0       0.6       0.4
19 H  s               1.1       0.5       0.2       0.3       4.3       5.4
20 H  s               2.1       8.4       3.2       0.2       0.0       0.5

                     18        19        20        21        22        23   
                  -0.37447  -0.34849  -0.33864  -0.33571  -0.32681  -0.31182
                   2.00000   2.00000   2.00000   2.00000   2.00000   2.00000
                  --------  --------  --------  --------  --------  --------
 0 C  pz              0.4      14.7       0.0       1.1       1.3       1.3
 0 C  px             12.1       1.2       7.5       2.2      11.0       0.4
 0 C  py              1.1       5.0       1.1       4.3       5.4       2.9
 0 C  dz2             0.0       0.1       0.0       0.0       0.0       0.0
 0 C  dxz             0.1       0.0       0.0       0.0       0.2       0.0
 0 C  dxy             0.0       0.0       0.0       0.0       0.1       0.0
 1 C  s               0.0       0.0       0.2       0.1       0.0       0.0
 1 C  pz              0.4       2.3       0.0       0.7       0.2       0.4
 1 C  px             12.4       2.6       0.3       0.3       0.6       1.7
 1 C  py              0.7       1.0       2.1       6.6       4.1       1.9
 1 C  dxy             0.0       0.0       0.0       0.0       0.1       0.0
 2 C  s               0.4       0.2       0.2       0.0       0.9       0.0
 2 C  pz              1.5      10.3       1.6       2.2       2.6       0.9
 2 C  px              2.3       0.5       0.0       0.2       1.6       0.1
 2 C  py              0.1       3.4       0.0       0.9       2.4       0.0
 2 C  dxy             0.0       0.0       0.0       0.1       0.0       0.0
 3 C  s               0.0       0.0       0.1       0.7       0.0       0.0
 3 C  pz              0.1       0.0       1.0       1.6       0.0       1.4
 3 C  px              3.6       0.1       2.3       0.2       5.9       0.0
 3 C  py              0.2       0.6       0.0       3.3       0.0       8.2
 3 C  dz2             0.3       0.0       0.0       0.5       0.1       0.2
 3 C  dxz             0.0       0.2       0.0       0.0       0.0       0.0
 3 C  dyz             0.0       0.0       0.3       0.0       0.0       0.0
 3 C  dx2y2           0.1       0.0       0.1       0.0       0.1       0.1
 3 C  dxy             0.0       0.1       0.0       0.0       0.2       0.0
 4 C  s               0.0       0.0       0.0       0.0       0.0       0.2
 4 C  pz              0.2       1.1      23.0      14.5       6.3       0.8
 4 C  px              5.3       2.8       1.3      12.7      12.1       2.1
 4 C  py              0.4       0.0       0.1       1.6       0.1      13.1
 4 C  dz2             0.0       0.0       0.3       0.4       0.1       0.0
 4 C  dxz             0.0       0.0       0.0       0.1       0.1       0.0
 4 C  dyz             0.0       0.0       0.1       0.1       0.0       0.0
 4 C  dx2y2           0.0       0.0       0.0       0.0       0.1       0.0
 4 C  dxy             0.0       0.0       0.0       0.0       0.2       0.2
 5 C  pz             13.5      12.1       3.1       0.9       0.3       2.1
 5 C  px              2.2       0.8      15.1       2.6       3.1       0.5
 5 C  py              5.6       3.2       0.5       1.9       0.1      13.9
 5 C  dz2             0.1       0.2       0.0       0.0       0.0       0.3
 5 C  dx2y2           0.1       0.0       0.1       0.1       0.0       0.4
 6 O  s               1.5       0.0       0.0       0.8       0.4       0.9
 6 O  pz              0.0       0.4       2.7       3.2       0.0      11.9
 6 O  px              1.2       1.4       1.5       0.2       3.9       0.0
 6 O  py              4.1       0.0       0.0       2.7       1.1       4.6
 7 H  s               3.5       2.7       3.9       0.6       4.2       0.0
 8 H  s               0.0      10.5       0.1       1.6       0.0       2.3
 9 H  s               3.7       0.2       0.8       0.1       9.1       0.2
10 H  s               0.2       0.2       0.1       0.0       0.1       1.3
11 H  s               4.9       0.0       0.0       2.0       2.4       0.2
12 H  s               0.1       0.2       0.0       0.2       0.9       0.1
13 H  s               0.1       7.8       0.1       2.4       0.1       0.5
14 H  s               0.4       0.8      12.5      11.1       3.1       0.1
15 H  s               2.0       0.4       4.5       1.5      11.9       0.1
16 H  s               1.0       0.9       1.0       7.1       1.5       7.2
17 H  s               2.0       2.5       0.6       1.0       0.0      11.8
18 H  s               5.2       1.7       9.9       3.0       1.2       0.8
19 H  s               5.5       7.2       1.0       0.4       0.1       4.0
20 H  s               0.7       0.1       0.1       1.8       0.2       0.3

                     24        25        26        27        28        29   
                  -0.29258  -0.28503  -0.27412  -0.26109  -0.21261   0.01877
                   2.00000   2.00000   2.00000   2.00000   2.00000   0.00000
                  --------  --------  --------  --------  --------  --------
 0 C  s               0.1       0.4       0.0       0.2       0.0       1.3
 0 C  pz             12.4       2.1       0.3       0.7       0.0       0.0
 0 C  px              0.8       0.2       9.0       0.7       0.1       0.0
 0 C  py              5.1      11.3       0.4       1.4       0.2       0.5
 0 C  dxz             0.0       0.0       0.2       0.0       0.0       0.0
 0 C  dyz             0.3       0.3       0.1       0.0       0.0       0.0
 0 C  dx2y2           0.2       0.0       0.1       0.0       0.0       0.1
 0 C  dxy             0.0       0.0       0.2       0.0       0.0       0.0
 1 C  s               0.0       0.1       0.2       0.1       0.1       2.2
 1 C  pz             11.2       9.3       1.0       2.6       0.2       0.3
 1 C  px              1.3       0.1      16.0       0.4       0.5       0.1
 1 C  py              4.1      12.0       0.3       1.3       0.4       0.5
 1 C  dz2             0.0       0.4       0.1       0.0       0.0       0.0
 1 C  dxz             0.0       0.0       0.3       0.0       0.0       0.1
 1 C  dyz             0.2       0.5       0.1       0.0       0.0       0.0
 1 C  dx2y2           0.3       0.0       0.0       0.2       0.0       0.0
 1 C  dxy             0.1       0.1       0.3       0.1       0.0       0.0
 2 C  s               0.0       0.1       0.1       0.4       0.9       2.6
 2 C  pz              1.9       6.6       0.4       3.4       2.5       2.0
 2 C  px              7.2       0.4       9.7       0.2       5.8       0.0
 2 C  py              5.2       7.3       0.1       4.7       0.5       0.7
 2 C  dz2             0.0       0.4       0.0       0.0       0.0       0.0
 2 C  dxz             0.0       0.0       0.3       0.0       0.0       0.0
 2 C  dyz             0.0       0.4       0.0       0.0       0.0       0.0
 2 C  dx2y2           0.2       0.0       0.0       0.5       0.0       0.2
 3 C  s               0.2       0.1       0.1       0.1       0.0       0.6
 3 C  pz              0.5       0.4       0.2       3.8       0.0       1.9
 3 C  px              0.0       0.0       7.1       0.1       5.5       0.0
 3 C  py              0.7       0.9       0.0      10.5       0.0       0.0
 3 C  dz2             0.0       0.1       0.0       0.0       0.0       0.2
 3 C  dxz             0.0       0.0       0.0       0.0       1.6       0.0
 3 C  dyz             0.1       0.0       0.0       0.4       0.0       0.1
 3 C  dx2y2           0.0       0.0       0.0       0.6       0.1       0.1
 3 C  dxy             0.0       0.0       0.2       0.2       0.1       0.0
 4 C  s               0.1       0.1       0.0       0.8       0.1       3.1
 4 C  pz              0.0       0.6       0.0       0.1       0.0       0.3
 4 C  px              1.1       0.8       4.5       0.4       0.1       0.0
 4 C  py              1.5       1.3       0.3      10.5       0.1       0.3
 4 C  dxy             0.0       0.0       0.2       0.0       0.1       0.0
 5 C  s               0.0       0.0       0.2       0.8       0.9       4.0
 5 C  pz              1.9       0.0       0.2       2.6       1.6       0.6
 5 C  px              0.5       0.0       4.1       2.9       2.9       0.6
 5 C  py              1.5       0.0       0.4       2.5       1.2       2.1
 5 C  dz2             0.0       0.0       0.1       0.0       0.0       0.1
 5 C  dx2y2           0.1       0.0       0.1       0.1       0.0       0.0
 5 C  dxy             0.0       0.0       0.0       0.0       0.0       0.1
 6 O  s               1.4       0.2       0.0       3.7       0.0       4.9
 6 O  pz              4.3       3.3       0.0      14.1       0.0       0.1
 6 O  px              0.0       0.1      10.5       0.0      69.7       0.0
 6 O  py              5.9       0.6       0.0      13.2       0.0       4.3
 7 H  s               3.3       0.2       5.6       0.8       0.1       1.0
 8 H  s               4.1       6.5       0.1       0.2       0.0       1.1
 9 H  s               4.2       0.0       5.9       0.4       0.1       1.1
10 H  s               3.3      14.5       1.4       0.5       0.3       2.6
11 H  s               2.4       0.1      11.6       1.1       0.4       2.1
12 H  s               5.1       4.7       0.1       5.9       0.1       5.6
13 H  s               0.0      11.3       0.0       0.2       0.8       4.8
14 H  s               0.1       0.3       0.0       0.1       0.0       5.5
15 H  s               0.4       1.1       2.5       0.6       0.5       1.5
16 H  s               0.9       0.0       2.0       1.0       0.3       0.8
17 H  s               1.0       0.0       0.0       1.0       0.0       6.7
18 H  s               2.3       0.1       2.6       0.1       0.5       1.4
19 H  s               1.0       0.1       0.6       1.0       0.8       4.5
20 H  s               0.9       0.0       0.0       2.5       0.0      26.6

                     30        31        32        33        34        35   
                   0.06012   0.06450   0.07372   0.07924   0.09710   0.10660
                   0.00000   0.00000   0.00000   0.00000   0.00000   0.00000
                  --------  --------  --------  --------  --------  --------
 0 C  s               8.7       1.7       0.4       7.7       0.2       0.1
 0 C  pz              0.4       0.2       0.3       2.0       0.1       7.5
 0 C  px              0.7       1.3       0.5       1.0       0.7       1.4
 0 C  py              1.6       0.1       1.0       1.3       0.2       0.8
 0 C  dz2             0.0       0.0       0.1       0.0       0.0       0.2
 0 C  dyz             0.1       0.0       0.0       0.1       0.0       0.1
 0 C  dx2y2           0.1       0.2       0.1       0.0       0.1       0.2
 1 C  s               1.1       7.7       0.1       0.7       1.4       0.2
 1 C  pz              1.5       0.1       0.1       1.5       1.3       0.4
 1 C  px              1.4       0.4       0.9       1.4       0.1       0.9
 1 C  py              0.3       2.1       0.0       0.1       0.1       0.7
 1 C  dz2             0.0       0.0       0.0       0.2       0.1       0.0
 1 C  dyz             0.1       0.0       0.0       0.2       0.0       0.2
 1 C  dx2y2           0.1       0.0       0.1       0.1       0.1       0.0
 1 C  dxy             0.1       0.2       0.4       0.1       0.0       0.1
 2 C  s               1.1       0.1       1.3       3.4       0.1       0.8
 2 C  pz              2.5       0.3       0.7       1.8       1.3       1.3
 2 C  px              0.0       0.2       0.1       0.1       0.7       1.0
 2 C  py              0.3       2.1       5.7       0.4       0.9       0.0
 2 C  dz2             0.0       0.0       0.2       0.1       0.1       0.0
 2 C  dxz             0.0       0.2       0.2       0.0       0.1       0.1
 2 C  dyz             0.0       0.1       0.2       0.0       0.0       0.1
 2 C  dx2y2           0.1       0.2       0.0       0.1       0.0       0.0
 2 C  dxy             0.0       0.0       0.0       0.0       0.0       0.1
 3 C  s               0.0       0.2       0.5       0.0       0.0       0.0
 3 C  pz              0.2       0.0       2.7       1.2       0.1       0.3
 3 C  px              0.0       0.0       0.1       0.1       0.9       0.4
 3 C  py              0.0       0.1       0.9       0.2       0.2       0.3
 3 C  dz2             0.1       0.0       0.9       0.5       0.0       0.1
 3 C  dxz             0.0       0.0       0.0       0.0       0.0       0.3
 3 C  dyz             0.1       0.0       0.3       0.0       0.1       0.0
 3 C  dx2y2           0.0       0.1       0.1       0.0       0.8       0.0
 3 C  dxy             0.0       0.0       0.2       0.2       0.4       0.0
 4 C  s               1.5       2.7       0.5       3.0       0.3       0.8
 4 C  pz              0.1       1.8       2.7       2.3       0.2       0.7
 4 C  px              0.2       0.9       1.0       1.2       7.5       1.1
 4 C  py              1.8       1.5       0.3       1.6       0.4       0.3
 4 C  dz2             0.0       0.1       0.4       0.0       0.0       0.1
 4 C  dxz             0.0       0.0       0.0       0.1       0.2       0.1
 4 C  dyz             0.0       0.0       0.1       0.0       0.1       0.0
 4 C  dx2y2           0.1       0.0       0.0       0.0       0.2       0.0
 4 C  dxy             0.0       0.0       0.0       0.1       0.2       0.0
 5 C  s               0.3       5.3       4.1       0.6       0.7       3.2
 5 C  pz              0.2       1.5       0.8       1.7       0.6       6.5
 5 C  px              0.0       1.2       2.0       0.1       5.9       0.1
 5 C  py              0.8       0.4       2.2       0.0       6.8       1.3
 5 C  dz2             0.0       0.0       0.3       0.2       0.1       0.3
 5 C  dxz             0.0       0.0       0.1       0.0       0.2       0.0
 5 C  dx2y2           0.0       0.0       0.0       0.0       0.5       0.0
 6 O  s               1.6       0.2       2.5       0.0       0.5       0.1
 6 O  pz              0.3       0.1       1.3       1.3       0.1       0.3
 6 O  px              0.0       0.8       0.1       0.0       0.0       0.0
 6 O  py              4.8       0.5       0.7       0.0       0.0       0.5
 7 H  s               8.2       6.2       0.8       2.6       0.6       9.3
 8 H  s              12.6       0.1       2.3       1.1       0.7      13.9
 9 H  s               1.8       0.1       1.3      18.3       0.8       1.0
10 H  s               0.8       9.1       0.5       1.6       6.0       2.3
11 H  s               7.9      11.1       0.9       7.1       0.5       2.1
12 H  s               0.6       2.7      14.9       5.8       1.6       0.8
13 H  s               7.3       3.7       4.1       6.5       0.4       3.1
14 H  s               2.1       9.1       4.3       0.2       0.1       0.3
15 H  s               1.1       2.9       6.5       1.7      16.0       6.0
16 H  s               2.2       0.2       0.1      13.4       3.3       0.2
17 H  s               2.3       0.2      10.9       1.0      20.5       0.6
18 H  s               0.0       6.0       9.3       1.8      13.0       0.1
19 H  s               0.1      11.3       0.7       1.6       0.8      25.1
20 H  s              20.3       2.3       5.8       0.4       1.1       1.7

                     36        37        38        39        40        41   
                   0.11329   0.12251   0.13637   0.14223   0.14277   0.15305
                   0.00000   0.00000   0.00000   0.00000   0.00000   0.00000
                  --------  --------  --------  --------  --------  --------
 0 C  s               1.8       2.0       0.9       2.3       0.1       1.1
 0 C  pz              3.0       0.4       0.4       0.0       7.9       0.6
 0 C  px              0.9       9.9       1.8       3.7       0.8       1.7
 0 C  py              0.3       1.4       0.0       0.7       0.0       1.1
 0 C  dz2             0.2       0.3       0.1       0.1       0.2       0.0
 0 C  dxz             0.0       0.4       0.4       0.1       0.0       0.0
 0 C  dyz             0.0       0.3       0.2       0.0       0.4       0.1
 0 C  dx2y2           0.1       0.0       0.1       0.3       0.3       0.3
 0 C  dxy             0.0       0.1       0.1       0.0       0.0       0.4
 1 C  s               0.1       4.2       0.3       2.8       1.9       2.0
 1 C  pz              0.5       3.7       7.7       2.0       0.2       0.5
 1 C  px              0.0       0.0       8.3       0.5       0.4       1.0
 1 C  py              0.1       0.2       0.4       0.4       1.3       1.9
 1 C  dz2             0.2       0.1       0.1       0.0       0.4       0.4
 1 C  dxz             0.0       0.1       0.3       0.0       0.5       0.2
 1 C  dyz             0.1       0.1       0.4       0.0       0.3       0.0
 1 C  dx2y2           0.0       0.0       0.1       0.4       0.2       0.0
 1 C  dxy             0.0       0.7       0.0       0.1       0.0       0.2
 2 C  s               0.1       2.5       0.7       0.5       5.5       0.8
 2 C  pz              0.2       1.3       0.5       0.1       2.0       2.3
 2 C  px              0.0       0.3       0.2       0.2       2.4       0.4
 2 C  py              2.2       0.5       2.5       3.4       0.6       3.0
 2 C  dz2             0.0       0.0       0.8       0.0       0.1       0.1
 2 C  dxz             0.0       0.2       0.1       0.0       0.4       0.3
 2 C  dyz             0.2       0.1       0.0       0.2       0.4       0.6
 2 C  dx2y2           0.5       0.1       0.0       0.2       0.0       0.3
 2 C  dxy             0.1       0.0       0.0       0.0       0.2       0.0
 3 C  s               0.1       0.6       0.1       0.7       3.3       0.2
 3 C  pz              0.3       0.7       0.1       3.1       0.1       0.3
 3 C  px              0.1       0.1       0.4       1.4       0.1       0.2
 3 C  py              2.4       0.7       0.1       0.1       0.7       1.5
 3 C  dz2             0.0       0.0       0.1       0.6       0.0       0.4
 3 C  dyz             0.0       0.3       0.0       0.0       0.0       0.7
 3 C  dx2y2           0.7       0.1       0.0       0.0       0.2       0.0
 3 C  dxy             0.6       0.1       0.1       0.7       0.3       0.0
 4 C  s              12.4       0.1       0.2       1.7       0.8       0.2
 4 C  pz              0.4       0.4       0.8       4.5       0.1       9.9
 4 C  px              0.0       0.3       1.2       0.1       0.8       2.3
 4 C  py              1.1       0.3       0.2       0.3       3.0       2.0
 4 C  dz2             0.0       0.0       0.0       0.0       0.2       0.3
 4 C  dxz             0.0       0.0       0.2       0.0       0.0       0.2
 4 C  dyz             0.0       0.1       0.0       0.0       0.1       0.2
 4 C  dx2y2           0.0       0.0       0.1       0.4       0.4       0.6
 4 C  dxy             0.1       0.0       0.1       0.1       0.1       0.1
 5 C  s               7.0       0.3       0.2       1.0       1.0       0.2
 5 C  pz              1.0       0.4       1.0       3.9       3.4       1.9
 5 C  px              1.5       0.7       0.6       3.0       0.6       2.9
 5 C  py              0.6       0.6       0.2       1.4       0.2       0.6
 5 C  dz2             0.1       0.1       0.0       0.9       0.2       0.2
 5 C  dxz             0.0       0.1       0.0       0.1       0.1       0.5
 5 C  dx2y2           0.3       0.0       0.0       0.1       0.1       0.4
 5 C  dxy             0.0       0.1       0.0       0.4       0.2       0.0
 6 O  s               0.0       0.6       0.3       0.7       0.1       0.0
 6 O  pz              0.0       0.0       0.4       0.4       0.4       0.4
 6 O  px              0.0       0.9       0.0       0.0       0.2       0.1
 6 O  py              0.3       1.0       0.4       0.2       0.2       0.4
 7 H  s               1.1      22.4       5.0       1.3       6.5       0.8
 8 H  s              10.5       1.6       1.1       1.0      13.4       1.4
 9 H  s               0.3       7.5       0.4       7.5       1.6       0.9
10 H  s               0.2      15.3      10.0       7.7       2.1       0.3
11 H  s               0.3       1.2      30.3       0.9       2.6       0.1
12 H  s               3.4       3.1       7.8       8.3       0.9       4.4
13 H  s               3.0       3.7       0.3       0.6      15.1       2.9
14 H  s              12.6       0.9       0.6      12.8       0.5      14.4
15 H  s               6.1       0.2       0.6       0.2       2.0      14.1
16 H  s               5.2       1.1       3.7       0.1       0.4       1.2
17 H  s               3.0       0.2       0.1       8.9       0.4       1.6
18 H  s              13.5       0.1       3.2       0.1       1.1       7.9
19 H  s               0.6       0.4       0.6       5.4       9.7       3.7
20 H  s               0.3       4.4       2.8       0.9       0.3       0.3

                     42        43        44        45        46        47   
                   0.16774   0.18153   0.19730   0.20904   0.21993   0.22414
                   0.00000   0.00000   0.00000   0.00000   0.00000   0.00000
                  --------  --------  --------  --------  --------  --------
 0 C  s               0.1       2.1       0.4       0.3       0.1       0.0
 0 C  pz              0.1       1.7       2.1       1.1       0.2       1.1
 0 C  px              1.0       4.6       0.7       1.1       0.1       0.3
 0 C  py              0.3       0.5       1.7      13.8       6.2       5.1
 0 C  dz2             0.0       0.0       0.3       0.7       0.4       0.4
 0 C  dxz             0.0       0.7       0.0       0.1       0.1       0.3
 0 C  dyz             0.0       0.3       0.0       0.5       0.0       0.0
 0 C  dx2y2           0.0       0.3       0.3       1.3       0.5       0.3
 0 C  dxy             0.2       0.2       0.0       1.2       0.1       0.6
 1 C  s               2.3       0.7       0.5       3.4       0.2       0.6
 1 C  pz              1.8       0.3       1.7       0.8       0.7       0.2
 1 C  px              5.1       1.0       1.0       0.3       1.6       0.0
 1 C  py              0.2       3.5       0.8      10.6       5.4       3.2
 1 C  dz2             0.1       0.4       0.2       0.1       0.2       1.5
 1 C  dxz             0.9       0.6       0.0       0.7       0.0       0.0
 1 C  dyz             0.0       0.0       0.0       0.2       0.0       0.0
 1 C  dx2y2           0.9       0.2       0.1       1.0       0.8       0.0
 1 C  dxy             0.0       0.0       0.0       0.5       0.0       0.2
 2 C  s               6.0       0.4       0.8       0.5       0.0       2.4
 2 C  pz              3.1       1.3       0.1       1.2       2.9       4.5
 2 C  px              0.7       0.0       4.7      11.1       0.3       6.8
 2 C  py              1.5       2.2       0.4       0.4       2.1       0.7
 2 C  dz2             0.2       0.1       0.1       0.0       0.1       0.0
 2 C  dxz             0.8       0.0       1.8       1.5       0.3       1.6
 2 C  dyz             0.2       0.2       0.0       0.1       0.6       0.3
 2 C  dx2y2           1.5       0.3       0.1       0.2       0.0       1.4
 2 C  dxy             0.5       0.0       0.1       2.3       0.0       0.0
 3 C  s               2.7       1.1      26.5       0.9       0.0       0.0
 3 C  pz             13.6       0.1       3.4       0.9       1.6       0.8
 3 C  px              0.0       3.0       0.2      13.9       4.2       8.9
 3 C  py              2.5       0.1       0.4       0.8       8.7      13.2
 3 C  dz2             3.0       0.0       1.0       0.1       0.1       0.0
 3 C  dxz             0.0       0.1       0.0       1.1       0.6       0.5
 3 C  dyz             0.1       0.0       0.0       0.0       0.1       0.3
 3 C  dx2y2           0.0       0.0       0.0       0.1       0.7       2.4
 3 C  dxy             0.1       0.4       0.0       1.2       0.2       0.0
 4 C  s               1.1       0.6       0.5       0.1       0.6       0.4
 4 C  pz              1.2       0.8       0.2       0.3       2.1       0.4
 4 C  px              0.1       9.0       0.3       1.1       4.2       0.3
 4 C  py              6.7       1.7       5.4       0.9       3.7      14.6
 4 C  dz2             0.6       0.2       0.1       0.0       0.9       0.7
 4 C  dxz             0.1       0.1       0.0       0.4       0.7       0.3
 4 C  dyz             0.3       0.0       0.6       0.1       0.1       1.0
 4 C  dx2y2           1.1       0.2       1.4       0.0       0.4       1.7
 4 C  dxy             0.6       0.3       0.3       0.9       0.1       0.2
 5 C  s               0.0       0.4       0.6       0.1       0.7       0.1
[...]
 6 O  dz2             0.4       4.8       0.6       0.3       0.0       0.2
 6 O  dxz             1.5       2.7       4.7       2.2       1.3       0.3
 6 O  dyz             2.8       0.5       2.2       3.4       0.8       3.1
 6 O  dx2y2           0.0       0.2       0.0       0.3       0.4       1.7
 6 O  dxy             1.1       1.1       0.9       0.2      26.3      38.8
 7 H  s               0.9       0.1       0.0       0.4       0.0       0.0
 8 H  s               0.6       0.0       0.1       0.0       0.2       0.0
 9 H  s               0.5       0.0       0.2       0.1       0.1       0.0
10 H  s               0.1       0.1       0.2       0.6       0.1       0.0
11 H  s               0.3       0.2       0.1       0.6       0.1       0.1
12 H  s               0.0       0.8       0.5       0.5       0.3       0.2
13 H  s               0.0       0.2       1.5       0.0       0.2       0.0
14 H  s               0.5       0.0       0.3       0.0       0.0       0.0
15 H  s               0.3       1.0       0.1       0.1       0.1       0.0
16 H  s               0.4       0.2       0.7       0.0       0.0       0.2
17 H  s               0.0       0.0       1.0       0.0       0.0       0.0
18 H  s               0.2       0.0       0.4       0.0       0.1       0.0
19 H  s               0.2       0.9       0.0       0.0       0.0       0.0
20 H  s               0.0       0.1       0.2       0.0       0.0       0.0

                    120       121       122       123       124       125   
                   2.59961   2.63414   2.81276   2.90447   2.94955   3.30580
                   0.00000   0.00000   0.00000   0.00000   0.00000   0.00000
                  --------  --------  --------  --------  --------  --------
 0 C  s               0.1       0.3       0.0       0.0       0.0       0.0
 0 C  px              0.1       0.3       0.0       0.0       0.0       0.0
 0 C  py              0.3       0.4       0.0       0.0       0.0       0.0
 0 C  dz2             0.3       0.3       0.0       0.0       0.0       0.0
 0 C  dyz             0.4       0.3       0.0       0.0       0.0       0.0
 0 C  dx2y2           0.7       1.3       0.0       0.0       0.0       0.0
 0 C  dxy             1.2       1.1       0.0       0.0       0.0       0.0
 1 C  s               0.1       0.3       0.0       0.0       0.0       0.0
 1 C  pz              0.4       0.4       0.0       0.0       0.1       0.0
 1 C  px              0.9       1.5       0.0       0.0       0.0       0.0
 1 C  py              0.3       0.4       0.0       0.0       0.0       0.0
 1 C  dz2             0.9       0.2       0.0       0.1       0.0       0.0
 1 C  dxz             6.2       4.3       0.1       0.1       0.2       0.0
 1 C  dyz             0.0       0.0       0.0       0.2       0.0       0.0
 1 C  dx2y2           6.0      10.1       0.0       0.0       0.1       0.0
 2 C  s               0.3       0.1       0.0       0.0       0.0       0.0
 2 C  pz              0.2       0.3       0.0       0.0       0.0       0.0
 2 C  px              1.3       3.3       0.0       0.2       0.1       0.0
 2 C  dz2             0.0       0.1       0.0       2.1       0.2       0.0
 2 C  dxz             6.5      19.3       0.0       0.0       0.6       0.2
 2 C  dyz             1.0       0.5       0.2       0.0       0.0       0.0
 2 C  dx2y2           5.5       0.1       0.7       1.4       0.4       0.0
 2 C  dxy             3.9       2.3       0.2       1.0       0.1       0.0
 3 C  s               0.1       0.1       0.0       0.0       0.0       1.6
 3 C  pz              0.0       0.1       0.1       0.0       0.1       3.9
 3 C  px              0.1       2.2       0.0       0.8       0.0       0.0
 3 C  py              1.2       0.4       0.7       0.0       0.2       0.1
 3 C  dz2             0.1       0.2       0.7       0.0       1.6      13.0
 3 C  dxz             0.1       3.9       0.0      20.0       0.0       0.0
 3 C  dyz             0.0       0.3      12.4       0.0       4.4       0.7
 3 C  dx2y2          12.4       1.1       3.7       0.0       0.5       0.0
 3 C  dxy             8.8      18.0       0.1       0.0       0.0       0.0
 4 C  s               0.5       0.1       0.0       0.0       0.0       0.1
 4 C  py              1.2       0.1       0.3       0.0       0.0       0.1
 4 C  dz2             0.3       0.1       1.1       0.0       0.3       0.0
 4 C  dxz             0.1       0.0       0.1       0.3       0.0       0.0
 4 C  dyz             0.8       0.1       0.6       0.2       0.6       0.1
 4 C  dx2y2           7.3       0.6       1.1       0.1       0.0       0.2
 4 C  dxy             0.1       0.8       0.5       0.0       0.0       0.0
 5 C  s               0.2       0.8       0.0       0.0       0.0       0.0
 5 C  pz              0.1       0.2       0.1       0.0       0.0       0.0
 5 C  px              0.2       1.0       0.0       0.2       0.0       0.0
 5 C  py              0.3       0.4       0.1       0.0       0.0       0.0
 5 C  dz2             0.2       0.0       0.5       1.4       0.4       0.0
 5 C  dxz             2.1       2.7       0.1       0.0       0.3       0.1
 5 C  dyz             1.2       0.3       0.3       0.0       0.0       0.1
 5 C  dx2y2           0.1       1.9       0.0       0.0       0.3       0.0
 5 C  dxy             2.3       3.5       0.9       0.9       0.0       0.0
 6 O  s               0.2       0.1       0.6       0.0       2.1       4.7
 6 O  pz              0.0       0.0       0.1       0.0       0.0       4.1
 6 O  px              0.0       0.0       0.0       1.1       0.0       0.0
 6 O  py              0.0       0.0       2.4       0.0       0.7       1.0
 6 O  dz2             0.0       0.0       3.3       0.1       1.3      65.2
 6 O  dxz             0.8       3.4       0.4      67.8       0.1       0.1
 6 O  dyz             0.0       1.0      37.5       0.0      27.3       3.1
 6 O  dx2y2           2.7       0.0      29.2       0.3      50.9       0.4
 6 O  dxy            18.1       8.8       0.0       0.9       0.1       0.0
 7 H  s               0.1       0.1       0.0       0.0       0.0       0.0
11 H  s               0.1       0.0       0.0       0.0       0.0       0.0
12 H  s               0.3       0.0       0.0       0.0       0.0       0.0
15 H  s               0.3       0.0       0.0       0.0       0.0       0.0
17 H  s               0.1       0.2       0.0       0.0       0.0       0.0
18 H  s               0.1       0.1       0.0       0.0       0.0       0.0
20 H  s               0.1       0.0       1.4       0.0       6.4       0.9



                      *****************************
                      * MAYER POPULATION ANALYSIS *
                      *****************************

  NA   - Mulliken gross atomic population
  ZA   - Total nuclear charge
  QA   - Mulliken gross atomic charge
  VA   - Mayer's total valence
  BVA  - Mayer's bonded valence
  FA   - Mayer's free valence

  ATOM       NA         ZA         QA         VA         BVA        FA
  0 C      6.2934     6.0000    -0.2934     4.0266     4.0266     0.0000
  1 C      6.1436     6.0000    -0.1436     4.1680     4.1680     0.0000
  2 C      6.1425     6.0000    -0.1425     3.9762     3.9762     0.0000
  3 C      6.0437     6.0000    -0.0437     4.3357     4.3357    -0.0000
  4 C      6.2115     6.0000    -0.2115     3.9010     3.9010    -0.0000
  5 C      6.2294     6.0000    -0.2294     3.9139     3.9139    -0.0000
  6 O      8.4184     8.0000    -0.4184     1.9909     1.9909    -0.0000
  7 H      0.9031     1.0000     0.0969     0.9496     0.9496    -0.0000
  8 H      0.9071     1.0000     0.0929     0.9582     0.9582     0.0000
  9 H      0.8733     1.0000     0.1267     0.9594     0.9594    -0.0000
 10 H      0.9294     1.0000     0.0706     0.9793     0.9793     0.0000
 11 H      0.9211     1.0000     0.0789     0.9421     0.9421     0.0000
 12 H      0.9359     1.0000     0.0641     0.9605     0.9605    -0.0000
 13 H      0.9243     1.0000     0.0757     0.9620     0.9620     0.0000
 14 H      0.9075     1.0000     0.0925     0.9628     0.9628    -0.0000
 15 H      0.9015     1.0000     0.0985     0.9709     0.9709    -0.0000
 16 H      0.8939     1.0000     0.1061     0.9848     0.9848    -0.0000
 17 H      0.9139     1.0000     0.0861     0.9682     0.9682    -0.0000
 18 H      0.8969     1.0000     0.1031     0.9671     0.9671    -0.0000
 19 H      0.9033     1.0000     0.0967     0.9624     0.9624     0.0000
 20 H      0.7062     1.0000     0.2938     0.8898     0.8898    -0.0000

  Mayer bond orders larger than 0.100000
B(  0-C ,  1-C ) :   1.1615 B(  0-C ,  7-H ) :   0.9473 B(  0-C ,  8-H ) :   0.9541 
B(  0-C ,  9-H ) :   0.9407 B(  1-C ,  2-C ) :   1.1384 B(  1-C , 10-H ) :   0.9099 
B(  1-C , 11-H ) :   0.9247 B(  2-C ,  3-C ) :   1.0150 B(  2-C , 12-H ) :   0.9112 
B(  2-C , 13-H ) :   0.9096 B(  3-C ,  4-C ) :   1.0900 B(  3-C ,  5-C ) :   1.0925 
B(  3-C ,  6-O ) :   1.0302 B(  4-C , 14-H ) :   0.9446 B(  4-C , 15-H ) :   0.9403 
B(  4-C , 16-H ) :   0.9328 B(  5-C , 17-H ) :   0.9358 B(  5-C , 18-H ) :   0.9434 
B(  5-C , 19-H ) :   0.9411 B(  6-O , 20-H ) :   0.8500 

-------
TIMINGS
-------

Total SCF time: 0 days 0 hours 0 min 6 sec 

Total time                  ....       6.336 sec
Sum of individual times     ....       5.916 sec  ( 93.4%)

SCF preparation             ....       0.144 sec  (  2.3%)
Fock matrix formation       ....       5.039 sec  ( 79.5%)
  Startup                   ....       0.042 sec  (  0.8% of F)
  Split-RI-J                ....       1.685 sec  ( 33.4% of F)
  XC integration            ....       2.908 sec  ( 57.7% of F)
    Basis function eval.    ....       1.036 sec  ( 35.6% of XC)
    Density eval.           ....       0.353 sec  ( 12.1% of XC)
    XC-Functional eval.     ....       0.240 sec  (  8.3% of XC)
    XC-Potential eval.      ....       0.603 sec  ( 20.7% of XC)
Diagonalization             ....       0.000 sec  (  0.0%)
Density matrix formation    ....       0.157 sec  (  2.5%)
Total Energy calculation    ....       0.025 sec  (  0.4%)
Population analysis         ....       0.063 sec  (  1.0%)
Orbital Transformation      ....       0.049 sec  (  0.8%)
Orbital Orthonormalization  ....       0.000 sec  (  0.0%)
DIIS solution               ....       0.365 sec  (  5.8%)
  MO trafo                  ....       0.000 sec  (  0.0 % of DIIS)
  Orb grad                  ....       0.000 sec  (  0.0 % of DIIS)
  Energy W gradient         ....       0.000 sec  (  0.0 % of DIIS)
  DIIS error                ....       0.002 sec  (  0.6 % of DIIS)
  DIIS work                 ....       0.329 sec  ( 90.0 % of DIIS)
  Form Q                    ....       0.000 sec  (  0.0 % of DIIS)
  Form QpQm                 ....       0.000 sec  (  0.0 % of DIIS)
  Exp/Cayley                ....       0.000 sec  (  0.0 % of DIIS)
  Orb update                ....       0.000 sec  (  0.0 % of DIIS)
  Wake-sleep                ....       0.012 sec  (  3.3 % of DIIS)
SOSCF solution              ....       0.073 sec  (  1.1%)
  MO trafo                  ....       0.035 sec  ( 47.8 % of SOSCF)
  Orb grad                  ....       0.001 sec  (  1.5 % of SOSCF)
  Rot update                ....       0.023 sec  ( 31.6 % of SOSCF)
  Step                      ....       0.014 sec  ( 19.1 % of SOSCF)
Finished LeanSCF after   6.4 sec

Maximum memory used throughout the entire LEANSCF-calculation: 12.5 MB


-------------------------------------------------------------------------------
                          DFT DISPERSION CORRECTION                            
                                                                               
                                DFTD4 V3.4.0                                   
-------------------------------------------------------------------------------
The PBE functional is recognized
Active option DFTDOPT                   ...         5   

-------------------------   ----------------
Dispersion correction           -0.017094597
-------------------------   ----------------

------------------   -----------------
gCP correction             0.096271118
------------------   -----------------

-------------------------   --------------------
FINAL SINGLE POINT ENERGY      -311.518175071896
-------------------------   --------------------


------------------------------------------------------------------------------
                              ORCA PROPERTY CALCULATIONS
------------------------------------------------------------------------------

GBWName                                 ... sp.gbw
Number of atoms                         ...     21
Number of basis functions               ...    126
Max core memory                         ...   1024 MB

Electric properties:
Dipole moment                           ... YES
Quadrupole moment                       ...  NO
Static polarizability (Dipole/Dipole)   ...  NO
Static polarizability (Dipole/Quad.)    ...  NO
Static polarizability (Quad./Quad.)     ...  NO
Static polarizability (Velocity)        ...  NO

Atomic electric properties:
Dipole moment                           ...  NO
Quadrupole moment                       ...  NO
Static polarizability                   ...  NO

Choice of electric origin               ... Center of mass
Position of electric origin             ...    -0.000009     0.000005    -0.000016

General magnetic properties:
Magnetizability                         ...  NO

EPR properties:
g-Tensor (aka g-matrix)                 ...  NO
Zero-Field splitting spin-orbit         ...  NO
Zero-field splitting spin-spin          ...  NO
Hyperfine couplings                     ...  NO (   0 nuclei)
Quadrupole couplings                    ...  NO (   0 nuclei)
Contact density                         ...  NO (   0 nuclei)

NMR properties:
Chemical shifts                         ...  NO (   0 nuclei)
Spin-rotation constants                 ...  NO (   0 nuclei)
Spin-spin couplings                     ...  NO (   0 nuclei,    0 pairs)

Choice of magnetic origin               ... GIAO
Position of magnetic origin             ...     0.000000     0.000000     0.000000

Properties with geometric perturbations:
SCF Hessian                             ...  NO
IR spectrum                             ...  NO
VCD spectrum                            ...  NO
X-ray spectroscopy properties:
SCF XES/XAS/RIXS spectra                ...  NO


-------------
DIPOLE MOMENT
-------------

Method             : SCF
Type of density    : Electron Density
Multiplicity       :   1
Irrep              :   0
Energy             :  -311.5973515934423972 Eh
Relativity type    : 
Basis              : AO
                                X                 Y                 Z
Electronic contribution:      1.657912971      -1.593132881       2.677060674
Nuclear contribution   :     -1.637563362       1.152375063      -2.984392911
                        -----------------------------------------
Total Dipole Moment    :      0.020349609      -0.440757818      -0.307332237
                        -----------------------------------------
Magnitude (a.u.)       :      0.537712437
Magnitude (Debye)      :      1.366756397



--------------------
Rotational spectrum 
--------------------
 
Rotational constants in cm-1:             0.130568             0.057034             0.053837 
Rotational constants in MHz :          3914.317082          1709.824836          1613.982955 

Dipole components along the rotational axes: 
x,y,z [a.u.] :    -0.147942    -0.458329    -0.239128 
x,y,z [Debye]:    -0.376039    -1.164980    -0.607815 

 

Dipole moment calculation done in   0.0 sec 

Maximum memory used throughout the entire PROP-calculation: 7.8 MB

--------------------------------
SUGGESTED CITATIONS FOR THIS RUN
--------------------------------

Below you find a list of papers that are relevant to this ORCA run
We neither can nor want to force you to cite these papers, but we appreciate if you do
You receive ORCA, which is the product of decades of hard work by many enthusiastic individuals, for free
The only thing we kindly ask in return is that you cite our papers,
We deeply appreciate it, if you show your appreciation for ORCA by not just citing the generic ORCA reference.

Please note that relegating all ORCA citations to the supporting information does *not* help us.
SI sections are not indexed - citations you put there will not count into any citation statistics
But we need these citations in order to attract the funding resources that allow us to do what we are doing

Therefore, if you are a happy ORCA user, please consider citing a few of the papers listed below in the main body of your paper

In addition to the list printed below, the program has created the file sp.bibtex that contains the list in bibtex format
You can import this file easily into all common literature databanks and citation aid programs


List of essential papers. We consider these as the minimum necessary citations

  1. Neese,F.
     Software update: the ORCA program system, version 5.0
     WIRES Comput. Molec. Sci., 2022 12(1)e1606
     doi.org/10.1002/wcms.1606

List of papers to cite with high priority. The work reported in these papers was absolutely
necessary for this run to complete.
Our perspective: the developers of density functionals and basis sets usually get cited in chemistry papers
Good! But without the algorithms to do something with them, the functionals or basis sets would not do anything.
Hence, in our opinion, the algorithm design and method developments papers are equally worthy of getting cited

  1. Neese,F.
     An improvement of the resolution of the identity approximation for the formation of the Coulomb matrix
     J. Comp. Chem., 2003 24(14)1740-1747
     doi.org/10.1002/jcc.10318
  2. Neese,F.
     The SHARK Integral Generation and Digestion System
     J. Comp. Chem., 2022  1-16
     doi.org/10.1002/jcc.26942
  3. Caldeweyher,E.; Bannwarth,C.; Grimme,S.
     Extension of the D3 dispersion coefficient model
     J. Chem. Phys., 2017 147 034112-XXXX
     doi.org/10.1063/1.4993215
  4. Caldeweyher,E.; Ehlert,S.; Hansen,A.; Neugebauer,H.; Spicher,S.; Bannwarth,C.; Grimme,S.
     A generally applicable atomic-charge dependent London dispersion correction
     J. Chem. Phys., 2019 150 154122-XXXX
     doi.org/10.1063/1.5090222
  5. Caldeweyher,E.; Mewes,J.; Ehlert,S.; Grimme,S.
     Extension and evaluation of the D4 London-dispersion model for periodic systems
     Phys. Chem. Chem. Phys., 2020 22(16)8499-8512
     doi.org/10.1039/D0CP00502A

List of suggested additional citations. These are papers that are important in the 'surrounding' of 
of this run, or papers that preceded the highly important papers. If you like your results we are grateful for a citation.

  1. Neese,F.
     The ORCA program system
     WIRES Comput. Molec. Sci., 2012 2(1)73-78
     doi.org/10.1002/wcms.81
  2. Neese,F.
     Software update: the ORCA program system, version 4.0
     WIRES Comput. Molec. Sci., 2018 8(1)1-6
     doi.org/10.1002/wcms.1327
  3. Neese,F.; Wennmohs,F.; Becker,U.; Riplinger,C.
     The ORCA quantum chemistry program package
     J. Chem. Phys., 2020 152 Art. No. L224108
     doi.org/10.1063/5.0004608

List of optional additional citations

  1. Neese,F.
     Approximate second-order SCF convergence for spin unrestricted wavefunctions
     Chem. Phys. Lett., 2000 325(1-3)93-98
     doi.org/10.1016/s0009-2614(00)00662-x

Timings for individual modules:

Sum of individual times          ...        7.918 sec (=   0.132 min)
Startup calculation              ...        0.708 sec (=   0.012 min)   8.9 %
SCF iterations                   ...        7.120 sec (=   0.119 min)  89.9 %
Property calculations            ...        0.090 sec (=   0.001 min)   1.1 %
                             ****ORCA TERMINATED NORMALLY****
TOTAL RUN TIME: 0 days 0 hours 0 minutes 8 seconds 591 msec
