 Entering Gaussian System
 *********************************************
 Gaussian 98:
 frequency output generated by the xtb code
 *********************************************
                         Standard orientation:
 --------------------------------------------------------------------
  Center     Atomic     Atomic              Coordinates (Angstroms)
  Number     Number      Type              X           Y           Z
 --------------------------------------------------------------------
    1          6             0       -1.894876    1.234708    1.168794
    2          6             0       -2.013267    1.006982   -0.306930
    3          8             0       -3.048773    1.061516   -0.927088
    4          8             0       -0.885479    0.754042   -0.991200
    5          6             0        0.353461    0.630073   -0.373555
    6          6             0        1.201114    1.728067   -0.352340
    7          6             0        2.480268    1.605099    0.163321
    8          6             0        2.924248    0.383223    0.644621
    9          6             0        2.089791   -0.717344    0.610328
   10          6             0        0.792936   -0.608467    0.108937
   11          6             0       -0.100667   -1.790063    0.098146
   12          8             0       -1.315305   -1.734475    0.156708
   13          8             0        0.558506   -2.934263    0.043551
   14          1             0       -1.671592    0.281594    1.644960
   15          1             0       -2.842059    1.609062    1.543074
   16          1             0       -1.091141    1.933867    1.386142
   17          1             0        0.845774    2.665785   -0.749634
   18          1             0        3.129159    2.465770    0.182585
   19          1             0        3.921621    0.287459    1.041435
   20          1             0        2.423064   -1.675363    0.975495
   21          1             0       -0.034636   -3.710784    0.052402
 --------------------------------------------------------------------
     1 basis functions        1 primitive gaussians
     1 alpha electrons        1 beta electrons
 
 Harmonic frequencies (cm**-1), IR intensities (km*mol⁻¹),
 Raman scattering activities (A**4/amu), Raman depolarization ratios,
 reduced masses (AMU), force constants (mDyne/A) and normal coordinates:
                      1                      2                      3
                        a                      a                      a 
 Frequencies --    48.5607                57.2986                77.8849
 Red. masses --    14.6507                14.7685                10.2933
 Frc consts  --     0.0000                 0.0000                 0.0000
 IR Inten    --     3.2760                 2.3722                 8.1320
 Raman Activ --     0.0000                 0.0000                 0.0000
 Depolar     --     0.0000                 0.0000                 0.0000
 Atom AN      X      Y      Z        X      Y      Z        X      Y      Z
   1   6    -0.03   0.27  -0.11     0.00  -0.02  -0.01    -0.35  -0.47   0.03
   2   6    -0.01   0.08  -0.08     0.02  -0.21   0.01    -0.06  -0.02  -0.06
   3   8     0.02   0.09  -0.14    -0.01  -0.69   0.05     0.06   0.20  -0.28
   4   8    -0.02  -0.18   0.00     0.11   0.18  -0.02     0.05   0.16   0.07
   5   6    -0.02  -0.07   0.04     0.08   0.12   0.00     0.02   0.06   0.09
   6   6    -0.08  -0.03   0.07     0.17   0.05  -0.02     0.07   0.03   0.03
   7   6    -0.08   0.02   0.08     0.15  -0.04  -0.00     0.12  -0.03  -0.11
   8   6    -0.02   0.02   0.04     0.04  -0.06   0.04     0.12  -0.06  -0.18
   9   6     0.03  -0.02   0.01    -0.04  -0.00   0.06     0.06  -0.01  -0.09
  10   6     0.03  -0.05   0.02    -0.02   0.09   0.03     0.01   0.04   0.05
  11   6     0.04  -0.06   0.06    -0.11   0.16  -0.00    -0.00   0.06   0.12
  12   8     0.08  -0.09   0.64    -0.12   0.29   0.14     0.00   0.07   0.31
  13   8     0.05  -0.04  -0.57    -0.24   0.14  -0.25    -0.03   0.06   0.02
  14   1     0.00   0.10   0.00     0.03   0.02   0.03    -0.28  -0.21  -0.06
  15   1    -0.01   0.08  -0.05    -0.01  -0.02  -0.02    -0.08  -0.04  -0.03
  16   1    -0.01   0.09  -0.05    -0.02   0.03  -0.03    -0.02  -0.27   0.14
  17   1    -0.03  -0.01   0.02     0.07   0.02  -0.02     0.02   0.01   0.02
  18   1    -0.03   0.01   0.03     0.06  -0.03  -0.00     0.04  -0.02  -0.05
  19   1    -0.00   0.02   0.01     0.01  -0.04   0.02     0.05  -0.03  -0.09
  20   1     0.02  -0.00  -0.01    -0.03  -0.01   0.02     0.02  -0.01  -0.04
  21   1     0.02  -0.02  -0.13    -0.08   0.05  -0.07    -0.01   0.02   0.02
                      4                      5                      6
                        a                      a                      a 
 Frequencies --    91.5869               134.9621               137.2024
 Red. masses --    10.3815                11.4784                 2.4025
 Frc consts  --     0.0000                 0.0000                 0.0000
 IR Inten    --     4.0992                 2.4806                 0.5661
 Raman Activ --     0.0000                 0.0000                 0.0000
 Depolar     --     0.0000                 0.0000                 0.0000
 Atom AN      X      Y      Z        X      Y      Z        X      Y      Z
   1   6     0.20  -0.29   0.06    -0.31   0.28   0.04    -0.01  -0.21   0.01
   2   6     0.07  -0.02   0.03    -0.12   0.07   0.06    -0.02  -0.03  -0.02
   3   8     0.02   0.19   0.16    -0.05  -0.05  -0.09     0.02   0.17  -0.08
   4   8    -0.01  -0.00  -0.13    -0.04   0.04   0.25     0.01   0.06  -0.01
   5   6     0.01  -0.02  -0.15    -0.03   0.03   0.21    -0.01   0.02   0.02
   6   6     0.08  -0.07  -0.36     0.10  -0.07  -0.08     0.03  -0.01  -0.03
   7   6     0.01  -0.01  -0.17     0.18  -0.14  -0.30     0.04  -0.03  -0.06
   8   6    -0.15   0.10   0.26     0.09  -0.08  -0.08     0.01  -0.02  -0.02
   9   6    -0.18   0.12   0.36    -0.04   0.01   0.23    -0.03   0.01   0.04
  10   6    -0.08   0.05   0.11    -0.06   0.04   0.28    -0.02   0.02   0.04
  11   6    -0.04   0.01   0.01     0.03  -0.02   0.01    -0.02   0.01   0.04
  12   8    -0.04  -0.09   0.05     0.02  -0.21  -0.28    -0.02  -0.01   0.09
  13   8     0.05   0.08  -0.24     0.22   0.08  -0.15    -0.01   0.03  -0.01
  14   1    -0.04  -0.13  -0.03    -0.09   0.10   0.06     0.54   0.05  -0.05
  15   1     0.10  -0.01   0.04    -0.11   0.08  -0.03    -0.16  -0.55   0.10
  16   1     0.13  -0.18   0.05    -0.11   0.10   0.01    -0.35   0.36  -0.05
  17   1     0.05  -0.04  -0.18     0.05  -0.03  -0.06     0.01  -0.00  -0.02
  18   1     0.02  -0.01  -0.09     0.09  -0.07  -0.18     0.02  -0.01  -0.04
  19   1    -0.07   0.05   0.14     0.04  -0.04  -0.06     0.00  -0.01  -0.01
  20   1    -0.08   0.05   0.18    -0.03   0.01   0.10    -0.01   0.00   0.02
  21   1     0.03   0.01  -0.09     0.08  -0.00  -0.12     0.00   0.00  -0.00
                      7                      8                      9
                        a                      a                      a 
 Frequencies --   186.6302               243.5405               316.1094
 Red. masses --    13.7241                10.9080                13.9687
 Frc consts  --     0.0000                 0.0000                 0.0000
 IR Inten    --     1.7745                 3.5005                 5.5529
 Raman Activ --     0.0000                 0.0000                 0.0000
 Depolar     --     0.0000                 0.0000                 0.0000
 Atom AN      X      Y      Z        X      Y      Z        X      Y      Z
   1   6     0.05   0.06  -0.05     0.36  -0.10  -0.13    -0.01  -0.04  -0.06
   2   6    -0.03   0.11  -0.05     0.11  -0.05  -0.11    -0.13  -0.09  -0.04
   3   8    -0.11  -0.10   0.05     0.08  -0.01  -0.03    -0.22   0.11   0.06
   4   8    -0.01   0.45  -0.16     0.09  -0.13  -0.14    -0.19  -0.42  -0.05
   5   6    -0.03   0.15  -0.12    -0.07   0.04   0.18    -0.06   0.02  -0.08
   6   6     0.11   0.05   0.03    -0.17   0.11   0.32     0.04  -0.06  -0.01
   7   6     0.07  -0.11   0.11    -0.04   0.04  -0.04    -0.00  -0.24   0.13
   8   6    -0.08  -0.19   0.03     0.06  -0.05  -0.34     0.07  -0.25   0.07
   9   6    -0.20  -0.08  -0.12    -0.08   0.04   0.09     0.01  -0.17  -0.03
  10   6    -0.18   0.07  -0.17    -0.17   0.08   0.33     0.05   0.13  -0.01
  11   6    -0.01  -0.06   0.01    -0.14   0.04   0.12     0.05   0.25  -0.00
  12   8    -0.01  -0.43   0.23    -0.18  -0.16  -0.07     0.07   0.30  -0.02
  13   8     0.34   0.12   0.13     0.03   0.18  -0.04     0.27   0.43   0.02
  14   1     0.01   0.01  -0.03     0.08  -0.04  -0.06     0.01  -0.01  -0.01
  15   1     0.02   0.02   0.01     0.14   0.01   0.01     0.01   0.00   0.00
  16   1     0.03   0.01  -0.02     0.14  -0.07  -0.07     0.01  -0.01  -0.05
  17   1     0.07   0.03   0.03    -0.07   0.04   0.13     0.07   0.01   0.01
  18   1     0.04  -0.05   0.07     0.00   0.00  -0.04     0.00  -0.07   0.07
  19   1    -0.03  -0.10   0.03     0.07  -0.05  -0.23     0.02  -0.07   0.02
  20   1    -0.09  -0.04  -0.05    -0.01   0.02   0.03    -0.04  -0.07  -0.03
  21   1     0.15  -0.02   0.10     0.04   0.02  -0.09     0.12   0.07   0.01
                     10                     11                     12
                        a                      a                      a 
 Frequencies --   348.4388               386.6940               436.0741
 Red. masses --    12.6930                10.4330                10.7743
 Frc consts  --     0.0000                 0.0000                 0.0000
 IR Inten    --     2.0611                 7.0299                 2.0951
 Raman Activ --     0.0000                 0.0000                 0.0000
 Depolar     --     0.0000                 0.0000                 0.0000
 Atom AN      X      Y      Z        X      Y      Z        X      Y      Z
   1   6    -0.11   0.04   0.16    -0.11   0.03   0.13    -0.30   0.05   0.01
   2   6     0.18  -0.08   0.14     0.16  -0.06   0.11     0.18  -0.00  -0.02
   3   8     0.36  -0.01  -0.07     0.27  -0.01  -0.01    -0.03   0.05   0.37
   4   8     0.12  -0.26   0.16     0.05  -0.22   0.03     0.06   0.05  -0.38
   5   6     0.12   0.02  -0.04     0.07   0.06  -0.13     0.11  -0.15  -0.36
   6   6     0.09   0.04  -0.27    -0.13   0.20   0.25     0.01  -0.08   0.03
   7   6    -0.09   0.13   0.15     0.04  -0.07  -0.25    -0.04   0.04   0.19
   8   6    -0.13   0.05  -0.00    -0.14  -0.06  -0.07     0.18  -0.04  -0.22
   9   6     0.02  -0.06  -0.30    -0.25   0.02   0.25     0.02   0.07   0.16
  10   6    -0.10   0.02   0.05     0.03  -0.02  -0.39     0.00  -0.00   0.14
  11   6    -0.23   0.08   0.04    -0.01   0.03  -0.24    -0.01  -0.02   0.14
  12   8    -0.29  -0.25  -0.03     0.01   0.03   0.10    -0.01  -0.01  -0.04
  13   8     0.04   0.28   0.01     0.05   0.06   0.04    -0.00  -0.01  -0.03
  14   1    -0.04   0.04   0.10    -0.05   0.03   0.08    -0.13   0.04   0.07
  15   1    -0.07   0.00  -0.04    -0.07   0.00  -0.05    -0.18  -0.03  -0.18
  16   1    -0.07   0.04   0.08    -0.06   0.03   0.08    -0.17   0.07   0.13
  17   1     0.03  -0.01  -0.14    -0.08   0.10   0.20    -0.02  -0.01   0.06
  18   1    -0.04   0.04   0.13     0.06  -0.06  -0.12    -0.07   0.05   0.14
  19   1    -0.05   0.01   0.03    -0.05  -0.03  -0.00     0.08  -0.02  -0.13
  20   1     0.05  -0.03  -0.15    -0.13   0.04   0.20    -0.02   0.04   0.12
  21   1     0.07   0.02  -0.02     0.04  -0.00   0.18    -0.00  -0.00  -0.10
                     13                     14                     15
                        a                      a                      a 
 Frequencies --   446.5885               517.9650               527.8227
 Red. masses --    13.0949                10.9881                11.3875
 Frc consts  --     0.0000                 0.0000                 0.0000
 IR Inten    --    17.0988                16.2422                18.7760
 Raman Activ --     0.0000                 0.0000                 0.0000
 Depolar     --     0.0000                 0.0000                 0.0000
 Atom AN      X      Y      Z        X      Y      Z        X      Y      Z
   1   6    -0.03  -0.02  -0.11     0.11   0.01   0.15    -0.03  -0.01  -0.10
   2   6    -0.13  -0.08  -0.07    -0.25  -0.01   0.15     0.06   0.23  -0.12
   3   8    -0.27   0.11   0.11     0.02  -0.04  -0.36    -0.12  -0.08   0.15
   4   8    -0.08  -0.35   0.01    -0.17   0.14   0.23     0.09   0.07  -0.04
   5   6     0.11   0.19  -0.03     0.09  -0.20  -0.37     0.02  -0.25   0.12
   6   6     0.28   0.15   0.10     0.04  -0.16   0.01    -0.07  -0.22   0.19
   7   6     0.36   0.13   0.05     0.00   0.05   0.15     0.08   0.01  -0.20
   8   6     0.22   0.10   0.08     0.23   0.01  -0.17     0.07   0.16   0.20
   9   6     0.03   0.20  -0.02     0.04   0.12   0.19     0.23   0.01  -0.06
  10   6     0.03   0.10  -0.12     0.09  -0.09  -0.12     0.15  -0.25  -0.13
  11   6    -0.09  -0.00  -0.08    -0.11   0.02   0.04    -0.25   0.02  -0.06
  12   8    -0.13  -0.37   0.01    -0.14  -0.05  -0.02    -0.30  -0.01   0.02
  13   8    -0.23  -0.08   0.01     0.01   0.13  -0.02     0.09   0.31  -0.01
  14   1    -0.00   0.00  -0.02     0.09   0.01   0.02    -0.02  -0.06  -0.13
  15   1     0.00   0.01  -0.02     0.11   0.04   0.19    -0.04  -0.07  -0.03
  16   1    -0.00  -0.01  -0.06     0.10  -0.02  -0.10    -0.03  -0.02   0.09
  17   1     0.11   0.07   0.06    -0.04  -0.02   0.12    -0.09  -0.08   0.08
  18   1     0.11   0.03   0.01    -0.08   0.08   0.16    -0.01   0.03  -0.14
  19   1     0.05  -0.02   0.05     0.06   0.01  -0.04    -0.00   0.09   0.13
  20   1    -0.00   0.06   0.01    -0.03   0.08   0.20     0.11   0.03   0.01
  21   1    -0.11   0.02   0.06     0.05  -0.00  -0.02     0.16  -0.03   0.09
                     16                     17                     18
                        a                      a                      a 
 Frequencies --   538.9049               594.8847               606.7904
 Red. masses --     9.5805                 5.9188                11.7030
 Frc consts  --     0.0000                 0.0000                 0.0000
 IR Inten    --    34.8014                88.0452                33.3022
 Raman Activ --     0.0000                 0.0000                 0.0000
 Depolar     --     0.0000                 0.0000                 0.0000
 Atom AN      X      Y      Z        X      Y      Z        X      Y      Z
   1   6     0.01   0.01   0.05     0.00   0.01   0.08     0.01   0.01   0.09
   2   6     0.06   0.68  -0.05     0.01  -0.00   0.05     0.04   0.05   0.04
   3   8     0.00  -0.30  -0.03     0.09  -0.02  -0.06     0.11  -0.04  -0.06
   4   8    -0.07  -0.24   0.08    -0.08   0.01  -0.08    -0.11  -0.15  -0.08
   5   6     0.03   0.07  -0.08    -0.03   0.01  -0.20    -0.16  -0.04   0.02
   6   6     0.02   0.08  -0.09    -0.11   0.07   0.17     0.16  -0.25   0.14
   7   6    -0.05  -0.02   0.08     0.04  -0.14  -0.21     0.27   0.13   0.06
   8   6     0.00  -0.06  -0.08    -0.01   0.02   0.23     0.05   0.09   0.03
   9   6    -0.04  -0.02   0.06     0.09  -0.03  -0.17    -0.28   0.33  -0.21
  10   6     0.01   0.08   0.02     0.06   0.08  -0.08    -0.31  -0.04  -0.03
  11   6     0.06   0.03   0.01     0.05   0.08   0.26    -0.06  -0.22   0.03
  12   8     0.07  -0.04  -0.01     0.03  -0.13  -0.02    -0.04   0.35   0.01
  13   8    -0.06  -0.05   0.01    -0.08   0.03   0.17     0.22  -0.14   0.03
  14   1     0.01  -0.18  -0.33     0.00   0.01   0.03    -0.00  -0.01   0.00
  15   1    -0.02  -0.17   0.13     0.00   0.01   0.02    -0.01  -0.02   0.02
  16   1    -0.01  -0.07   0.28    -0.00   0.01   0.02    -0.01  -0.00   0.06
  17   1     0.02   0.04  -0.01    -0.03   0.06   0.13     0.06  -0.08   0.00
  18   1    -0.01  -0.01   0.06     0.01  -0.04  -0.08     0.05   0.06  -0.04
  19   1     0.01  -0.02  -0.04    -0.03   0.04   0.15    -0.00  -0.11   0.01
  20   1    -0.03  -0.01   0.03    -0.02  -0.01  -0.03    -0.07   0.08  -0.10
  21   1    -0.07   0.03  -0.03    -0.11   0.07  -0.71     0.16  -0.12  -0.15
                     19                     20                     21
                        a                      a                      a 
 Frequencies --   615.1159               671.4377               733.1806
 Red. masses --    10.3576                10.1325                10.7027
 Frc consts  --     0.0000                 0.0000                 0.0000
 IR Inten    --    78.8970               100.3553                69.8493
 Raman Activ --     0.0000                 0.0000                 0.0000
 Depolar     --     0.0000                 0.0000                 0.0000
 Atom AN      X      Y      Z        X      Y      Z        X      Y      Z
   1   6     0.02   0.03   0.19     0.01  -0.01  -0.03    -0.02   0.02   0.13
   2   6     0.07   0.01   0.10     0.08  -0.03  -0.02    -0.09   0.02   0.05
   3   8     0.24  -0.05  -0.11     0.06   0.00   0.04    -0.04  -0.01  -0.08
   4   8    -0.18   0.02  -0.24     0.02   0.02  -0.02    -0.06   0.01  -0.13
   5   6    -0.29   0.00  -0.06    -0.22   0.04   0.36     0.16  -0.05  -0.25
   6   6    -0.12  -0.21   0.10     0.01  -0.21  -0.16    -0.03   0.15   0.10
   7   6    -0.04  -0.20  -0.03    -0.13  -0.02   0.20     0.02   0.04  -0.01
   8   6     0.27   0.03   0.21     0.19  -0.02  -0.13    -0.03   0.04   0.12
   9   6     0.09   0.17  -0.09    -0.04   0.14   0.19     0.14  -0.13   0.06
  10   6    -0.04   0.20   0.12     0.09  -0.02  -0.27    -0.05   0.04   0.38
  11   6     0.09   0.15  -0.06    -0.00   0.10  -0.41    -0.10  -0.08  -0.59
  12   8     0.09  -0.19  -0.03     0.02  -0.11   0.15    -0.08   0.07   0.19
  13   8    -0.17   0.05  -0.11    -0.07   0.10   0.23     0.07  -0.08   0.17
  14   1    -0.01   0.01   0.07    -0.02   0.00   0.01     0.02   0.01   0.03
  15   1    -0.01   0.01   0.02    -0.01  -0.00  -0.05     0.02   0.01   0.08
  16   1    -0.01   0.02   0.08    -0.01   0.01   0.01     0.01  -0.00   0.00
  17   1     0.05  -0.05  -0.02     0.04  -0.08  -0.14     0.04   0.01  -0.10
  18   1    -0.05  -0.02  -0.12    -0.06   0.01  -0.02     0.08  -0.04  -0.14
  19   1     0.09   0.01   0.02     0.08  -0.02  -0.11     0.07  -0.00  -0.18
  20   1    -0.00  -0.00  -0.13    -0.02   0.02   0.02     0.14  -0.07  -0.17
  21   1    -0.13   0.09   0.40    -0.07   0.06  -0.38     0.08  -0.07  -0.12
                     22                     23                     24
                        a                      a                      a 
 Frequencies --   757.5693               787.8446               813.3896
 Red. masses --    11.1708                 6.8364                10.3266
 Frc consts  --     0.0000                 0.0000                 0.0000
 IR Inten    --    49.0086                 2.5632                50.0236
 Raman Activ --     0.0000                 0.0000                 0.0000
 Depolar     --     0.0000                 0.0000                 0.0000
 Atom AN      X      Y      Z        X      Y      Z        X      Y      Z
   1   6     0.02   0.01   0.13    -0.01   0.02   0.15    -0.02  -0.04  -0.36
   2   6     0.01   0.00   0.02    -0.07   0.02   0.02     0.08  -0.02   0.01
   3   8     0.05  -0.01  -0.06    -0.05  -0.01  -0.07     0.05   0.02   0.15
   4   8    -0.14  -0.01  -0.21    -0.02  -0.01  -0.16     0.12   0.04   0.46
   5   6    -0.10   0.26   0.13     0.06  -0.09  -0.00     0.08  -0.03  -0.28
   6   6    -0.07   0.31  -0.14     0.05  -0.04   0.15    -0.14   0.04   0.03
   7   6    -0.14  -0.15   0.07     0.06   0.21   0.17    -0.21  -0.21   0.06
   8   6     0.26  -0.03   0.07    -0.24   0.04   0.02     0.17   0.00   0.19
   9   6     0.19  -0.03   0.15    -0.07  -0.09   0.17    -0.10   0.25  -0.00
  10   6     0.17   0.00  -0.19     0.12  -0.13  -0.24    -0.07   0.09  -0.07
  11   6    -0.20  -0.23   0.22     0.06   0.08   0.29    -0.02  -0.04   0.06
  12   8    -0.28   0.12  -0.05     0.07  -0.06  -0.08    -0.04   0.03  -0.01
  13   8     0.13  -0.20  -0.06    -0.06   0.13  -0.06     0.02  -0.05  -0.01
  14   1    -0.00   0.01   0.05     0.01   0.01   0.04    -0.00  -0.02  -0.12
  15   1    -0.00   0.01   0.02     0.01   0.01   0.08    -0.01  -0.02  -0.11
  16   1    -0.00   0.01   0.05     0.01   0.00   0.02     0.00  -0.02  -0.10
  17   1     0.10   0.11  -0.09     0.08  -0.12  -0.28     0.04  -0.01  -0.10
  18   1     0.01  -0.07  -0.06     0.20  -0.07  -0.35    -0.02  -0.08  -0.22
  19   1     0.10   0.08  -0.03     0.07  -0.12  -0.36     0.15  -0.06  -0.24
  20   1     0.04  -0.03   0.00     0.12  -0.08  -0.22    -0.02  -0.02  -0.23
  21   1     0.23  -0.20  -0.00    -0.06   0.07   0.01     0.03  -0.03  -0.01
                     25                     26                     27
                        a                      a                      a 
 Frequencies --   886.6964               919.8563               920.6964
 Red. masses --     3.4487                11.7584                 4.8799
 Frc consts  --     0.0000                 0.0000                 0.0000
 IR Inten    --     1.9439                71.0241                 7.0434
 Raman Activ --     0.0000                 0.0000                 0.0000
 Depolar     --     0.0000                 0.0000                 0.0000
 Atom AN      X      Y      Z        X      Y      Z        X      Y      Z
   1   6    -0.02  -0.00  -0.02     0.04  -0.05  -0.37     0.00   0.02   0.14
   2   6    -0.01   0.01   0.02     0.12  -0.01   0.18    -0.04  -0.00  -0.08
   3   8    -0.00   0.00   0.01     0.29  -0.02   0.09    -0.10   0.01  -0.04
   4   8     0.04  -0.00   0.04    -0.54   0.10   0.09     0.17  -0.03  -0.05
   5   6     0.03  -0.01  -0.06    -0.19   0.05  -0.05     0.03   0.01   0.08
   6   6    -0.12   0.09   0.27     0.10  -0.05  -0.04     0.06  -0.04  -0.21
   7   6    -0.06   0.00   0.12     0.13   0.21   0.10    -0.10  -0.03   0.11
   8   6     0.07  -0.04  -0.12    -0.13   0.04   0.00    -0.06   0.06   0.27
   9   6     0.08  -0.03  -0.26     0.16  -0.25   0.01     0.07   0.00  -0.31
  10   6    -0.03   0.01   0.03     0.07   0.02   0.05    -0.04  -0.00   0.03
  11   6     0.00   0.00  -0.03    -0.01  -0.01  -0.02     0.01   0.00  -0.02
  12   8     0.00   0.00   0.01    -0.02  -0.00   0.00     0.01   0.00   0.00
  13   8     0.01  -0.01   0.00    -0.00  -0.01   0.00     0.01  -0.01   0.00
  14   1     0.00  -0.00  -0.02    -0.03  -0.02  -0.10     0.01   0.01   0.05
  15   1     0.00   0.00   0.01    -0.05  -0.04  -0.22     0.01   0.01   0.06
  16   1     0.01  -0.01  -0.02    -0.02  -0.00  -0.04     0.00   0.01   0.03
  17   1     0.20  -0.16  -0.56     0.01   0.04   0.13    -0.12   0.09   0.31
  18   1     0.06  -0.06  -0.19     0.12  -0.01  -0.13     0.05  -0.06  -0.20
  19   1    -0.07   0.05   0.21     0.01  -0.00  -0.10     0.17  -0.12  -0.43
  20   1    -0.19   0.14   0.50     0.02  -0.00   0.20    -0.18   0.14   0.46
  21   1    -0.01   0.00   0.00     0.03  -0.02   0.00    -0.01   0.01   0.01
                     28                     29                     30
                        a                      a                      a 
 Frequencies --   927.9729               996.8647              1008.5596
 Red. masses --     3.6327                 5.8985                 6.2814
 Frc consts  --     0.0000                 0.0000                 0.0000
 IR Inten    --     2.0988                38.3175                68.1321
 Raman Activ --     0.0000                 0.0000                 0.0000
 Depolar     --     0.0000                 0.0000                 0.0000
 Atom AN      X      Y      Z        X      Y      Z        X      Y      Z
   1   6     0.01  -0.01  -0.04     0.02  -0.42   0.05     0.45   0.04   0.13
   2   6     0.01  -0.00   0.02     0.09   0.46  -0.12     0.02  -0.12  -0.22
   3   8     0.04  -0.00   0.01    -0.04  -0.10  -0.00    -0.21   0.02  -0.17
   4   8    -0.07   0.01   0.01    -0.06  -0.05   0.08    -0.13   0.06   0.21
   5   6    -0.04   0.02   0.04     0.00  -0.01  -0.01     0.05  -0.02  -0.05
   6   6    -0.05   0.04   0.15     0.00  -0.00   0.01    -0.02   0.02   0.02
   7   6     0.14  -0.06  -0.32     0.00   0.00  -0.00     0.01   0.01   0.01
   8   6    -0.10   0.06   0.23    -0.01   0.00  -0.00     0.01  -0.01   0.00
   9   6     0.03  -0.04  -0.01    -0.00  -0.00   0.00    -0.01   0.00   0.00
  10   6     0.03  -0.02  -0.07     0.00   0.01   0.00    -0.01  -0.00   0.01
  11   6    -0.00   0.00   0.01    -0.01   0.01  -0.00     0.00  -0.01  -0.01
  12   8    -0.01  -0.00  -0.00     0.00   0.00   0.00     0.01  -0.00   0.00
  13   8    -0.00   0.00  -0.00     0.01  -0.02  -0.00    -0.01   0.01   0.00
  14   1    -0.00  -0.00  -0.02     0.03   0.19   0.55    -0.16   0.01   0.17
  15   1    -0.01  -0.00  -0.03     0.02   0.18  -0.22    -0.13  -0.11  -0.44
  16   1    -0.00  -0.00  -0.00    -0.06   0.09  -0.36    -0.11   0.11   0.52
  17   1     0.12  -0.09  -0.31     0.02   0.01   0.00    -0.00  -0.02  -0.04
  18   1    -0.21   0.15   0.58    -0.00   0.00   0.00     0.01  -0.00  -0.01
  19   1     0.16  -0.11  -0.43    -0.00   0.00  -0.00     0.00  -0.01   0.00
  20   1    -0.03   0.02   0.12     0.00  -0.00  -0.00    -0.00  -0.00  -0.01
  21   1     0.00  -0.00  -0.00    -0.01   0.01   0.00     0.00  -0.00  -0.00
                     31                     32                     33
                        a                      a                      a 
 Frequencies --  1068.8865              1083.8501              1093.2915
 Red. masses --    10.7669                 7.1076                 6.2511
 Frc consts  --     0.0000                 0.0000                 0.0000
 IR Inten    --   119.3793               110.2347               314.7066
 Raman Activ --     0.0000                 0.0000                 0.0000
 Depolar     --     0.0000                 0.0000                 0.0000
 Atom AN      X      Y      Z        X      Y      Z        X      Y      Z
   1   6    -0.01  -0.01  -0.05     0.01  -0.00  -0.01     0.02   0.00  -0.03
   2   6     0.02   0.02   0.07     0.00  -0.00   0.02    -0.03  -0.00   0.05
   3   8     0.06  -0.01  -0.00     0.02  -0.00  -0.00     0.01   0.00  -0.00
   4   8    -0.27   0.05  -0.10    -0.08   0.01  -0.03    -0.03   0.00  -0.02
   5   6     0.22  -0.18   0.16     0.06  -0.00   0.03     0.01  -0.00   0.01
   6   6    -0.14   0.38  -0.16     0.14  -0.02   0.06     0.05   0.02   0.02
   7   6     0.05   0.00   0.02    -0.14  -0.34   0.03    -0.05  -0.13   0.01
   8   6     0.25  -0.11   0.12    -0.27   0.11  -0.13    -0.06   0.05  -0.03
   9   6    -0.10   0.15  -0.07     0.01   0.27  -0.06     0.04   0.08   0.01
  10   6    -0.14  -0.40   0.05     0.04  -0.14   0.06    -0.08  -0.16  -0.01
  11   6     0.06  -0.15  -0.01     0.05  -0.14  -0.02    -0.07   0.08  -0.00
  12   8     0.16   0.01  -0.01     0.15  -0.03  -0.01    -0.24   0.08   0.02
  13   8    -0.08   0.25   0.01    -0.22   0.20   0.02     0.44  -0.18  -0.02
  14   1     0.00  -0.00  -0.01    -0.01  -0.00  -0.01    -0.01  -0.00  -0.01
  15   1    -0.01  -0.00  -0.03    -0.00  -0.00  -0.02    -0.01  -0.01  -0.03
  16   1     0.00  -0.00  -0.04    -0.00   0.00  -0.00    -0.00  -0.00   0.02
  17   1    -0.25   0.01  -0.08     0.39   0.15   0.10     0.18   0.08   0.04
  18   1     0.13  -0.08   0.07     0.10  -0.21   0.10     0.03  -0.07   0.03
  19   1     0.03  -0.23   0.07    -0.07   0.12  -0.05    -0.01   0.08  -0.02
  20   1     0.01   0.05  -0.01     0.34   0.23   0.06     0.21   0.11   0.03
  21   1    -0.10   0.12   0.01     0.18  -0.13  -0.01    -0.56   0.45   0.04
                     34                     35                     36
                        a                      a                      a 
 Frequencies --  1154.3615              1169.9536              1174.2223
 Red. masses --     5.8509                 1.9485                10.5257
 Frc consts  --     0.0000                 0.0000                 0.0000
 IR Inten    --    92.8962                14.3833               651.7596
 Raman Activ --     0.0000                 0.0000                 0.0000
 Depolar     --     0.0000                 0.0000                 0.0000
 Atom AN      X      Y      Z        X      Y      Z        X      Y      Z
   1   6     0.04  -0.02  -0.06     0.00  -0.00  -0.01     0.16  -0.06  -0.20
   2   6    -0.12   0.04   0.15     0.00   0.00   0.02    -0.46   0.16   0.59
   3   8     0.01  -0.00  -0.01     0.01  -0.00  -0.00     0.02  -0.01  -0.07
   4   8     0.06  -0.01  -0.06    -0.08  -0.01  -0.03     0.28  -0.08  -0.21
   5   6    -0.01  -0.06   0.02     0.11  -0.04   0.06     0.06   0.01   0.06
   6   6    -0.08  -0.04  -0.03     0.11  -0.04   0.05     0.06   0.02   0.00
   7   6     0.05  -0.09   0.04    -0.00  -0.07   0.02    -0.05   0.00  -0.03
   8   6    -0.16  -0.05  -0.05     0.03   0.09  -0.01     0.04  -0.00   0.02
   9   6     0.06   0.25  -0.04    -0.04  -0.02  -0.02    -0.05  -0.03  -0.01
  10   6     0.23   0.21   0.02    -0.11   0.02  -0.04    -0.04  -0.07  -0.01
  11   6    -0.04   0.26  -0.01     0.00  -0.08   0.01     0.01   0.01   0.01
  12   8    -0.13  -0.03   0.01     0.03   0.01  -0.00     0.04  -0.00  -0.01
  13   8     0.07  -0.22  -0.01    -0.00   0.05   0.00    -0.03   0.02   0.00
  14   1    -0.02   0.00   0.01    -0.00  -0.00  -0.00    -0.06  -0.01   0.01
  15   1    -0.02  -0.01  -0.08    -0.00  -0.00  -0.01    -0.09  -0.05  -0.32
  16   1    -0.01   0.01   0.02    -0.00   0.00  -0.01    -0.04   0.03   0.05
  17   1    -0.38  -0.18  -0.08    -0.18  -0.11  -0.03     0.07   0.04   0.03
  18   1     0.39  -0.32   0.23     0.27  -0.23   0.16    -0.16   0.11  -0.08
  19   1    -0.08  -0.22   0.02     0.13   0.73  -0.14     0.02   0.06  -0.00
  20   1     0.10   0.11   0.01    -0.34  -0.15  -0.08    -0.07  -0.03  -0.01
  21   1     0.09  -0.10  -0.00    -0.04   0.04   0.00     0.04  -0.03  -0.00
                     37                     38                     39
                        a                      a                      a 
 Frequencies --  1199.0902              1232.4228              1269.0838
 Red. masses --    10.4511                 4.0230                10.1808
 Frc consts  --     0.0000                 0.0000                 0.0000
 IR Inten    --   223.7721                17.8422               446.8379
 Raman Activ --     0.0000                 0.0000                 0.0000
 Depolar     --     0.0000                 0.0000                 0.0000
 Atom AN      X      Y      Z        X      Y      Z        X      Y      Z
   1   6    -0.02   0.00  -0.01    -0.00  -0.01  -0.01     0.01  -0.01   0.00
   2   6     0.07  -0.02  -0.00    -0.00   0.01   0.01    -0.03   0.01   0.05
   3   8     0.03  -0.00  -0.01    -0.00   0.00  -0.00    -0.01  -0.00  -0.01
   4   8    -0.37   0.04  -0.11    -0.02  -0.03  -0.00     0.03  -0.01  -0.02
   5   6     0.57   0.00   0.23     0.12   0.32  -0.04     0.03   0.09  -0.01
   6   6     0.13  -0.09   0.08     0.09  -0.08   0.06     0.02  -0.11   0.04
   7   6    -0.14  -0.16  -0.01     0.05  -0.15   0.06    -0.05  -0.03  -0.01
   8   6    -0.11   0.02  -0.05     0.02  -0.08   0.03    -0.13   0.04  -0.06
   9   6    -0.10   0.14  -0.08    -0.05  -0.11   0.01     0.10   0.07   0.01
  10   6     0.20   0.08   0.05    -0.19   0.11  -0.09     0.30   0.30   0.04
  11   6    -0.04   0.20   0.00     0.02  -0.14   0.02     0.00  -0.69  -0.02
  12   8    -0.06  -0.02   0.00     0.04   0.02  -0.01    -0.08   0.06   0.00
  13   8     0.06  -0.16  -0.01    -0.03   0.06   0.00    -0.02   0.27   0.01
  14   1     0.00  -0.01  -0.03     0.00   0.00   0.00     0.00  -0.01  -0.01
  15   1     0.01   0.00   0.02     0.00   0.01  -0.01    -0.01   0.01  -0.04
  16   1     0.00  -0.00  -0.02    -0.00   0.00  -0.01    -0.00   0.00  -0.01
  17   1    -0.03  -0.07   0.01    -0.47  -0.26  -0.10    -0.07  -0.07  -0.01
  18   1    -0.31   0.15  -0.16    -0.20   0.12  -0.11     0.00  -0.03   0.01
  19   1    -0.05  -0.05  -0.00     0.04   0.18  -0.03    -0.08  -0.21   0.03
  20   1    -0.21  -0.04  -0.06     0.52   0.21   0.13    -0.20  -0.07  -0.04
  21   1     0.03  -0.05   0.00    -0.02   0.02  -0.01    -0.21   0.20   0.02
                     40                     41                     42
                        a                      a                      a 
 Frequencies --  1314.0341              1353.6214              1414.6378
 Red. masses --    11.9530                 3.2536                 9.2060
 Frc consts  --     0.0000                 0.0000                 0.0000
 IR Inten    --     1.7073                57.0217                32.4871
 Raman Activ --     0.0000                 0.0000                 0.0000
 Depolar     --     0.0000                 0.0000                 0.0000
 Atom AN      X      Y      Z        X      Y      Z        X      Y      Z
   1   6    -0.00   0.00   0.00    -0.08  -0.02  -0.44    -0.03   0.04   0.04
   2   6     0.01   0.00  -0.01    -0.03   0.02   0.04     0.01   0.00  -0.03
   3   8     0.01  -0.00   0.00     0.02  -0.00   0.01    -0.00  -0.00   0.00
   4   8    -0.03  -0.00  -0.01    -0.00  -0.00  -0.01     0.05   0.02   0.02
   5   6    -0.04  -0.39   0.09     0.00   0.00   0.00    -0.29  -0.22  -0.05
   6   6     0.38   0.17   0.10     0.01   0.01   0.00     0.02   0.28  -0.07
   7   6    -0.28   0.19  -0.16    -0.01  -0.01  -0.00     0.32  -0.11   0.15
   8   6    -0.08  -0.39   0.07    -0.01  -0.00  -0.00    -0.20  -0.31   0.00
   9   6     0.34   0.17   0.08     0.00   0.01  -0.00    -0.13   0.22  -0.10
  10   6    -0.29   0.28  -0.17     0.01  -0.00   0.00     0.37  -0.05   0.14
  11   6     0.01  -0.03   0.01    -0.01  -0.02  -0.00     0.01  -0.02  -0.03
  12   8     0.01   0.01  -0.00     0.01   0.00  -0.00    -0.07  -0.01   0.01
  13   8    -0.01  -0.01  -0.00    -0.00   0.01   0.00     0.01   0.01   0.00
  14   1    -0.00  -0.00  -0.00     0.12   0.29   0.47     0.08   0.03   0.01
  15   1    -0.00  -0.01   0.00     0.14  -0.07   0.39    -0.06  -0.05  -0.07
  16   1     0.00   0.00  -0.00     0.02  -0.22   0.50     0.09  -0.10  -0.01
  17   1    -0.01  -0.01  -0.00    -0.00  -0.00  -0.00    -0.10   0.04  -0.05
  18   1    -0.04   0.02  -0.02    -0.01   0.00  -0.00    -0.22   0.21  -0.14
  19   1    -0.00   0.01  -0.00    -0.00  -0.00   0.00     0.01   0.29  -0.08
  20   1     0.05   0.03   0.02    -0.01  -0.00  -0.00    -0.03   0.07  -0.03
  21   1     0.00  -0.01  -0.00    -0.00   0.00   0.00    -0.02   0.01   0.01
                     43                     44                     45
                        a                      a                      a 
 Frequencies --  1421.6224              1436.2811              1443.3063
 Red. masses --     2.1227                 1.7808                 9.3188
 Frc consts  --     0.0000                 0.0000                 0.0000
 IR Inten    --    46.8094                25.2350                78.3109
 Raman Activ --     0.0000                 0.0000                 0.0000
 Depolar     --     0.0000                 0.0000                 0.0000
 Atom AN      X      Y      Z        X      Y      Z        X      Y      Z
   1   6     0.15  -0.15  -0.13     0.13   0.17  -0.03     0.03   0.02   0.01
   2   6    -0.05  -0.01  -0.00     0.01   0.03  -0.01     0.00  -0.00  -0.05
   3   8     0.06  -0.00   0.04     0.00   0.00   0.00     0.02   0.00   0.02
   4   8     0.01   0.00  -0.01    -0.01  -0.00  -0.00     0.03  -0.03   0.04
   5   6    -0.05  -0.05  -0.01     0.04  -0.03   0.03    -0.24   0.25  -0.16
   6   6    -0.01   0.05  -0.02    -0.06  -0.03  -0.01     0.35   0.13   0.10
   7   6     0.07  -0.01   0.03     0.01   0.03  -0.00    -0.08  -0.23   0.03
   8   6    -0.03  -0.07   0.01     0.03  -0.02   0.01    -0.14   0.19  -0.10
   9   6    -0.03   0.04  -0.02    -0.05  -0.03  -0.01     0.32   0.12   0.09
  10   6     0.08   0.00   0.03     0.02   0.07  -0.01    -0.11  -0.41   0.06
  11   6     0.01  -0.02  -0.01    -0.00  -0.03   0.00     0.01   0.10  -0.01
  12   8    -0.02  -0.00   0.00    -0.00   0.00  -0.00     0.04  -0.01   0.00
  13   8     0.00   0.01   0.00     0.00   0.00   0.00    -0.00   0.01   0.00
  14   1    -0.42  -0.13  -0.05    -0.53   0.01   0.23    -0.10  -0.00   0.04
  15   1     0.26   0.22   0.35    -0.16  -0.63   0.21    -0.02  -0.09   0.04
  16   1    -0.45   0.49   0.05     0.15  -0.04  -0.31     0.01   0.01  -0.06
  17   1    -0.01   0.01  -0.01     0.04   0.02   0.01    -0.25  -0.13  -0.06
  18   1    -0.04   0.04  -0.03     0.02  -0.00   0.01    -0.12   0.00  -0.05
  19   1     0.00   0.06  -0.01     0.01   0.02  -0.00    -0.08  -0.16   0.01
  20   1     0.00   0.02  -0.00     0.04   0.02   0.01    -0.26  -0.13  -0.07
  21   1    -0.01   0.00   0.00    -0.00   0.00  -0.00     0.02  -0.01   0.00
                     46                     47                     48
                        a                      a                      a 
 Frequencies --  1566.7454              1579.1526              1679.1708
 Red. masses --    11.6198                11.5540                13.3158
 Frc consts  --     0.0000                 0.0000                 0.0000
 IR Inten    --    21.3891                85.2819               804.9051
 Raman Activ --     0.0000                 0.0000                 0.0000
 Depolar     --     0.0000                 0.0000                 0.0000
 Atom AN      X      Y      Z        X      Y      Z        X      Y      Z
   1   6    -0.00  -0.00  -0.01     0.00   0.00   0.01     0.00   0.00   0.00
   2   6     0.01   0.00   0.03    -0.01  -0.00  -0.03     0.01  -0.01   0.01
   3   8    -0.02  -0.00  -0.01     0.02  -0.00   0.01    -0.01   0.00  -0.01
   4   8     0.02   0.01  -0.01    -0.00   0.01   0.00     0.01   0.00   0.00
   5   6     0.04  -0.36   0.11    -0.20  -0.29   0.01    -0.03   0.01  -0.01
   6   6    -0.16   0.15  -0.11     0.42   0.23   0.10    -0.00  -0.01   0.00
   7   6     0.36  -0.36   0.23    -0.24  -0.08  -0.07    -0.00   0.01  -0.00
   8   6    -0.10   0.39  -0.14     0.22   0.37  -0.01    -0.01  -0.04   0.01
   9   6     0.20  -0.11   0.10    -0.42  -0.28  -0.09     0.01   0.02  -0.00
  10   6    -0.30   0.30  -0.18     0.22   0.12   0.05     0.08   0.04   0.01
  11   6    -0.03  -0.01   0.02    -0.02  -0.00  -0.00    -0.79   0.00   0.03
  12   8     0.04   0.01  -0.01    -0.01  -0.00   0.00     0.58  -0.02  -0.03
  13   8    -0.00  -0.02  -0.00     0.01  -0.01   0.00     0.07  -0.04  -0.00
  14   1     0.00  -0.00  -0.01     0.00  -0.00  -0.00    -0.00  -0.01  -0.02
  15   1     0.00   0.00  -0.00     0.00   0.00   0.00    -0.00   0.00  -0.00
  16   1    -0.00   0.00   0.00    -0.00   0.00   0.00    -0.00   0.00  -0.00
  17   1    -0.01   0.06  -0.02    -0.10  -0.04  -0.03    -0.01  -0.00  -0.00
  18   1    -0.11   0.06  -0.06    -0.01  -0.07   0.02     0.00   0.00  -0.00
  19   1    -0.06  -0.08  -0.00     0.03  -0.09   0.03    -0.00   0.01  -0.00
  20   1    -0.02  -0.06   0.01     0.11   0.02   0.04     0.00   0.01  -0.00
  21   1    -0.00  -0.00  -0.00    -0.01   0.00   0.00    -0.06   0.06   0.01
                     49                     50                     51
                        a                      a                      a 
 Frequencies --  1710.7104              3025.9650              3034.3166
 Red. masses --    13.3810                 1.8326                 1.5450
 Frc consts  --     0.0000                 0.0000                 0.0000
 IR Inten    --   995.1721                 0.4414                 2.8300
 Raman Activ --     0.0000                 0.0000                 0.0000
 Depolar     --     0.0000                 0.0000                 0.0000
 Atom AN      X      Y      Z        X      Y      Z        X      Y      Z
   1   6    -0.03  -0.01  -0.07     0.01  -0.26   0.09    -0.17  -0.12  -0.08
   2   6     0.63  -0.02   0.47     0.00  -0.01   0.01    -0.01  -0.00  -0.01
   3   8    -0.51   0.02  -0.32    -0.00   0.00  -0.00     0.00  -0.00   0.00
   4   8     0.03  -0.01  -0.02     0.00  -0.00  -0.00    -0.00   0.00   0.00
   5   6    -0.06   0.00  -0.01    -0.00   0.00   0.00     0.00   0.00   0.00
   6   6     0.03   0.01   0.01    -0.00  -0.00   0.00     0.00  -0.00   0.00
   7   6    -0.01   0.00  -0.01     0.00   0.00  -0.00    -0.00  -0.00   0.00
   8   6     0.00  -0.00   0.00     0.00   0.00   0.00    -0.00   0.00  -0.00
   9   6    -0.01  -0.00  -0.00     0.00  -0.00   0.00    -0.00   0.00  -0.00
  10   6     0.01  -0.02   0.01     0.00  -0.00  -0.00     0.00  -0.00   0.00
  11   6     0.02   0.01  -0.00     0.00   0.00  -0.00    -0.00  -0.00   0.00
  12   8    -0.01  -0.00  -0.00    -0.00  -0.00   0.00     0.00   0.00  -0.00
  13   8     0.00  -0.00  -0.00    -0.00  -0.00   0.00     0.00   0.00  -0.00
  14   1    -0.02  -0.02  -0.03    -0.20   0.82  -0.41     0.03  -0.22   0.09
  15   1     0.03   0.01   0.05    -0.02  -0.02   0.02    -0.12   0.03   0.03
  16   1    -0.02   0.03  -0.04     0.17   0.12   0.06     0.69   0.61   0.18
  17   1    -0.01  -0.00  -0.00     0.00   0.00  -0.00    -0.00   0.00  -0.00
  18   1     0.00  -0.00   0.00    -0.00  -0.00   0.00     0.00   0.00  -0.00
  19   1     0.00  -0.00   0.00    -0.00   0.00  -0.00     0.00  -0.00   0.00
  20   1     0.00   0.00   0.00    -0.00   0.00  -0.00     0.00  -0.00   0.00
  21   1     0.00  -0.00   0.00     0.00   0.00  -0.00    -0.00  -0.00   0.00
                     52                     53                     54
                        a                      a                      a 
 Frequencies --  3073.1705              3102.4238              3107.9735
 Red. masses --     1.7934                 1.7840                 1.8071
 Frc consts  --     0.0000                 0.0000                 0.0000
 IR Inten    --     4.3800                 3.5634                 5.7788
 Raman Activ --     0.0000                 0.0000                 0.0000
 Depolar     --     0.0000                 0.0000                 0.0000
 Atom AN      X      Y      Z        X      Y      Z        X      Y      Z
   1   6    -0.25   0.07   0.08     0.00  -0.00  -0.00     0.00  -0.00  -0.00
   2   6    -0.01   0.00   0.00     0.00   0.00   0.00    -0.00   0.00   0.00
   3   8     0.00  -0.00   0.00    -0.00   0.00  -0.00     0.00  -0.00   0.00
   4   8     0.00  -0.00  -0.00     0.00  -0.00   0.00     0.00  -0.00   0.00
   5   6     0.00   0.00   0.00    -0.01   0.00  -0.00    -0.00   0.00  -0.00
   6   6    -0.00   0.00  -0.00    -0.06   0.17  -0.07    -0.04   0.12  -0.05
   7   6    -0.00  -0.00  -0.00    -0.10  -0.13  -0.00     0.04   0.05   0.00
   8   6     0.00  -0.00   0.00     0.06  -0.01   0.02    -0.16   0.01  -0.06
   9   6     0.00  -0.00   0.00    -0.00   0.02  -0.01     0.04  -0.13   0.05
  10   6     0.00  -0.00   0.00     0.00  -0.00   0.00     0.00  -0.01   0.00
  11   6    -0.00  -0.00   0.00    -0.00  -0.00  -0.00     0.00  -0.00  -0.00
  12   8    -0.00   0.00  -0.00     0.00   0.00   0.00     0.00  -0.00  -0.00
  13   8     0.00   0.00  -0.00     0.00   0.00   0.00    -0.00  -0.00  -0.00
  14   1    -0.03   0.00   0.01    -0.00   0.00  -0.00     0.00  -0.00   0.00
  15   1     0.84  -0.33  -0.33    -0.00   0.00   0.00    -0.00   0.00   0.00
  16   1     0.06   0.09   0.03     0.00   0.00  -0.00     0.00   0.00   0.00
  17   1     0.00  -0.00   0.00     0.23  -0.62   0.26     0.15  -0.40   0.17
  18   1     0.00   0.00   0.00     0.36   0.48   0.01    -0.14  -0.19  -0.00
  19   1     0.00  -0.00   0.00    -0.23   0.02  -0.09     0.58  -0.05   0.23
  20   1    -0.00   0.00  -0.00     0.02  -0.06   0.02    -0.16   0.46  -0.18
  21   1    -0.00  -0.00   0.00    -0.00  -0.00   0.00     0.00   0.00   0.00
                     55                     56                     57
                        a                      a                      a 
 Frequencies --  3113.0111              3120.4078              3335.6233
 Red. masses --     1.8691                 1.9208                 1.8524
 Frc consts  --     0.0000                 0.0000                 0.0000
 IR Inten    --    14.1545                12.6727               266.9179
 Raman Activ --     0.0000                 0.0000                 0.0000
 Depolar     --     0.0000                 0.0000                 0.0000
 Atom AN      X      Y      Z        X      Y      Z        X      Y      Z
   1   6    -0.00  -0.00  -0.00    -0.00  -0.00  -0.00     0.00  -0.00  -0.00
   2   6     0.00   0.00   0.00    -0.00   0.00   0.00    -0.00   0.00   0.00
   3   8     0.00  -0.00   0.00     0.00  -0.00   0.00    -0.00  -0.00  -0.00
   4   8     0.00   0.00   0.00     0.00  -0.00  -0.00     0.00  -0.00   0.00
   5   6    -0.00  -0.00  -0.00    -0.00   0.00  -0.00    -0.00   0.00  -0.00
   6   6    -0.04   0.11  -0.05    -0.02   0.04  -0.02    -0.00   0.00  -0.00
   7   6     0.10   0.14   0.00     0.07   0.10   0.00    -0.00   0.00  -0.00
   8   6     0.00  -0.00   0.00     0.19  -0.02   0.08     0.00  -0.00   0.00
   9   6    -0.06   0.16  -0.06     0.04  -0.13   0.05     0.00  -0.00   0.00
  10   6     0.00   0.00   0.00    -0.00  -0.00  -0.00    -0.00  -0.00  -0.00
  11   6    -0.00   0.00  -0.00     0.00  -0.00   0.00    -0.00   0.01   0.00
  12   8     0.00  -0.00   0.00     0.00   0.00  -0.00     0.00  -0.00  -0.00
  13   8     0.00   0.00   0.00    -0.00  -0.00  -0.00     0.15   0.18  -0.00
  14   1    -0.00   0.00  -0.00     0.00  -0.00   0.00    -0.00   0.00  -0.00
  15   1    -0.00   0.00   0.00    -0.00   0.00   0.00    -0.00   0.00   0.00
  16   1     0.00   0.00   0.00     0.00   0.00   0.00    -0.00  -0.00  -0.00
  17   1     0.14  -0.37   0.16     0.05  -0.14   0.06     0.00   0.00  -0.00
  18   1    -0.35  -0.46  -0.01    -0.25  -0.33  -0.01     0.00   0.00  -0.00
  19   1    -0.01   0.00  -0.00    -0.64   0.06  -0.25    -0.00   0.00  -0.00
  20   1     0.20  -0.56   0.21    -0.16   0.45  -0.17    -0.00   0.01  -0.00
  21   1    -0.00  -0.01  -0.00     0.00   0.00   0.00    -0.58  -0.78   0.01
