
                                 *****************
                                 * O   R   C   A *
                                 *****************

                                            #,                                       
                                            ###                                      
                                            ####                                     
                                            #####                                    
                                            ######                                   
                                           ########,                                 
                                     ,,################,,,,,                         
                               ,,#################################,,                 
                          ,,##########################################,,             
                       ,#########################################, ''#####,          
                    ,#############################################,,   '####,        
                  ,##################################################,,,,####,       
                ,###########''''           ''''###############################       
              ,#####''   ,,,,##########,,,,          '''####'''          '####       
            ,##' ,,,,###########################,,,                        '##       
           ' ,,###''''                  '''############,,,                           
         ,,##''                                '''############,,,,        ,,,,,,###''
      ,#''                                            '''#######################'''  
     '                                                          ''''####''''         
             ,#######,   #######,   ,#######,      ##                                
            ,#'     '#,  ##    ##  ,#'     '#,    #''#        ,####,   ,####,        
            ##       ##  ##   ,#'  ##            #'  '#       #'       #'  '#        
            ##       ##  #######   ##           ,######,      #####,   #    #        
            '#,     ,#'  ##    ##  '#,     ,#' ,#      #,     #,   #   #,  ,#        
             '#######'   ##     ##  '#######'  #'      '#     '####' # '####'        



                #########################################################
                #                        -***-                          #
                #          Department of theory and spectroscopy        #
                #                                                       #
                #                      Frank Neese                      #
                #                                                       #
                #     Directorship, Architecture, Infrastructure        #
                #                    SHARK, DRIVERS                     #
                #        Core code/Algorithms in most modules           #
                #                                                       #
                #        Max Planck Institute fuer Kohlenforschung      #
                #                Kaiser Wilhelm Platz 1                 #
                #                 D-45470 Muelheim/Ruhr                 #
                #                      Germany                          #
                #                                                       #
                #                  All rights reserved                  #
                #                        -***-                          #
                #########################################################


                         Program Version 6.0.0  -   RELEASE  -


 With contributions from (in alphabetic order):
   Daniel Aravena         : Magnetic Suceptibility
   Michael Atanasov       : Ab Initio Ligand Field Theory (pilot matlab implementation)
   Alexander A. Auer      : GIAO ZORA, VPT2 properties, NMR spectrum
   Ute Becker             : All parallelization in ORCA, NUMFREQ, NUMCALC
   Giovanni Bistoni       : ED, misc. LED, open-shell LED, HFLD
   Martin Brehm           : Molecular dynamics
   Dmytro Bykov           : pre 5.0 version of the SCF Hessian
   Marcos Casanova-Páez   : Triplet and SCS-CIS(D). UHF-(DLPNO)-IP/EA/STEOM-CCSD. UHF-CVS-IP/STEOM-CCSD
   Vijay G. Chilkuri      : MRCI spin determinant printing, contributions to CSF-ICE
   Pauline Colinet        : FMM embedding
   Dipayan Datta          : RHF DLPNO-CCSD density
   Achintya Kumar Dutta   : EOM-CC, STEOM-CC
   Nicolas Foglia         : Exact transition moments, OPA infrastructure, MCD improvements
   Dmitry Ganyushin       : Spin-Orbit,Spin-Spin,Magnetic field MRCI
   Miquel Garcia          : C-PCM and meta-GGA Hessian, CCSD/C-PCM, Gaussian charge scheme
   Tiago L. C. Gouveia    : GS-ROHF, GS-ROCIS
   Yang Guo               : DLPNO-NEVPT2, F12-NEVPT2, CIM, IAO-localization
   Andreas Hansen         : Spin unrestricted coupled pair/coupled cluster methods
   Ingolf Harden          : AUTO-CI MPn and infrastructure 
   Benjamin Helmich-Paris : MC-RPA, TRAH-(SCF,CASSCF), AVAS, COSX integrals, SCF dyn. polar.
   Lee Huntington         : MR-EOM, pCC
   Robert Izsak           : Overlap fitted RIJCOSX, COSX-SCS-MP3, EOM
   Riya Kayal             : Wick's Theorem for AUTO-CI, AUTO-CI UHF-CCSDT
   Emily Kempfer          : AUTO-CI, RHF CISDT and CCSDT
   Christian Kollmar      : KDIIS, OOCD, Brueckner-CCSD(T), CCSD density, CASPT2, CASPT2-K, improved NEVPT2
   Axel Koslowski         : Symmetry handling
   Simone Kossmann        : Meta GGA functionals, TD-DFT gradient, OOMP2, (MP2 Hessian; deprecated post 5.0)
   Lucas Lang             : DCDCAS
   Marvin Lechner         : AUTO-CI (C++ implementation), FIC-MRCC
   Spencer Leger          : CASSCF response
   Dagmar Lenk            : GEPOL surface, SMD, ORCA-2-JSON
   Dimitrios Liakos       : Extrapolation schemes; Compound Job, initial MDCI parallelization
   Dimitrios Manganas     : Further ROCIS development; embedding schemes. LFT, Crystal Embedding
   Dimitrios Pantazis     : SARC Basis sets
   Anastasios Papadopoulos: AUTO-CI, single reference methods and gradients
   Taras Petrenko         : pre 6.0 DFT Hessian and TD-DFT gradient, (ASA, deprecated), ECA, 1-Electron XAS/XES, NRVS
   Peter Pinski           : DLPNO-MP2, DLPNO-MP2 Gradient
   Christoph Reimann      : Effective Core Potentials
   Marius Retegan         : Local ZFS, SOC
   Christoph Riplinger    : Optimizer, TS searches, QM/MM, DLPNO-CCSD(T), (RO)-DLPNO pert. Triples
   Michael Roemelt        : Original ROCIS implementation
   Masaaki Saitow         : Open-shell DLPNO-CCSD energy and density
   Barbara Sandhoefer     : DKH picture change effects
   Kantharuban Sivalingam : CASSCF convergence/infrastructure, NEVPT2 and variants, FIC-MRCI
   Bernardo de Souza      : ESD, SOC TD-DFT
   Georgi Stoychev        : AutoAux, RI-MP2 NMR, DLPNO-MP2 response, X2C
   Van Anh Tran           : RI-MP2 g-tensors
   Willem Van den Heuvel  : Paramagnetic NMR
   Zikuan Wang            : NOTCH, Electric field optimization 
   Frank Wennmohs         : Technical directorship and infrastructure
   Hang Xu                : AUTO-CI-Response properties 


 We gratefully acknowledge several colleagues who have allowed us to
 interface, adapt or use parts of their codes:
   Stefan Grimme, W. Hujo, H. Kruse, P. Pracht,  : VdW corrections, initial TS optimization,
                  C. Bannwarth, S. Ehlert,         DFT functionals, gCP, sTDA/sTD-DF
                  L. Wittmann, M. Mueller
   Ed Valeev, F. Pavosevic, A. Kumar             : LibInt (2-el integral package), F12 methods
   Garnet Chan, S. Sharma, J. Yang, R. Olivares  : DMRG
   Ulf Ekstrom                                   : XCFun DFT Library
   Mihaly Kallay                                 : mrcc  (arbitrary order and MRCC methods)
   Frank Weinhold                                : gennbo (NPA and NBO analysis)
   Simon Mueller                                 : openCOSMO-RS
   Christopher J. Cramer and Donald G. Truhlar   : smd solvation model
   Lars Goerigk                                  : TD-DFT with DH, B97 family of functionals
   V. Asgeirsson, H. Jonsson                     : NEB implementation
   FAccTs GmbH                                   : IRC, NEB, NEB-TS, DLPNO-Multilevel, CI-OPT
                                                   MM, QMMM, 2- and 3-layer-ONIOM, Crystal-QMMM,
                                                   LR-CPCM, SF, NACMEs, symmetry and pop. for TD-DFT,
                                                   nearIR, NL-DFT gradient (VV10), updates on ESD,
                                                   ML-optimized integration grids, MBIS, APM,
                                                   GOAT, DOCKER, SOLVATOR, interface openCOSMO-RS
   S Lehtola, MJT Oliveira, MAL Marques          : LibXC Library
   Liviu Ungur et al                             : ANISO software


 Your calculation uses the libint2 library for the computation of 2-el integrals
 For citations please refer to: http://libint.valeyev.net

 Your ORCA version has been built with support for libXC version: 6.2.2
 For citations please refer to: https://libxc.gitlab.io

 This ORCA versions uses:
   CBLAS   interface :  Fast vector & matrix operations
   LAPACKE interface :  Fast linear algebra routines
   SCALAPACK package :  Parallel linear algebra routines
   Shared memory     :  Shared parallel matrices
   BLAS/LAPACK       :  OpenBLAS 0.3.27  USE64BITINT DYNAMIC_ARCH NO_AFFINITY SkylakeX SINGLE_THREADED
        Core in use  :  SkylakeX
   Copyright (c) 2011-2014, The OpenBLAS Project


Your calculation utilizes the geometrical counterpoise correction gCP
Please cite in your paper:
H.Kruse, S. Grimme J.Chem.Phys., 136, (2012), 154101 
   

Your calculation utilizes the atom-pairwise dispersion correction
based on EEQ partial charges (D4)


Your calculation utilizes the SMD solvation module
Please cite in your paper:
A.V. Marenich, C.J. Cramer, D.G. Truhlar J. Phys. Chem. B, 113, (2009), 6378 

================================================================================

----- Orbital basis set information -----
Your calculation utilizes the basis: def2-mTZVPP
   Stefan Grimme, Andreas Hansen, Sebastian Ehlert, and Jan-Michael Mewes 
   J. Chem. Phys. 154, 064103 (2021). DOI: 10.1063/5.0040021

----- AuxJ basis set information -----
Your calculation utilizes the auxiliary basis: def2/J
   F. Weigend, Phys. Chem. Chem. Phys. 8, 1057 (2006).

================================================================================
                                        WARNINGS
                       Please study these warnings very carefully!
================================================================================

Using LibXC functional ID 497 : Re-regularized SCAN exchange by Furness et al
[ 1]  J. W. Furness, A. D. Kaplan, J. Ning, J. P. Perdew, and J. Sun.,  J. Phys. Chem. Lett. 11, 8208-8215 (2020)
[ 2]  J. W. Furness, A. D. Kaplan, J. Ning, J. P. Perdew, and J. Sun.,  J. Phys. Chem. Lett. 11, 9248-9248 (2020)
Using LibXC functional ID 498 : Re-regularized SCAN correlation by Furness et al
[ 1]  J. W. Furness, A. D. Kaplan, J. Ning, J. P. Perdew, and J. Sun.,  J. Phys. Chem. Lett. 11, 8208-8215 (2020)
[ 2]  J. W. Furness, A. D. Kaplan, J. Ning, J. P. Perdew, and J. Sun.,  J. Phys. Chem. Lett. 11, 9248-9248 (2020)
Using LibXC functional ID 497 : Re-regularized SCAN exchange by Furness et al
[ 1]  J. W. Furness, A. D. Kaplan, J. Ning, J. P. Perdew, and J. Sun.,  J. Phys. Chem. Lett. 11, 8208-8215 (2020)
[ 2]  J. W. Furness, A. D. Kaplan, J. Ning, J. P. Perdew, and J. Sun.,  J. Phys. Chem. Lett. 11, 9248-9248 (2020)
Using LibXC functional ID 498 : Re-regularized SCAN correlation by Furness et al
[ 1]  J. W. Furness, A. D. Kaplan, J. Ning, J. P. Perdew, and J. Sun.,  J. Phys. Chem. Lett. 11, 8208-8215 (2020)
[ 2]  J. W. Furness, A. D. Kaplan, J. Ning, J. P. Perdew, and J. Sun.,  J. Phys. Chem. Lett. 11, 9248-9248 (2020)

================================================================================
                                       INPUT FILE
================================================================================
NAME = sp_solv.inp
|  1> ! r2scan-3c def2/J RI DEFGRID2 scfconv6 printgap
|  2> %output
|  3>     printlevel normal
|  4> end
|  5> %cpcm
|  6>     smd true
|  7>     smdsolvent "water"
|  8> end
|  9> * xyz 0 1
| 10> C 1.7607652488 -0.8747613549 1.1958676484
| 11> C 1.4876762091 -0.2572796502 -0.1698778313
| 12> C 0.3056847282 0.7213095631 -0.2095618271
| 13> H 0.4689439201 1.4931644778 0.5629258666
| 14> C -1.1049704753 0.13290476 0.0080074361
| 15> C -1.3100496475 -1.1980209905 -0.7109460539
| 16> C -1.4886479328 0.0263349354 1.481903734
| 17> O 0.2534759344 1.3587818851 -1.4818836885
| 18> H 1.0039791878 -1.6071983201 1.4590105134
| 19> H 1.7836509925 -0.1060761271 1.9647790877
| 20> H 2.724495767 -1.378313622 1.1834919569
| 21> H 2.3757675417 0.3057482873 -0.4731762938
| 22> H 1.3308049408 -1.039545062 -0.9128973957
| 23> H -1.7736274177 0.8669787385 -0.4586630768
| 24> H -1.0123978198 -1.1085576178 -1.7527952919
| 25> H -0.7343415396 -1.9911159122 -0.2414762686
| 26> H -2.3611695747 -1.4741736669 -0.6770295622
| 27> H -0.9023974407 -0.7311165642 1.9917662097
| 28> H -2.5385866693 -0.2442235053 1.5638530013
| 29> H -1.3405996982 0.9774379106 1.9878244108
| 30> H 1.1172424002 1.7413293043 -1.6862694854
| 31> *
| 32> 
| 33>                          ****END OF INPUT****
================================================================================

                       ****************************
                       * Single Point Calculation *
                       ****************************

---------------------------------
CARTESIAN COORDINATES (ANGSTROEM)
---------------------------------
  C      1.760765   -0.874761    1.195868
  C      1.487676   -0.257280   -0.169878
  C      0.305685    0.721310   -0.209562
  H      0.468944    1.493164    0.562926
  C     -1.104970    0.132905    0.008007
  C     -1.310050   -1.198021   -0.710946
  C     -1.488648    0.026335    1.481904
  O      0.253476    1.358782   -1.481884
  H      1.003979   -1.607198    1.459011
  H      1.783651   -0.106076    1.964779
  H      2.724496   -1.378314    1.183492
  H      2.375768    0.305748   -0.473176
  H      1.330805   -1.039545   -0.912897
  H     -1.773627    0.866979   -0.458663
  H     -1.012398   -1.108558   -1.752795
  H     -0.734342   -1.991116   -0.241476
  H     -2.361170   -1.474174   -0.677030
  H     -0.902397   -0.731117    1.991766
  H     -2.538587   -0.244224    1.563853
  H     -1.340600    0.977438    1.987824
  H      1.117242    1.741329   -1.686269

----------------------------
CARTESIAN COORDINATES (A.U.)
----------------------------
  NO LB      ZA    FRAG     MASS         X           Y           Z
   0 C     6.0000    0    12.011    3.327364   -1.653059    2.259862
   1 C     6.0000    0    12.011    2.811301   -0.486188   -0.321023
   2 C     6.0000    0    12.011    0.577660    1.363078   -0.396014
   3 H     1.0000    0     1.008    0.886176    2.821672    1.063776
   4 C     6.0000    0    12.011   -2.088092    0.251154    0.015132
   5 C     6.0000    0    12.011   -2.475635   -2.263932   -1.343493
   6 C     6.0000    0    12.011   -2.813137    0.049766    2.800392
   7 O     8.0000    0    15.999    0.479000    2.567726   -2.800354
   8 H     1.0000    0     1.008    1.897246   -3.037165    2.757130
   9 H     1.0000    0     1.008    3.370612   -0.200455    3.712894
  10 H     1.0000    0     1.008    5.148551   -2.604635    2.236476
  11 H     1.0000    0     1.008    4.489550    0.577781   -0.894174
  12 H     1.0000    0     1.008    2.514857   -1.964455   -1.725126
  13 H     1.0000    0     1.008   -3.351670    1.638352   -0.866748
  14 H     1.0000    0     1.008   -1.913155   -2.094870   -3.312303
  15 H     1.0000    0     1.008   -1.387704   -3.762664   -0.456324
  16 H     1.0000    0     1.008   -4.461964   -2.785785   -1.279400
  17 H     1.0000    0     1.008   -1.705284   -1.381610    3.763893
  18 H     1.0000    0     1.008   -4.797234   -0.461516    2.955254
  19 H     1.0000    0     1.008   -2.533366    1.847090    3.756444
  20 H     1.0000    0     1.008    2.111282    3.290635   -3.186588

--------------------------------
INTERNAL COORDINATES (ANGSTROEM)
--------------------------------
 C      0   0   0     0.000000000000     0.00000000     0.00000000
 C      1   0   0     1.523522889413     0.00000000     0.00000000
 C      2   1   0     1.535029487935   114.80797278     0.00000000
 H      3   2   1     1.104151624554   108.28273374    54.38020306
 C      3   2   1     1.543860323916   117.19126503   292.48230831
 C      5   3   2     1.526536911115   112.87163903   318.92290700
 C      5   3   2     1.526740258155   113.09603146    86.13134864
 O      3   2   1     1.424043411720   109.67638707   172.63142740
 H      1   2   3     1.085556639478   111.45670665    72.51061402
 H      1   2   3     1.087485879535   110.55580162   311.52512955
 H      1   2   3     1.087425655000   109.65389707   191.98042216
 H      2   1   3     1.094393270630   108.14913195   119.17007645
 H      2   1   3     1.090241185425   110.23815636   236.17058796
 H      5   3   2     1.097154537948   103.99994300   202.69060751
 H      6   5   3     1.087221293164   110.04720332   309.43412452
 H      6   5   3     1.086665201264   111.20305433    70.58018924
 H      6   5   3     1.087319516264   109.67049371   190.28751366
 H      7   5   3     1.085072420560   111.50446652   290.89251474
 H      7   5   3     1.087331091549   109.43822323   171.20061189
 H      7   5   3     1.087414769265   110.72487027    51.88724633
 H      8   3   2     0.966544664954   109.47171439   307.67558271

---------------------------
INTERNAL COORDINATES (A.U.)
---------------------------
 C      0   0   0     0.000000000000     0.00000000     0.00000000
 C      1   0   0     2.879041019750     0.00000000     0.00000000
 C      2   1   0     2.900785339690   114.80797278     0.00000000
 H      3   2   1     2.086544180731   108.28273374    54.38020306
 C      3   2   1     2.917473201228   117.19126503   292.48230831
 C      5   3   2     2.884736695330   112.87163903   318.92290700
 C      5   3   2     2.885120965546   113.09603146    86.13134864
 O      3   2   1     2.691052050965   109.67638707   172.63142740
 H      1   2   3     2.051404751474   111.45670665    72.51061402
 H      1   2   3     2.055050486829   110.55580162   311.52512955
 H      1   2   3     2.054936678950   109.65389707   191.98042216
 H      2   1   3     2.068103564297   108.14913195   119.17007645
 H      2   1   3     2.060257260376   110.23815636   236.17058796
 H      5   3   2     2.073321603311   103.99994300   202.69060751
 H      6   5   3     2.054550491048   110.04720332   309.43412452
 H      6   5   3     2.053499629651   111.20305433    70.58018924
 H      6   5   3     2.054736105807   109.67049371   190.28751366
 H      7   5   3     2.050489710330   111.50446652   290.89251474
 H      7   5   3     2.054757979924   109.43822323   171.20061189
 H      7   5   3     2.054916107893   110.72487027    51.88724633
 H      8   3   2     1.826504712966   109.47171439   307.67558271

---------------------
BASIS SET INFORMATION
---------------------
There are 3 groups of distinct atoms

 Group   1 Type C   : 11s6p1d contracted to 5s3p1d pattern {62111/411/1}
 Group   2 Type H   : 4s1p contracted to 2s1p pattern {31/1}
 Group   3 Type O   : 11s6p2d contracted to 5s3p2d pattern {62111/411/11}

Atom   0C    basis set group =>   1
Atom   1C    basis set group =>   1
Atom   2C    basis set group =>   1
Atom   3H    basis set group =>   2
Atom   4C    basis set group =>   1
Atom   5C    basis set group =>   1
Atom   6C    basis set group =>   1
Atom   7O    basis set group =>   3
Atom   8H    basis set group =>   2
Atom   9H    basis set group =>   2
Atom  10H    basis set group =>   2
Atom  11H    basis set group =>   2
Atom  12H    basis set group =>   2
Atom  13H    basis set group =>   2
Atom  14H    basis set group =>   2
Atom  15H    basis set group =>   2
Atom  16H    basis set group =>   2
Atom  17H    basis set group =>   2
Atom  18H    basis set group =>   2
Atom  19H    basis set group =>   2
Atom  20H    basis set group =>   2
---------------------------------
AUXILIARY/J BASIS SET INFORMATION
---------------------------------
There are 3 groups of distinct atoms

 Group   1 Type C   : 12s5p4d2f1g contracted to 6s4p3d1f1g pattern {711111/2111/211/2/1}
 Group   2 Type H   : 5s2p1d contracted to 3s1p1d pattern {311/2/1}
 Group   3 Type O   : 12s5p4d2f1g contracted to 6s4p3d1f1g pattern {711111/2111/211/2/1}

Atom   0C    basis set group =>   1
Atom   1C    basis set group =>   1
Atom   2C    basis set group =>   1
Atom   3H    basis set group =>   2
Atom   4C    basis set group =>   1
Atom   5C    basis set group =>   1
Atom   6C    basis set group =>   1
Atom   7O    basis set group =>   3
Atom   8H    basis set group =>   2
Atom   9H    basis set group =>   2
Atom  10H    basis set group =>   2
Atom  11H    basis set group =>   2
Atom  12H    basis set group =>   2
Atom  13H    basis set group =>   2
Atom  14H    basis set group =>   2
Atom  15H    basis set group =>   2
Atom  16H    basis set group =>   2
Atom  17H    basis set group =>   2
Atom  18H    basis set group =>   2
Atom  19H    basis set group =>   2
Atom  20H    basis set group =>   2

Checking for AutoStart:
The File: sp_solv.gbw exists
Trying to determine its content:
     ... Fine, the file contains calculation information
     ... Fine, the calculation information was read
     ... Fine, the file contains a basis set
     ... Fine, the basis set was read
     ... Fine, the file contains a geometry
     ... Fine, the geometry was read
     ... Fine, the file contains a set of orbitals
     ... Fine, the orbitals can be read
     => possible old guess file was deleted
     => GBW file was renamed to GES file
     => GES file is set as startup file
     => Guess is set to MORead
     ... now leaving AutoStart

------------------------------------------------------------------------------
                             ORCA STARTUP CALCULATIONS
                           -- RI-GTO INTEGRALS CHOSEN --
------------------------------------------------------------------------------
------------------------------------------------------------------------------
                   ___                                                        
                  /   \      - P O W E R E D   B Y -                         
                 /     \                                                     
                 |  |  |   _    _      __       _____    __    __             
                 |  |  |  | |  | |    /  \     |  _  \  |  |  /  |          
                  \  \/   | |  | |   /    \    | | | |  |  | /  /          
                 / \  \   | |__| |  /  /\  \   | |_| |  |  |/  /          
                |  |  |   |  __  | /  /__\  \  |    /   |      \           
                |  |  |   | |  | | |   __   |  |    \   |  |\   \          
                \     /   | |  | | |  |  |  |  | |\  \  |  | \   \       
                 \___/    |_|  |_| |__|  |__|  |_| \__\ |__|  \__/        
                                                                              
                      - O R C A' S   B I G   F R I E N D -                    
                                      &                                       
                       - I N T E G R A L  F E E D E R -                       
                                                                              
 v1 FN, 2020, v2 2021, v3 2022-2024                                           
------------------------------------------------------------------------------


----------------------
SHARK INTEGRAL PACKAGE
----------------------

Number of atoms                             ...     21
Number of basis functions                   ...    208
Number of shells                            ...    106
Maximum angular momentum                    ...      2
Integral batch strategy                     ... SHARK/LIBINT Hybrid
RI-J (if used) integral strategy            ... SPLIT-RIJ (Revised 2003 algorithm where possible)
Printlevel                                  ...      1
Contraction scheme used                     ... SEGMENTED contraction
Prescreening option                         ... SCHWARTZ
   Thresh                                   ... 1.000e-10
   Tcut                                     ... 1.000e-11
   Tpresel                                  ... 1.000e-11 
Coulomb Range Separation                    ... NOT USED
Exchange Range Separation                   ... NOT USED
Multipole approximations                    ... NOT USED
Finite Nucleus Model                        ... NOT USED
CABS basis                                  ... NOT available
Auxiliary Coulomb fitting basis             ... AVAILABLE
   # of basis functions in Aux-J            ...    497
   # of shells in Aux-J                     ...    175
   Maximum angular momentum in Aux-J        ...      4
Auxiliary J/K fitting basis                 ... NOT available
Auxiliary Correlation fitting basis         ... NOT available
Auxiliary 'external' fitting basis          ... NOT available

Checking pre-screening integrals            ... done (  0.0 sec) Dimension = 106
Check shell pair data                       ... done (  0.0 sec)
Shell pair information
Shell pair cut-off parameter TPreSel        ...   1.0e-11
Total number of shell pairs                 ...      5671
Shell pairs after pre-screening             ...      5272
Total number of primitive shell pairs       ...     19699
Primitive shell pairs kept                  ...     13200
          la=0 lb=0:   1859 shell pairs
          la=1 lb=0:   2039 shell pairs
          la=1 lb=1:    585 shell pairs
          la=2 lb=0:    482 shell pairs
          la=2 lb=1:    271 shell pairs
          la=2 lb=2:     36 shell pairs

Calculating one electron integrals          ... done (  0.0 sec)
Calculating RI/J V-Matrix + Cholesky decomp.... done (  0.1 sec)
Calculating Nuclear repulsion               ... done (  0.0 sec) ENN=    341.297625522706 Eh

Diagonalization of the overlap matrix:
Smallest eigenvalue                        ... 1.519e-04
Time for diagonalization                   ...    0.003 sec
Threshold for overlap eigenvalues          ... 1.000e-07
Number of eigenvalues below threshold      ... 0
Time for construction of square roots      ...    0.014 sec
Total time needed                          ...    0.029 sec

-------------------
DFT GRID GENERATION
-------------------

General Integration Accuracy     IntAcc      ... 4.388
Radial Grid Type                 RadialGrid  ... OptM3 with GC (2021)
Angular Grid (max. ang.)         AngularGrid ... 4 (Lebedev-302)
Angular grid pruning method      GridPruning ... 4 (adaptive)
Weight generation scheme         WeightScheme... mBecke (2022)
Basis function cutoff            BFCut       ... 1.0000e-10
Integration weight cutoff        WCut        ... 1.0000e-14
Partially contracted basis set               ... off
Rotationally invariant grid construction     ... off
Angular grids for H and He will be reduced by one unit
Diffuse basis detected: some atoms will have their outermost
                        angular grid increased by 1.

Total number of grid points                  ...    86889
Total number of batches                      ...     1367
Average number of points per batch           ...       63
Average number of grid points per atom       ...     4138
Initializing property integral containers    ... done (  0.0 sec)

SHARK setup successfully completed in   1.3 seconds

Maximum memory used throughout the entire STARTUP-calculation: 38.2 MB
-------------------------------------------------------------------------------
                                 ORCA GUESS
                   Start orbitals & Density for SCF / CASSCF
-------------------------------------------------------------------------------

------------
SCF SETTINGS
------------
Hamiltonian:
 Density Functional     Method          .... DFT(GTOs)
  Functional kind                       .... Exchange
  Functional name                       .... Re-regularized SCAN exchange by Furness et al
  Functional family                     .... MGGA
  Functional refs                              
    [ 0] J. W. Furness, A. D. Kaplan, J. Ning, J. P. Perdew, and J. Sun.,  J. Phys. Chem. Lett. 11, 8208-8215 (2020), doi: 10.1021/acs.jpclett.0c02405
    [ 1] J. W. Furness, A. D. Kaplan, J. Ning, J. P. Perdew, and J. Sun.,  J. Phys. Chem. Lett. 11, 9248-9248 (2020), doi: 10.1021/acs.jpclett.0c03077
  Functional external parameters        .... 6
    Parameter  0 _c1        =  6.670000e-01 : c1 parameter        
    Parameter  1 _c2        =  8.000000e-01 : c2 parameter        
    Parameter  2 _d         =  1.240000e+00 : d parameter         
    Parameter  3 _k1        =  6.500000e-02 : k1 parameter        
    Parameter  4 _eta       =  1.000000e-03 : eta parameter       
    Parameter  5 _dp2       =  3.610000e-01 : dp2 parameter       
  Functional kind                       .... Correlation
  Functional name                       .... Re-regularized SCAN correlation by Furness et al
  Functional family                     .... MGGA
  Functional refs                              
    [ 0] J. W. Furness, A. D. Kaplan, J. Ning, J. P. Perdew, and J. Sun.,  J. Phys. Chem. Lett. 11, 8208-8215 (2020), doi: 10.1021/acs.jpclett.0c02405
    [ 1] J. W. Furness, A. D. Kaplan, J. Ning, J. P. Perdew, and J. Sun.,  J. Phys. Chem. Lett. 11, 9248-9248 (2020), doi: 10.1021/acs.jpclett.0c03077
  Functional external parameters        .... 1
    Parameter  0 _eta       =  1.000000e-03 : Regularization parameter
 Gradients option       PostSCFGGA      .... off
 RI-approximation to the Coulomb term is turned on
   Number of AuxJ basis functions       .... 497


General Settings:
 Integral files         IntName         .... sp_solv
 Hartree-Fock type      HFTyp           .... RHF
 Total Charge           Charge          ....    0
 Multiplicity           Mult            ....    1
 Number of Electrons    NEL             ....   58
 Basis Dimension        Dim             ....  208
 Nuclear Repulsion      ENuc            ....    341.2976255227 Eh

Convergence Acceleration:
 AO-DIIS                CNVDIIS         .... on
   Start iteration      DIISMaxIt       ....    12
   Startup error        DIISStart       ....  0.200000
   # of expansion vecs  DIISMaxEq       ....     5
   Bias factor          DIISBfac        ....   1.050
   Max. coefficient     DIISMaxC        ....  10.000
 MO-DIIS                CNVKDIIS        .... off
 Trust-Rad. Augm. Hess. CNVTRAH         .... auto
   Auto Start mean grad. ratio tolernc. ....  1.125000
   Auto Start start iteration           ....     1
   Auto Start num. interpolation iter.  ....    10
   Max. Number of Micro iterations      ....    24
   Max. Number of Macro iterations      .... Maxiter - #DIIS iter
   Number of Davidson start vectors     ....     2
   Converg. threshold    (grad. norm)   ....   3.330e-04
   Grad. Scal. Fac. for Micro threshold ....   0.100
   Minimum threshold for Micro iter.    ....   1.000e-02
   NR start threshold (gradient norm)   ....   1.000e-04
   Initial trust radius                 ....   0.400
   Minimum AH scaling param. (alpha)    ....   1.000
   Maximum AH scaling param. (alpha)    .... 1000.000
   Quad. conv. algorithm                .... NR
   White noise on init. David. guess    .... on
   Maximum white noise                  ....   0.010
   Pseudo random numbers                .... off
   Inactive MOs                         .... canonical
   Orbital update algorithm             .... Taylor
   Preconditioner                       .... Diag
   Full preconditioner red. dimension   ....   250
   COSX micro iterations for RIJONX calc.... off
 SOSCF                  CNVSOSCF        .... on
   Start iteration      SOSCFMaxIt      ....   150
   Startup grad/error   SOSCFStart      ....  0.003300
   Hessian update       SOSCFHessUp     .... L-BFGS
 Level Shifting         CNVShift        .... on
   Level shift para.    LevelShift      ....    0.2500
   Turn off err/grad.   ShiftErr        ....    0.0010
 Zerner damping         CNVZerner       .... off
 Static damping         CNVDamp         .... on
   Fraction old density DampFac         ....    0.7000
   Max. Damping (<1)    DampMax         ....    0.9800
   Min. Damping (>=0)   DampMin         ....    0.0000
   Turn off err/grad.   DampErr         ....    0.1000

SCF Procedure:
 Maximum # iterations   MaxIter         ....   125
 SCF integral mode      SCFMode         .... Direct
   Integral package                     .... SHARK and LIBINT hybrid scheme
 Reset frequency        DirectResetFreq ....    20
 Integral Threshold     Thresh          ....  1.000e-10 Eh
 Primitive CutOff       TCut            ....  1.000e-11 Eh

Convergence Tolerance:
 Convergence Check Mode ConvCheckMode   .... Total+1el-Energy
 Convergence forced     ConvForced      .... 0
 Energy Change          TolE            ....  1.000e-06 Eh
 1-El. energy change                    ....  1.000e-03 Eh
 Orbital Gradient       TolG            ....  3.330e-04
 Orbital Rotation angle TolX            ....  3.330e-04
 DIIS Error             TolErr          ....  1.000e-06

---------------------
INITIAL GUESS: MOREAD
---------------------
Guess MOs are being read from file: sp_solv.ges
Input Geometry matches current geometry (good)
Atom 0: N(Shells)= 9 and 6 - projection required
Input basis set needs projection
NBasis(read)= 126
NBasis(calc)= 208
Basis set overlap was calculated
Using GuessMode=FMatrix for the initial guess
C*T matrix was formed
Effective Fockian was calculated
Effective Fockian was diagonalized
Initial density was built
                      ------------------
                      INITIAL GUESS DONE (   0.0 sec)
                      ------------------
             **** ENERGY FILE WAS UPDATED (sp_solv.en.tmp) ****
Finished Guess after   0.3 sec
Maximum memory used throughout the entire GUESS-calculation: 14.5 MB

-------------------------------------------------------------------------------------------
                                      ORCA LEAN-SCF
                              memory conserving SCF solver
-------------------------------------------------------------------------------------------

--------------------
CPCM SOLVATION MODEL
--------------------
CPCM parameters:
  Epsilon                                         ...      78.3550
  Refrac                                          ...       1.3328
  Rsolv                                           ...       1.3000
  Surface type                                    ... GAUSSIAN VDW
  Discretization scheme                           ... Constant charge density
    Threshold for H atoms                         ...       5.0000 (charges/Ang^2)
    Threshold for non-H atoms                     ...       5.0000 (charges/Ang^2)
  Epsilon function type                           ...         CPCM
Solvent:                                          ... WATER
SMD-CDS solvent descriptors:
  Soln                                            ...       1.3328
  Soln25                                          ...       1.3323
  Sola                                            ...       0.0000
  Solb                                            ...       0.0000
  Solg                                            ...       0.0000
  Solc                                            ...       0.0000
  Solh                                            ...       0.0000
Radii:
  Scheme                                          ... Element-dependent radii
  Radius for C  used is    3.4960 Bohr (=   1.8500 Ang.)
  Radius for H  used is    2.2677 Bohr (=   1.2000 Ang.)
  Radius for O  used is    2.8724 Bohr (=   1.5200 Ang.)
Calculating surface                               ...        done! (  0.0s)
Cavity surface points                             ...         1516
Cavity Volume                                     ...     852.3941
Cavity Surface-area                               ...     556.2819
Calculating surface distance matrix               ...        done! (  0.0s)
Performing Cholesky decomposition & store         ...        done! (  0.1s)
Overall time for CPCM initialization              ...                 0.1s

----------------------------------------D-I-I-S--------------------------------------------
Iteration    Energy (Eh)           Delta-E    RMSDP     MaxDP     DIISErr   Damp  Time(sec)
-------------------------------------------------------------------------------------------
               ***  Starting incremental Fock matrix formation  ***
    1    -312.0367056195340183     0.00e+00  4.57e-03  1.95e-01  6.28e-01  0.700   3.4
    2    -312.0898290845964311    -5.31e-02  3.64e-03  1.27e-01  4.42e-01  0.700   3.1
    3    -312.1275402131789178    -3.77e-02  2.65e-03  8.50e-02  3.10e-01  0.700   3.0
    4    -312.1540723847020899    -2.65e-02  1.89e-03  5.81e-02  2.17e-01  0.700   3.0
                               ***Turning on AO-DIIS***
    5    -312.1727126881411323    -1.86e-02  1.36e-03  3.88e-02  1.52e-01  0.700   3.0
    6    -312.1857945315853158    -1.31e-02  9.66e-04  2.68e-02  1.06e-01  0.700   2.9
    7    -312.1949757433022796    -9.18e-03  6.81e-04  1.86e-02  7.43e-02  0.700   2.9
    8    -312.2014134379894585    -6.44e-03  1.60e-03  4.30e-02  5.21e-02  0.000   2.8
                              *** Initializing SOSCF ***
---------------------------------------S-O-S-C-F--------------------------------------
Iteration    Energy (Eh)           Delta-E    RMSDP     MaxDP     MaxGrad    Time(sec)
--------------------------------------------------------------------------------------
    9    -312.2164732004210919    -1.51e-02  1.40e-05  3.25e-04  1.43e-04     2.9
               *** Restarting incremental Fock matrix formation ***
   10    -312.2164734044874876    -2.04e-07  6.63e-06  1.41e-04  2.68e-05     3.2
                  *** Gradient check signals convergence ***

               *****************************************************
               *                     SUCCESS                       *
               *           SCF CONVERGED AFTER  10 CYCLES          *
               *****************************************************


SMD CDS free energy correction energy :                 3.73062     Kcal/mol
Total Energy after SMD CDS correction =              -312.210528285 Eh
             **** ENERGY FILE WAS UPDATED (sp_solv.en.tmp) ****

----------------
TOTAL SCF ENERGY
----------------

Total Energy       :       -312.21052828450888 Eh           -8495.68039 eV

Components:
Nuclear Repulsion  :        341.29762552270586 Eh            9287.18054 eV
Electronic Energy  :       -653.50011202449730 Eh          -17782.64210 eV
One Electron Energy:      -1098.40068677140493 Eh          -29889.00221 eV
Two Electron Energy:        444.90057474690764 Eh           12106.36011 eV
CPCM Dielectric    :         -0.01398690269599 Eh              -0.38060 eV
SMD CDS (Gcds)     :          0.00594511997863 Eh               0.16177 eV

Virial components:
Potential Energy   :       -623.00018740353948 Eh          -16952.69696 eV
Kinetic Energy     :        310.78965911903055 Eh            8457.01657 eV
Virial Ratio       :          2.00457180322378

DFT components:
N(Alpha)           :       29.000148701523 electrons
N(Beta)            :       29.000148701523 electrons
N(Total)           :       58.000297403047 electrons
E(X)               :      -44.505425897546 Eh       
E(C)               :       -1.814482965525 Eh       
E(XC)              :      -46.319908863071 Eh       

CPCM Solvation Model Properties:
Surface-charge          :         -0.04874402626397
Corrected charge        :         -0.00000000000000
Outlying charge corr.   :          0.00018857119353 Eh               0.00513 eV
Free-energy (cav+disp)  :          0.00594511997863 Eh               0.16177 eV

---------------
SCF CONVERGENCE
---------------

  Last Energy change         ...    2.0407e-07  Tolerance :   1.0000e-06
  Last MAX-Density change    ...    1.4098e-04  Tolerance :   1.0000e-05
  Last RMS-Density change    ...    6.6314e-06  Tolerance :   1.0000e-06
  Last DIIS Error            ...    1.4253e-04  Tolerance :   1.0000e-06
  Last Orbital Gradient      ...    2.6821e-05  Tolerance :   3.3300e-04
  Last Orbital Rotation      ...    4.1377e-05  Tolerance :   3.3300e-04


----------------
ORBITAL ENERGIES
----------------

  NO   OCC          E(Eh)            E(eV) 
   0   2.0000     -18.946193      -515.5521 
   1   2.0000     -10.071457      -274.0583 
   2   2.0000     -10.026028      -272.8221 
   3   2.0000     -10.017512      -272.5904 
   4   2.0000     -10.009943      -272.3844 
   5   2.0000     -10.007118      -272.3075 
   6   2.0000     -10.006809      -272.2991 
   7   2.0000      -0.982683       -26.7402 
   8   2.0000      -0.766240       -20.8504 
   9   2.0000      -0.720651       -19.6099 
  10   2.0000      -0.643820       -17.5192 
  11   2.0000      -0.633009       -17.2250 
  12   2.0000      -0.571853       -15.5609 
  13   2.0000      -0.504566       -13.7300 
  14   2.0000      -0.472167       -12.8483 
  15   2.0000      -0.441999       -12.0274 
  16   2.0000      -0.403974       -10.9927 
  17   2.0000      -0.387797       -10.5525 
  18   2.0000      -0.380151       -10.3444 
  19   2.0000      -0.368970       -10.0402 
  20   2.0000      -0.349838        -9.5196 
  21   2.0000      -0.343849        -9.3566 
  22   2.0000      -0.329507        -8.9663 
  23   2.0000      -0.312221        -8.4960 
  24   2.0000      -0.302717        -8.2373 
  25   2.0000      -0.297890        -8.1060 
  26   2.0000      -0.287803        -7.8315 
  27   2.0000      -0.265084        -7.2133 
  28   2.0000      -0.234456        -6.3799 
  29   0.0000       0.080151         2.1810 
  30   0.0000       0.086866         2.3638 
  31   0.0000       0.117652         3.2015 
  32   0.0000       0.126152         3.4328 
  33   0.0000       0.134729         3.6662 
  34   0.0000       0.141927         3.8620 
  35   0.0000       0.145639         3.9630 
  36   0.0000       0.159356         4.3363 
  37   0.0000       0.163784         4.4568 
  38   0.0000       0.170847         4.6490 
  39   0.0000       0.177646         4.8340 
*Only the first 10 virtual orbitals were printed.

                    ********************************
                    * MULLIKEN POPULATION ANALYSIS *
                    ********************************

-----------------------
MULLIKEN ATOMIC CHARGES
-----------------------
   0 C :   -0.547758
   1 C :   -0.242951
   2 C :    0.003144
   3 H :    0.148806
   4 C :    0.003432
   5 C :   -0.570888
   6 C :   -0.545589
   7 O :   -0.520602
   8 H :    0.164772
   9 H :    0.164332
  10 H :    0.158055
  11 H :    0.147933
  12 H :    0.165017
  13 H :    0.153900
  14 H :    0.165097
  15 H :    0.168948
  16 H :    0.162068
  17 H :    0.165314
  18 H :    0.158509
  19 H :    0.162220
  20 H :    0.336242
Sum of atomic charges:    0.0000000

--------------------------------
MULLIKEN REDUCED ORBITAL CHARGES
--------------------------------
  0 C s       :     3.365193  s :     3.365193
      pz      :     0.963821  p :     3.155597
      px      :     1.112678
      py      :     1.079098
      dz2     :     0.006702  d :     0.026968
      dxz     :     0.003098
      dyz     :     0.008213
      dx2y2   :     0.002365
      dxy     :     0.006590

  1 C s       :     3.188773  s :     3.188773
      pz      :     0.981348  p :     3.018124
      px      :     1.017019
      py      :     1.019757
      dz2     :     0.007823  d :     0.036054
      dxz     :     0.004628
      dyz     :     0.009591
      dx2y2   :     0.004834
      dxy     :     0.009178

  2 C s       :     3.243615  s :     3.243615
      pz      :     0.791850  p :     2.687019
      px      :     0.941388
      py      :     0.953781
      dz2     :     0.017410  d :     0.066223
      dxz     :     0.008880
      dyz     :     0.018143
      dx2y2   :     0.010137
      dxy     :     0.011653

  3 H s       :     0.834292  s :     0.834292
      pz      :     0.006776  p :     0.016902
      px      :     0.003420
      py      :     0.006706

  4 C s       :     3.067443  s :     3.067443
      pz      :     0.919514  p :     2.883947
      px      :     0.984699
      py      :     0.979735
      dz2     :     0.010652  d :     0.045179
      dxz     :     0.007001
      dyz     :     0.009615
      dx2y2   :     0.007835
      dxy     :     0.010077

  5 C s       :     3.368922  s :     3.368922
      pz      :     1.073429  p :     3.174917
      px      :     1.119373
      py      :     0.982114
      dz2     :     0.007463  d :     0.027050
      dxz     :     0.002142
      dyz     :     0.005344
      dx2y2   :     0.006257
      dxy     :     0.005844

  6 C s       :     3.359235  s :     3.359235
      pz      :     0.952931  p :     3.159376
      px      :     1.098540
      py      :     1.107905
      dz2     :     0.006731  d :     0.026979
      dxz     :     0.004405
      dyz     :     0.007468
      dx2y2   :     0.005185
      dxy     :     0.003190

  7 O s       :     3.767574  s :     3.767574
      pz      :     1.452816  p :     4.730480
      px      :     1.546439
      py      :     1.731225
      dz2     :     0.004847  d :     0.022548
      dxz     :     0.005233
      dyz     :     0.002375
      dx2y2   :     0.005380
      dxy     :     0.004712

  8 H s       :     0.816666  s :     0.816666
      pz      :     0.004061  p :     0.018562
      px      :     0.007465
      py      :     0.007036

  9 H s       :     0.817370  s :     0.817370
      pz      :     0.007367  p :     0.018299
      px      :     0.003687
      py      :     0.007244

 10 H s       :     0.823568  s :     0.823568
      pz      :     0.003622  p :     0.018377
      px      :     0.009466
      py      :     0.005289

 11 H s       :     0.834148  s :     0.834148
      pz      :     0.004077  p :     0.017918
      px      :     0.008561
      py      :     0.005281

 12 H s       :     0.816857  s :     0.816857
      pz      :     0.007014  p :     0.018126
      px      :     0.003712
      py      :     0.007399

 13 H s       :     0.828577  s :     0.828577
      pz      :     0.004720  p :     0.017523
      px      :     0.006105
      py      :     0.006698

 14 H s       :     0.816575  s :     0.816575
      pz      :     0.010397  p :     0.018329
      px      :     0.004236
      py      :     0.003695

 15 H s       :     0.812682  s :     0.812682
      pz      :     0.004961  p :     0.018370
      px      :     0.005851
      py      :     0.007558

 16 H s       :     0.819614  s :     0.819614
      pz      :     0.003688  p :     0.018318
      px      :     0.010472
      py      :     0.004157

 17 H s       :     0.816036  s :     0.816036
      pz      :     0.005230  p :     0.018650
      px      :     0.006052
      py      :     0.007368

 18 H s       :     0.823164  s :     0.823164
      pz      :     0.003614  p :     0.018327
      px      :     0.010517
      py      :     0.004196

 19 H s       :     0.819446  s :     0.819446
      pz      :     0.005242  p :     0.018334
      px      :     0.003867
      py      :     0.009226

 20 H s       :     0.620644  s :     0.620644
      pz      :     0.009232  p :     0.043114
      px      :     0.020569
      py      :     0.013313


------------------------
MULLIKEN OVERLAP CHARGES
------------------------
B(  0-C ,  1-C ) :   0.2377 B(  0-C ,  2-C ) :  -0.1660 B(  0-C ,  8-H ) :   0.8565 
B(  0-C ,  9-H ) :   0.8630 B(  0-C , 10-H ) :   0.7734 B(  0-C , 11-H ) :  -0.0503 
B(  0-C , 12-H ) :  -0.0540 B(  1-C ,  2-C ) :   0.4244 B(  1-C ,  3-H ) :  -0.1205 
B(  1-C ,  4-C ) :  -0.0836 B(  1-C ,  7-O ) :  -0.1387 B(  1-C ,  8-H ) :  -0.0842 
B(  1-C ,  9-H ) :  -0.1254 B(  1-C , 10-H ) :  -0.0513 B(  1-C , 11-H ) :   0.8168 
B(  1-C , 12-H ) :   0.8515 B(  2-C ,  3-H ) :   0.8984 B(  2-C ,  4-C ) :   0.2223 
B(  2-C ,  5-C ) :  -0.1296 B(  2-C ,  6-C ) :  -0.1011 B(  2-C ,  7-O ) :   0.3157 
B(  2-C , 11-H ) :  -0.0895 B(  2-C , 12-H ) :  -0.0673 B(  2-C , 13-H ) :  -0.1351 
B(  2-C , 20-H ) :  -0.0805 B(  3-H ,  4-C ) :  -0.1741 B(  3-H ,  7-O ) :  -0.1092 
B(  4-C ,  5-C ) :   0.3524 B(  4-C ,  6-C ) :   0.3476 B(  4-C ,  7-O ) :  -0.0885 
B(  4-C , 12-H ) :  -0.0537 B(  4-C , 13-H ) :   0.9143 B(  4-C , 14-H ) :  -0.0976 
B(  4-C , 15-H ) :  -0.0722 B(  4-C , 16-H ) :  -0.0795 B(  4-C , 17-H ) :  -0.0577 
B(  4-C , 18-H ) :  -0.0886 B(  4-C , 19-H ) :  -0.1032 B(  5-C ,  6-C ) :  -0.1745 
B(  5-C , 13-H ) :  -0.0719 B(  5-C , 14-H ) :   0.8169 B(  5-C , 15-H ) :   0.8527 
B(  5-C , 16-H ) :   0.8080 B(  6-C , 13-H ) :  -0.0534 B(  6-C , 17-H ) :   0.8456 
B(  6-C , 18-H ) :   0.8077 B(  6-C , 19-H ) :   0.8297 B(  7-O , 20-H ) :   0.6291 
B(  8-H ,  9-H ) :  -0.0514 


                     *******************************
                     * LOEWDIN POPULATION ANALYSIS *
                     *******************************

----------------------
LOEWDIN ATOMIC CHARGES
----------------------
   0 C :   -0.426961
   1 C :   -0.287362
   2 C :    0.063471
   3 H :    0.169719
   4 C :   -0.210324
   5 C :   -0.418557
   6 C :   -0.418795
   7 O :   -0.665101
   8 H :    0.152913
   9 H :    0.155472
  10 H :    0.155022
  11 H :    0.162226
  12 H :    0.163165
  13 H :    0.174160
  14 H :    0.159137
  15 H :    0.157644
  16 H :    0.157448
  17 H :    0.157714
  18 H :    0.157033
  19 H :    0.157489
  20 H :    0.284487

-------------------------------
LOEWDIN REDUCED ORBITAL CHARGES
-------------------------------
  0 C s       :     2.969616  s :     2.969616
      pz      :     1.093777  p :     3.394286
      px      :     1.156529
      py      :     1.143980
      dz2     :     0.015540  d :     0.063059
      dxz     :     0.006014
      dyz     :     0.019444
      dx2y2   :     0.005676
      dxy     :     0.016384

  1 C s       :     2.935301  s :     2.935301
      pz      :     1.092412  p :     3.274122
      px      :     1.081911
      py      :     1.099799
      dz2     :     0.016762  d :     0.077938
      dxz     :     0.009020
      dyz     :     0.021567
      dx2y2   :     0.009874
      dxy     :     0.020715

  2 C s       :     2.842092  s :     2.842092
      pz      :     0.895228  p :     2.953155
      px      :     1.041482
      py      :     1.016445
      dz2     :     0.039509  d :     0.141282
      dxz     :     0.016465
      dyz     :     0.041032
      dx2y2   :     0.018196
      dxy     :     0.026080

  3 H s       :     0.789877  s :     0.789877
      pz      :     0.015416  p :     0.040403
      px      :     0.008189
      py      :     0.016798

  4 C s       :     2.902105  s :     2.902105
      pz      :     1.071119  p :     3.216257
      px      :     1.059749
      py      :     1.085390
      dz2     :     0.022548  d :     0.091962
      dxz     :     0.013328
      dyz     :     0.018894
      dx2y2   :     0.016300
      dxy     :     0.020892

  5 C s       :     2.965712  s :     2.965712
      pz      :     1.137654  p :     3.389549
      px      :     1.157364
      py      :     1.094531
      dz2     :     0.017658  d :     0.063296
      dxz     :     0.005181
      dyz     :     0.012524
      dx2y2   :     0.014863
      dxy     :     0.013070

  6 C s       :     2.967658  s :     2.967658
      pz      :     1.077851  p :     3.387863
      px      :     1.151441
      py      :     1.158572
      dz2     :     0.015819  d :     0.063274
      dxz     :     0.009395
      dyz     :     0.016916
      dx2y2   :     0.013073
      dxy     :     0.008071

  7 O s       :     3.511940  s :     3.511940
      pz      :     1.548750  p :     4.852629
      px      :     1.569955
      py      :     1.733924
      dz2     :     0.084031  d :     0.300532
      dxz     :     0.067011
      dyz     :     0.072584
      dx2y2   :     0.032914
      dxy     :     0.043992

  8 H s       :     0.802485  s :     0.802485
      pz      :     0.009293  p :     0.044602
      px      :     0.018169
      py      :     0.017140

  9 H s       :     0.800669  s :     0.800669
      pz      :     0.017726  p :     0.043858
      px      :     0.008174
      py      :     0.017958

 10 H s       :     0.801095  s :     0.801095
      pz      :     0.008178  p :     0.043883
      px      :     0.023376
      py      :     0.012328

 11 H s       :     0.794693  s :     0.794693
      pz      :     0.009575  p :     0.043081
      px      :     0.020542
      py      :     0.012964

 12 H s       :     0.792622  s :     0.792622
      pz      :     0.017331  p :     0.044213
      px      :     0.008656
      py      :     0.018226

 13 H s       :     0.783036  s :     0.783036
      pz      :     0.011856  p :     0.042804
      px      :     0.014197
      py      :     0.016750

 14 H s       :     0.796655  s :     0.796655
      pz      :     0.026091  p :     0.044208
      px      :     0.009695
      py      :     0.008422

 15 H s       :     0.798050  s :     0.798050
      pz      :     0.011792  p :     0.044307
      px      :     0.013852
      py      :     0.018663

 16 H s       :     0.798451  s :     0.798451
      pz      :     0.008307  p :     0.044101
      px      :     0.026200
      py      :     0.009594

 17 H s       :     0.797312  s :     0.797312
      pz      :     0.012512  p :     0.044973
      px      :     0.014415
      py      :     0.018047

 18 H s       :     0.798967  s :     0.798967
      pz      :     0.008267  p :     0.044000
      px      :     0.026210
      py      :     0.009523

 19 H s       :     0.798529  s :     0.798529
      pz      :     0.012330  p :     0.043983
      px      :     0.008626
      py      :     0.023026

 20 H s       :     0.591753  s :     0.591753
      pz      :     0.025029  p :     0.123761
      px      :     0.062556
      py      :     0.036175


---------------------------------
LOEWDIN BOND ORDERS (THRESH 0.050000)
---------------------------------
B(  0-C ,  1-C ) :   1.1333 B(  0-C ,  2-C ) :   0.0699 B(  0-C ,  8-H ) :   0.9250 
B(  0-C ,  9-H ) :   0.9250 B(  0-C , 10-H ) :   0.9251 B(  1-C ,  2-C ) :   1.0069 
B(  1-C ,  4-C ) :   0.0538 B(  1-C ,  7-O ) :   0.1736 B(  1-C , 11-H ) :   0.8788 
B(  1-C , 12-H ) :   0.8818 B(  2-C ,  3-H ) :   0.7952 B(  2-C ,  4-C ) :   0.9720 
B(  2-C ,  5-C ) :   0.0574 B(  2-C ,  6-C ) :   0.0726 B(  2-C ,  7-O ) :   1.3865 
B(  3-H ,  7-O ) :   0.0986 B(  4-C ,  5-C ) :   1.1054 B(  4-C ,  6-C ) :   1.1070 
B(  4-C ,  7-O ) :   0.1867 B(  4-C , 13-H ) :   0.8376 B(  5-C ,  6-C ) :   0.0699 
B(  5-C , 14-H ) :   0.9175 B(  5-C , 15-H ) :   0.9183 B(  5-C , 16-H ) :   0.9213 
B(  6-C , 17-H ) :   0.9171 B(  6-C , 18-H ) :   0.9200 B(  6-C , 19-H ) :   0.9219 
B(  7-O , 20-H ) :   0.9570 

------------------------------------------
LOEWDIN REDUCED ORBITAL POPULATIONS PER MO
-------------------------------------------
THRESHOLD FOR PRINTING IS 0.1%%
                      0         1         2         3         4         5   
                 -18.94619 -10.07146 -10.02603 -10.01751 -10.00994 -10.00712
                   2.00000   2.00000   2.00000   2.00000   2.00000   2.00000
                  --------  --------  --------  --------  --------  --------
 0 C  s               0.0       0.0       0.0       0.0      99.7       0.0
 1 C  s               0.0       0.0       0.0      99.7       0.0       0.0
 2 C  s               0.0      99.4       0.0       0.0       0.0       0.0
 4 C  s               0.0       0.0      99.6       0.0       0.0       0.0
 6 C  s               0.0       0.0       0.0       0.0       0.0      99.7
 7 O  s              99.9       0.0       0.0       0.0       0.0       0.0
 7 O  dz2             0.0       0.1       0.0       0.0       0.0       0.0
 7 O  dyz             0.0       0.1       0.0       0.0       0.0       0.0

                      6         7         8         9        10        11   
                 -10.00681  -0.98268  -0.76624  -0.72065  -0.64382  -0.63301
                   2.00000   2.00000   2.00000   2.00000   2.00000   2.00000
                  --------  --------  --------  --------  --------  --------
 0 C  s               0.0       0.1       3.8      19.6       0.2      13.3
 0 C  pz              0.0       0.1       0.7       1.7       0.1       0.5
 0 C  px              0.0       0.0       0.2       0.0       0.0       0.1
 0 C  py              0.0       0.0       0.2       0.4       0.0       0.4
 1 C  s               0.0       0.9       7.7      21.4       0.1       0.3
 1 C  pz              0.0       0.2       0.4       1.7       0.2       2.3
 1 C  px              0.0       0.6       0.8       0.3       0.1       2.5
 1 C  py              0.0       0.8       0.0       0.2       0.0       3.6
 1 C  dz2             0.0       0.0       0.0       0.0       0.0       0.1
 2 C  s               0.0       9.3       8.5       1.2       0.0      14.3
 2 C  pz              0.0       6.8       1.5       0.1       0.7       0.4
 2 C  px              0.0       0.0       0.9       7.0       0.0       0.0
 2 C  py              0.0       1.6       3.0       0.8       0.4       0.1
 2 C  dz2             0.0       0.3       0.1       0.0       0.0       0.0
 2 C  dyz             0.0       0.4       0.0       0.0       0.0       0.0
 2 C  dxy             0.0       0.0       0.0       0.1       0.0       0.0
 3 H  s               0.0       0.6       1.2       0.2       0.1       3.5
 3 H  pz              0.0       0.0       0.0       0.0       0.0       0.2
 3 H  py              0.0       0.0       0.1       0.0       0.0       0.2
 4 C  s               0.0       0.8      22.0       6.3       0.0       0.2
 4 C  pz              0.0       0.3       0.2       0.1      12.2       0.5
 4 C  px              0.0       0.9       0.2       1.4       0.1       4.5
 4 C  py              0.1       0.4       0.4       0.5       3.8       4.0
 4 C  dz2             0.0       0.0       0.0       0.0       0.2       0.1
 4 C  dyz             0.0       0.0       0.0       0.0       0.1       0.0
 4 C  dx2y2           0.0       0.0       0.0       0.0       0.1       0.1
 5 C  s              99.7       0.1       9.7       4.7      22.3       5.3
 5 C  pz              0.0       0.0       0.8       0.2       0.7       0.0
 5 C  px              0.0       0.0       0.1       0.1       0.0       0.2
 5 C  py              0.0       0.2       1.9       0.5       0.3       0.4
 6 C  s               0.0       0.1       9.7       5.3      22.5       3.6
 6 C  pz              0.0       0.1       2.5       0.7       0.8       0.1
 6 C  px              0.0       0.0       0.3       0.0       0.0       0.2
 6 C  py              0.0       0.0       0.0       0.0       0.2       0.4
 7 O  s               0.0      60.1       2.9       0.4       0.0       2.7
 7 O  pz              0.0       1.1       1.5       0.1       0.0       7.3
 7 O  px              0.0       1.1       0.4       0.1       0.0       1.4
 7 O  py              0.0       0.0       0.8       0.1       0.1       2.9
 7 O  dz2             0.0       0.1       0.2       0.0       0.0       0.9
 7 O  dxz             0.0       0.0       0.0       0.2       0.0       0.0
 7 O  dyz             0.0       0.2       0.5       0.1       0.0       0.6
 7 O  dxy             0.0       0.0       0.0       0.2       0.0       0.0
 8 H  s               0.0       0.0       0.5       3.0       0.1       3.6
 8 H  px              0.0       0.0       0.0       0.1       0.0       0.1
 8 H  py              0.0       0.0       0.0       0.1       0.0       0.1
 9 H  s               0.0       0.0       0.5       3.1       0.1       3.1
 9 H  pz              0.0       0.0       0.0       0.1       0.0       0.1
 9 H  py              0.0       0.0       0.0       0.1       0.0       0.1
10 H  s               0.0       0.0       0.5       3.2       0.0       3.7
10 H  px              0.0       0.0       0.0       0.2       0.0       0.2
11 H  s               0.0       0.1       0.9       3.6       0.0       0.1
11 H  px              0.0       0.0       0.1       0.2       0.0       0.0
12 H  s               0.0       0.0       1.1       3.2       0.1       0.0
12 H  pz              0.0       0.0       0.0       0.2       0.0       0.0
12 H  py              0.0       0.0       0.0       0.1       0.0       0.0
13 H  s               0.0       0.1       2.8       1.1       0.0       0.1
13 H  px              0.0       0.0       0.1       0.0       0.0       0.0
13 H  py              0.0       0.0       0.1       0.1       0.0       0.0
14 H  s               0.0       0.0       1.2       0.7       5.8       1.1
14 H  pz              0.0       0.0       0.1       0.1       0.5       0.1
15 H  s               0.0       0.0       1.3       0.6       5.0       1.4
15 H  px              0.0       0.0       0.0       0.0       0.1       0.0
15 H  py              0.0       0.0       0.1       0.0       0.2       0.1
16 H  s               0.0       0.0       1.2       0.8       5.1       1.6
16 H  px              0.0       0.0       0.1       0.1       0.4       0.1
17 H  s               0.0       0.0       1.3       0.7       5.1       1.2
17 H  px              0.0       0.0       0.0       0.0       0.1       0.0
17 H  py              0.0       0.0       0.1       0.0       0.2       0.0
18 H  s               0.0       0.0       1.3       0.9       5.1       1.2
18 H  px              0.0       0.0       0.1       0.1       0.4       0.1
19 H  s               0.0       0.0       1.3       0.8       5.8       0.7
19 H  py              0.0       0.0       0.1       0.0       0.4       0.0
20 H  s               0.0      10.1       1.1       0.0       0.0       2.8
20 H  pz              0.0       0.2       0.0       0.0       0.0       0.0
20 H  px              0.0       1.7       0.2       0.0       0.0       0.4
20 H  py              0.0       0.4       0.0       0.0       0.0       0.0

                     12        13        14        15        16        17   
                  -0.57185  -0.50457  -0.47217  -0.44200  -0.40397  -0.38780
                   2.00000   2.00000   2.00000   2.00000   2.00000   2.00000
                  --------  --------  --------  --------  --------  --------
 0 C  s              10.3       0.4       0.0       0.0       0.0       0.0
 0 C  pz              5.1       2.8       0.4       0.0       3.9       5.3
 0 C  px              0.1       0.2       0.5       6.2       0.1       1.1
 0 C  py              0.8       0.0       1.4       2.2       0.5       7.4
 1 C  s              10.6       2.9       0.3       0.1       0.2       0.0
 1 C  pz              5.9       1.4       2.7       0.2       0.1       0.4
 1 C  px              0.1       1.9       0.8      11.4       0.8       2.9
 1 C  py              0.5       2.1       4.0       4.7       5.8       5.3
 2 C  s               0.5       4.2       1.0       0.0       0.2       0.0
 2 C  pz              0.1       0.8      18.7       0.1       4.2       0.5
 2 C  px              9.5       1.7       1.6       1.4       5.0       1.1
 2 C  py              1.5       3.7       0.5      11.5       0.9       7.4
 2 C  dz2             0.0       0.1       0.2       0.0       0.0       0.0
 2 C  dyz             0.0       0.0       0.1       0.0       0.1       0.0
 2 C  dx2y2           0.0       0.1       0.0       0.0       0.0       0.1
 2 C  dxy             0.1       0.0       0.1       0.0       0.0       0.0
 3 H  s               0.3       4.4       5.9       2.1       1.4       1.6
 3 H  pz              0.0       0.2       0.0       0.1       0.0       0.1
 3 H  py              0.0       0.1       0.3       0.0       0.0       0.0
 4 C  s               3.1      10.2       0.9       0.0       0.4       0.0
 4 C  pz              1.2       0.7       1.9       0.4       0.1       5.9
 4 C  px              0.4       2.9       0.4      11.8       2.1       0.0
 4 C  py              3.1       1.0       0.1       3.1       9.7       0.4
 5 C  s               1.5       3.1       0.0       0.3       0.4       0.0
 5 C  pz              0.0       0.9       0.7       1.0      11.0      13.8
 5 C  px              0.0       0.0       0.1       9.4       1.2       0.1
 5 C  py              1.3       7.8       0.0       0.0       2.6       6.3
 5 C  dyz             0.0       0.1       0.0       0.0       0.1       0.0
 6 C  s               3.4       1.6       0.9       0.0       0.1       0.1
 6 C  pz              1.3       7.0       2.5       0.3       3.0       4.4
 6 C  px              0.4       0.1       1.7       4.8       1.8       0.9
 6 C  py              0.2       0.3       0.1       1.8      14.1       2.0
 6 C  dz2             0.0       0.2       0.1       0.0       0.0       0.1
 7 O  s               0.1       0.2       0.8       0.2       0.3       0.0
 7 O  pz              1.3       7.4       5.8       4.1       2.6       4.1
 7 O  px              3.7       0.2      16.7       0.0       2.0       0.8
 7 O  py              0.2       0.9      12.7       0.3       4.4       2.5
 7 O  dz2             0.2       0.8       0.3       0.1       0.1       0.4
 7 O  dxz             0.4       0.4       0.0       0.1       0.3       0.0
 7 O  dyz             0.0       0.0       0.0       0.2       0.1       0.2
 7 O  dx2y2           0.0       0.1       0.2       0.3       0.0       0.0
 7 O  dxy             0.3       0.1       0.1       0.0       0.1       0.0
 8 H  s               3.9       0.5       0.0       2.4       0.1       0.1
 8 H  px              0.2       0.0       0.0       0.0       0.0       0.0
 8 H  py              0.1       0.0       0.0       0.0       0.0       0.0
 9 H  s               4.1       0.8       0.3       0.4       1.5       5.4
 9 H  pz              0.1       0.0       0.0       0.0       0.0       0.1
 9 H  py              0.2       0.0       0.0       0.0       0.0       0.1
10 H  s               3.8       0.0       0.4       0.7       0.0       1.6
10 H  px              0.2       0.0       0.0       0.0       0.0       0.1
11 H  s               4.8       1.6       0.1       4.9       0.0       0.1
11 H  px              0.3       0.0       0.0       0.1       0.0       0.0
12 H  s               4.5       2.6       2.4       1.1       1.7       1.3
12 H  pz              0.1       0.1       0.0       0.0       0.1       0.1
12 H  py              0.2       0.1       0.1       0.0       0.0       0.0
13 H  s               2.0       7.2       0.0       3.3       0.2       0.7
13 H  pz              0.0       0.1       0.0       0.0       0.0       0.0
13 H  px              0.1       0.1       0.0       0.0       0.0       0.0
13 H  py              0.0       0.2       0.0       0.1       0.0       0.0
14 H  s               0.4       1.8       0.2       0.1       5.4       6.0
14 H  pz              0.0       0.1       0.0       0.0       0.1       0.1
15 H  s               0.9       3.0       0.0       0.8       0.3       4.7
15 H  pz              0.0       0.1       0.0       0.0       0.1       0.0
16 H  s               0.6       1.8       0.0       3.5       0.0       0.4
16 H  px              0.0       0.1       0.0       0.1       0.0       0.0
17 H  s               1.2       2.4       0.5       1.9       0.3       0.0
18 H  s               1.6       0.7       1.5       1.0       1.3       0.5
18 H  px              0.1       0.0       0.1       0.0       0.0       0.0
19 H  s               1.0       1.4       0.5       0.2       7.7       2.1
19 H  py              0.1       0.1       0.0       0.0       0.1       0.1
20 H  s               1.0       1.1       8.2       0.2       0.1       0.2
20 H  px              0.0       0.1       0.3       0.0       0.1       0.0

                     18        19        20        21        22        23   
                  -0.38015  -0.36897  -0.34984  -0.34385  -0.32951  -0.31222
                   2.00000   2.00000   2.00000   2.00000   2.00000   2.00000
                  --------  --------  --------  --------  --------  --------
 0 C  s               0.1       0.1       0.0       0.1       0.0       0.5
 0 C  pz              0.0       3.2       3.5       2.2       2.7      18.2
 0 C  px              8.0      17.7       0.0       3.2      13.0       0.5
 0 C  py             15.0       8.0       2.3       0.5       1.0       0.2
 0 C  dz2             0.0       0.2       0.0       0.0       0.0       0.0
 0 C  dyz             0.0       0.0       0.1       0.0       0.0       0.2
 0 C  dxy             0.1       0.1       0.0       0.1       0.3       0.0
 1 C  s               0.0       1.1       0.0       0.0       0.1       0.3
 1 C  pz              1.6      10.0       0.5       2.8       1.0      18.7
 1 C  px              9.7       1.1       0.8       0.7       3.8       0.1
 1 C  py              3.2       1.0       0.5       0.3       0.0       0.1
 1 C  dz2             0.0       0.1       0.0       0.0       0.0       0.0
 1 C  dyz             0.0       0.0       0.0       0.0       0.0       0.4
 1 C  dx2y2           0.1       0.0       0.0       0.0       0.0       0.0
 1 C  dxy             0.1       0.0       0.0       0.0       0.3       0.0
 2 C  s               0.4       0.2       0.1       0.3       1.4       0.5
 2 C  pz              0.0       1.0       1.5       1.0       0.6       3.2
 2 C  px              2.3       0.1       0.1       0.0       0.1       0.8
 2 C  py              0.1       0.0       2.1       0.0       6.6       0.1
 2 C  dxz             0.0       0.3       0.0       0.0       0.0       0.0
 2 C  dyz             0.0       0.0       0.0       0.0       0.0       0.3
 2 C  dxy             0.0       0.2       0.0       0.0       0.0       0.0
 3 H  s               0.4       0.0       1.9       0.5       0.0       1.5
 4 C  s               0.1       0.4       0.0       0.1       0.1       0.2
 4 C  pz              0.2       0.0       5.5       0.4       0.4       0.4
 4 C  px              4.5       1.0       0.1       0.4       2.6       0.3
 4 C  py              1.4       0.2       1.2       0.4       0.4       3.6
 4 C  dxz             0.0       0.0       0.1       0.1       0.0       0.0
 4 C  dyz             0.0       0.0       0.0       0.0       0.0       0.1
 4 C  dx2y2           0.0       0.0       0.0       0.0       0.1       0.1
 4 C  dxy             0.0       0.0       0.0       0.0       0.2       0.0
 5 C  s               0.1       0.0       0.0       0.0       0.0       0.3
 5 C  pz              0.7       0.7       5.4       0.1       0.0       0.8
 5 C  px              3.6       6.0       0.4      14.1      17.8       0.8
 5 C  py              0.0       0.7      12.3       0.0       0.1       3.3
 5 C  dx2y2           0.0       0.0       0.0       0.1       0.2       0.1
 5 C  dxy             0.0       0.0       0.1       0.0       0.2       0.0
 6 C  pz              0.2       0.1       4.4       0.3       0.0       0.4
 6 C  px              7.8       0.7       0.3      31.5       0.1       1.4
 6 C  py              1.7       0.9      21.0       0.3       0.2       6.4
 6 C  dyz             0.0       0.0       0.1       0.0       0.0       0.2
 6 C  dx2y2           0.0       0.0       0.0       0.3       0.0       0.1
 6 C  dxy             0.0       0.0       0.1       0.1       0.0       0.0
 7 O  s               1.3       3.0       0.1       0.0       0.5       0.4
 7 O  pz              1.6       1.7       0.3       0.4       6.8       9.0
 7 O  px              6.9      17.3       0.0       0.3       0.3       4.8
 7 O  py              0.0       0.9       4.4       1.1       2.7       0.6
 7 O  dyz             0.0       0.1       0.0       0.0       0.2       0.0
 7 O  dx2y2           0.0       0.0       0.0       0.1       0.2       0.0
 7 O  dxy             0.0       0.0       0.2       0.1       0.0       0.2
 8 H  s               8.7       0.1       0.1       2.4       3.4       0.2
 8 H  pz              0.1       0.0       0.0       0.0       0.0       0.2
 8 H  px              0.2       0.1       0.0       0.0       0.0       0.0
 8 H  py              0.1       0.1       0.0       0.0       0.1       0.0
 9 H  s               2.5       0.1       3.2       0.1       1.8       4.1
 9 H  pz              0.1       0.1       0.0       0.0       0.0       0.0
 9 H  px              0.0       0.1       0.0       0.0       0.1       0.0
 9 H  py              0.0       0.0       0.0       0.0       0.0       0.1
10 H  s               0.1      12.1       0.3       0.9       8.5       0.1
10 H  pz              0.0       0.0       0.0       0.0       0.0       0.2
10 H  px              0.0       0.2       0.0       0.0       0.1       0.0
10 H  py              0.1       0.0       0.0       0.0       0.0       0.0
11 H  s               4.3       0.9       0.0       1.3       2.8       0.8
11 H  pz              0.1       0.0       0.0       0.0       0.0       0.1
12 H  s               2.4       0.1       0.0       0.1       0.4       5.5
12 H  py              0.0       0.0       0.0       0.0       0.0       0.2
13 H  s               1.4       0.2       0.0       0.3       2.6       0.2
14 H  s               0.0       1.1       2.6       0.3       0.9       0.1
15 H  s               0.7       0.0       7.3       2.2       3.8       0.0
15 H  px              0.0       0.0       0.1       0.0       0.0       0.0
16 H  s               1.4       2.9       0.1       6.3       9.5       0.8
17 H  s               2.5       0.0      10.0       4.9       0.4       0.5
17 H  px              0.0       0.0       0.2       0.1       0.0       0.0
17 H  py              0.1       0.0       0.0       0.2       0.0       0.0
18 H  s               2.2       0.4       0.4      16.1       0.1       2.1
18 H  px              0.0       0.0       0.0       0.2       0.0       0.0
18 H  py              0.0       0.0       0.1       0.0       0.0       0.0
19 H  s               0.1       0.6       4.2       1.1       0.2       4.7
19 H  pz              0.0       0.0       0.2       0.0       0.0       0.0
19 H  px              0.1       0.0       0.0       0.2       0.0       0.0
20 H  s               0.6       1.4       0.1       0.0       0.0       0.1
20 H  pz              0.0       0.1       0.0       0.0       0.1       0.2

                     24        25        26        27        28        29   
                  -0.30272  -0.29789  -0.28780  -0.26508  -0.23446   0.08015
                   2.00000   2.00000   2.00000   2.00000   2.00000   0.00000
                  --------  --------  --------  --------  --------  --------
 0 C  s               0.0       0.1       0.1       0.0       0.0       1.3
 0 C  pz              0.3       0.5       2.8       0.1       0.5       2.6
 0 C  px              2.0       0.1       0.1       4.1       0.5       0.0
 0 C  py             15.8       0.0       0.5       0.0       0.5       0.6
 0 C  dz2             0.2       0.0       0.0       0.0       0.0       0.1
 0 C  dyz             0.4       0.0       0.0       0.0       0.0       0.1
 0 C  dxy             0.1       0.0       0.0       0.2       0.0       0.0
 1 C  s               0.0       0.0       0.0       0.1       0.8       2.0
 1 C  pz              0.7       0.5       3.2       0.1       0.3       2.2
 1 C  px              2.4       0.0       0.0       9.7       3.8       2.3
 1 C  py             17.9       0.1       0.1       0.1       4.7       3.2
 1 C  dz2             0.2       0.0       0.0       0.0       0.1       0.1
 1 C  dxz             0.1       0.0       0.0       0.1       0.0       0.2
 1 C  dyz             0.3       0.0       0.1       0.1       0.0       0.3
 1 C  dx2y2           0.0       0.0       0.0       0.1       0.1       0.0
 1 C  dxy             0.0       0.0       0.0       0.3       0.0       0.1
 2 C  s               0.0       0.1       0.2       0.2       0.1       2.6
 2 C  pz              0.6       0.1       0.9       0.2       1.6      10.3
 2 C  px              1.1       0.5       1.3      16.9       0.7       1.1
 2 C  py              0.7       0.3       1.9       0.5       6.9      10.0
 2 C  dz2             0.0       0.2       0.0       0.0       0.8       0.5
 2 C  dxz             0.0       0.0       0.1       0.1       0.0       0.1
 2 C  dyz             0.0       0.1       0.0       0.1       0.7       1.0
 2 C  dx2y2           0.2       0.0       0.2       0.1       0.0       0.0
 2 C  dxy             0.0       0.0       0.0       0.4       0.3       0.0
 3 H  s               0.0       0.1       2.7       1.6       9.4       1.6
 3 H  px              0.0       0.0       0.0       0.2       0.0       0.0
 3 H  py              0.0       0.0       0.0       0.0       0.0       1.3
 4 C  s               0.0       0.0       0.0       0.4       0.0       0.7
 4 C  pz              0.0      22.0       0.1       0.4       0.4       0.8
 4 C  px              0.0       0.4       0.2      18.2       0.2       0.7
 4 C  py              0.1       0.1      19.8       0.3       0.4       0.2
 4 C  dz2             0.0       0.6       0.0       0.0       0.0       0.2
 4 C  dxz             0.0       0.1       0.0       0.1       0.0       0.4
 4 C  dyz             0.0       0.0       0.4       0.0       0.0       0.2
 4 C  dx2y2           0.0       0.0       0.1       0.1       0.1       0.0
 4 C  dxy             0.0       0.0       0.1       0.4       0.1       0.0
 5 C  s               0.0       0.1       0.6       0.0       0.0       1.9
 5 C  pz              0.0      18.3       1.0       0.2       0.8       0.4
 5 C  px              0.9       0.2       0.0       2.7       0.1       0.3
 5 C  py              0.3       0.1      15.9       0.1       0.8       0.0
 5 C  dz2             0.0       0.6       0.0       0.0       0.0       0.0
 5 C  dyz             0.0       0.0       0.2       0.0       0.0       0.0
 5 C  dxy             0.0       0.0       0.0       0.3       0.0       0.1
 6 C  s               0.0       0.9       0.0       0.0       0.1       0.6
 6 C  pz              0.0      25.0       0.5       0.1       0.2       2.6
 6 C  px              0.2       0.7       0.1       4.4       0.1       0.1
 6 C  py              0.2       0.5       7.2       0.3       0.1       0.3
 6 C  dz2             0.0       0.2       0.0       0.0       0.0       0.1
 6 C  dxz             0.0       0.1       0.0       0.2       0.0       0.0
 6 C  dyz             0.0       0.1       0.4       0.0       0.0       0.1
 6 C  dx2y2           0.0       0.0       0.0       0.1       0.0       0.1
 7 O  s               0.7       0.2       1.0       0.5       0.0       9.2
 7 O  pz              9.2       0.4       0.0       1.7      10.8       1.7
 7 O  px              4.4       0.0      10.0       3.2       4.7       3.2
 7 O  py              2.3       2.6       3.2       0.3      43.9       0.7
 7 O  dz2             0.0       0.0       0.1       0.0       0.6       1.3
 7 O  dxz             0.2       0.2       0.7       0.7       0.1       0.1
 7 O  dyz             0.0       0.2       0.2       0.1       0.7       0.5
 7 O  dx2y2           0.1       0.1       0.3       0.0       0.1       0.1
 7 O  dxy             0.1       0.1       0.2       0.3       0.1       1.0
 8 H  s               8.8       0.0       0.4       1.8       0.0       0.0
 8 H  pz              0.0       0.0       0.0       0.0       0.0       0.2
[...]
 3 H  px              0.3       0.0       0.0       0.0       0.0       0.0
 3 H  py              0.2       1.6       0.0       0.0       0.0       0.0
 4 C  s               1.2       0.0       0.0      10.7       0.4       0.3
 4 C  pz              3.8       0.0       0.0       0.0       0.0       0.0
 4 C  px              2.0       0.2       0.1       0.0       0.0       0.0
 4 C  py              0.5       0.1       0.0       0.0       0.0       0.0
 4 C  dz2             1.6       0.1       0.0       0.0       0.0       0.0
 4 C  dxz             4.4       0.0       0.0       0.0       0.0       0.0
 4 C  dyz             0.8       0.3       0.0       0.0       0.0       0.0
 4 C  dx2y2           0.8       0.0       0.0       0.0       0.0       0.0
 4 C  dxy             5.7       0.1       0.0       0.0       0.0       0.0
 5 C  s               0.1       0.0       0.0      12.5      70.6       6.0
 5 C  pz              0.7       0.0       0.0       0.0       0.0       0.0
 5 C  px              0.8       0.1       0.0       0.0       0.0       0.0
 5 C  py              0.2       0.1       0.0       0.0       0.0       0.0
 5 C  dz2             0.4       0.0       0.0       0.0       0.0       0.0
 5 C  dxz             1.0       0.0       0.0       0.0       0.0       0.0
 5 C  dyz             0.4       0.1       0.0       0.0       0.0       0.0
 5 C  dx2y2           1.1       0.0       0.0       0.0       0.0       0.0
 5 C  dxy             1.8       0.0       0.0       0.0       0.0       0.0
 6 C  s               0.7       0.1       0.0      22.6       0.7      62.1
 6 C  pz              2.6       0.0       0.0       0.0       0.0       0.0
 6 C  dz2             2.4       0.0       0.0       0.0       0.0       0.0
 6 C  dxz             0.9       0.0       0.0       0.0       0.0       0.0
 6 C  dxy             0.5       0.0       0.0       0.0       0.0       0.0
 7 O  s               0.1      27.4       6.9       0.0       0.0       0.0
 7 O  pz              0.1      14.5       3.5       0.0       0.0       0.0
 7 O  px              0.4       0.8      12.8       0.0       0.0       0.0
 7 O  py              0.1       3.3       4.2       0.0       0.0       0.0
 7 O  dz2             0.2       6.5      11.7       0.0       0.0       0.0
 7 O  dxz             0.3       0.0       3.2       0.0       0.0       0.0
 7 O  dyz             0.1      14.2       0.0       0.0       0.0       0.0
 7 O  dx2y2           0.0       0.2      11.9       0.0       0.0       0.0
 7 O  dxy             0.4       1.1      12.2       0.0       0.0       0.0
 8 H  s               0.4       0.0       0.0       0.0       0.0       0.0
 8 H  pz              0.1       0.0       0.0       0.0       0.0       0.0
 8 H  px              0.5       0.0       0.0       0.0       0.0       0.0
 8 H  py              0.5       0.0       0.0       0.0       0.0       0.0
 9 H  s               0.1       0.0       0.0       0.0       0.0       0.0
 9 H  pz              0.1       0.1       0.0       0.0       0.0       0.0
11 H  s               2.2       0.0       0.0       0.0       0.0       0.0
11 H  pz              0.3       0.0       0.0       0.0       0.0       0.0
11 H  px              3.3       0.0       0.0       0.0       0.0       0.0
11 H  py              2.5       0.0       0.0       0.0       0.0       0.0
12 H  px              0.3       0.0       0.0       0.0       0.0       0.0
12 H  py              0.2       0.0       0.0       0.0       0.0       0.0
13 H  s               4.2       0.1       0.0       0.0       0.0       0.0
13 H  pz              1.0       0.0       0.0       0.0       0.0       0.0
13 H  px              4.4       0.0       0.0       0.0       0.0       0.0
13 H  py              6.3       0.1       0.0       0.0       0.0       0.0
14 H  s               0.3       0.0       0.0       0.0       0.0       0.0
14 H  pz              0.7       0.0       0.0       0.0       0.0       0.0
14 H  px              0.1       0.0       0.0       0.0       0.0       0.0
15 H  s               1.5       0.0       0.0       0.0       0.0       0.0
15 H  pz              0.3       0.0       0.0       0.0       0.0       0.0
15 H  px              0.7       0.0       0.0       0.0       0.0       0.0
15 H  py              2.4       0.0       0.0       0.0       0.0       0.0
16 H  s               0.5       0.0       0.0       0.0       0.0       0.0
16 H  px              1.1       0.0       0.0       0.0       0.0       0.0
17 H  s               0.6       0.0       0.0       0.0       0.0       0.0
17 H  pz              0.3       0.0       0.0       0.0       0.0       0.0
17 H  px              0.5       0.0       0.0       0.0       0.0       0.0
17 H  py              1.0       0.0       0.0       0.0       0.0       0.0
18 H  pz              0.2       0.0       0.0       0.0       0.0       0.0
19 H  py              0.4       0.0       0.0       0.0       0.0       0.0
20 H  s               0.0       0.5      14.0       0.0       0.0       0.0
20 H  pz              0.0       0.1       0.7       0.0       0.0       0.0
20 H  px              0.1       0.6      13.2       0.0       0.0       0.0
20 H  py              0.0       0.2       2.4       0.0       0.0       0.0

                    204       205       206       207   
                  22.09879  22.12569  22.19091  43.73987
                   0.00000   0.00000   0.00000   0.00000
                  --------  --------  --------  --------
 0 C  s               2.6       2.0       0.3       0.0
 1 C  s              63.6      14.0       5.5       0.0
 2 C  s               1.4      40.2      56.2       0.1
 4 C  s              17.4      37.8      33.1       0.0
 5 C  s               3.0       5.4       2.2       0.0
 6 C  s              11.6       0.2       2.5       0.0
 7 O  s               0.0       0.0       0.0      99.8


                      *****************************
                      * MAYER POPULATION ANALYSIS *
                      *****************************

  NA   - Mulliken gross atomic population
  ZA   - Total nuclear charge
  QA   - Mulliken gross atomic charge
  VA   - Mayer's total valence
  BVA  - Mayer's bonded valence
  FA   - Mayer's free valence

  ATOM       NA         ZA         QA         VA         BVA        FA
  0 C      6.5478     6.0000    -0.5478     3.7830     3.7830     0.0000
  1 C      6.2430     6.0000    -0.2430     3.5932     3.5932    -0.0000
  2 C      5.9969     6.0000     0.0031     3.5262     3.5262     0.0000
  3 H      0.8512     1.0000     0.1488     0.9480     0.9480     0.0000
  4 C      5.9966     6.0000     0.0034     3.4646     3.4646     0.0000
  5 C      6.5709     6.0000    -0.5709     3.7572     3.7572    -0.0000
  6 C      6.5456     6.0000    -0.5456     3.7758     3.7758     0.0000
  7 O      8.5206     8.0000    -0.5206     1.7639     1.7639     0.0000
  8 H      0.8352     1.0000     0.1648     0.9566     0.9566    -0.0000
  9 H      0.8357     1.0000     0.1643     0.9566     0.9566     0.0000
 10 H      0.8419     1.0000     0.1581     0.9575     0.9575     0.0000
 11 H      0.8521     1.0000     0.1479     0.9589     0.9589     0.0000
 12 H      0.8350     1.0000     0.1650     0.9601     0.9601     0.0000
 13 H      0.8461     1.0000     0.1539     0.9634     0.9634     0.0000
 14 H      0.8349     1.0000     0.1651     0.9575     0.9575     0.0000
 15 H      0.8311     1.0000     0.1689     0.9576     0.9576    -0.0000
 16 H      0.8379     1.0000     0.1621     0.9580     0.9580    -0.0000
 17 H      0.8347     1.0000     0.1653     0.9595     0.9595    -0.0000
 18 H      0.8415     1.0000     0.1585     0.9593     0.9593     0.0000
 19 H      0.8378     1.0000     0.1622     0.9598     0.9598     0.0000
 20 H      0.6638     1.0000     0.3362     0.8923     0.8923     0.0000

  Mayer bond orders larger than 0.100000
B(  0-C ,  1-C ) :   0.8516 B(  0-C ,  8-H ) :   0.9768 B(  0-C ,  9-H ) :   0.9807 
B(  0-C , 10-H ) :   0.9625 B(  1-C ,  2-C ) :   0.9096 B(  1-C , 11-H ) :   0.9582 
B(  1-C , 12-H ) :   0.9713 B(  2-C ,  3-H ) :   0.9792 B(  2-C ,  4-C ) :   0.8886 
B(  2-C ,  7-O ) :   0.8647 B(  4-C ,  5-C ) :   0.8784 B(  4-C ,  6-C ) :   0.8931 
B(  4-C , 13-H ) :   0.9710 B(  5-C , 14-H ) :   0.9728 B(  5-C , 15-H ) :   0.9755 
B(  5-C , 16-H ) :   0.9679 B(  6-C , 17-H ) :   0.9716 B(  6-C , 18-H ) :   0.9691 
B(  6-C , 19-H ) :   0.9776 B(  7-O , 20-H ) :   0.8775 

-------
TIMINGS
-------

Total SCF time: 0 days 0 hours 0 min 30 sec 

Total time                  ....      30.676 sec
Sum of individual times     ....      30.169 sec  ( 98.3%)

SCF preparation             ....       0.316 sec  (  1.0%)
Fock matrix formation       ....      28.830 sec  ( 94.0%)
  Startup                   ....       0.059 sec  (  0.2% of F)
  Split-RI-J                ....       4.393 sec  ( 15.2% of F)
  XC integration            ....      18.688 sec  ( 64.8% of F)
    Basis function eval.    ....       3.394 sec  ( 18.2% of XC)
    Density eval.           ....       5.639 sec  ( 30.2% of XC)
    XC-Functional eval.     ....       2.384 sec  ( 12.8% of XC)
    XC-Potential eval.      ....       6.132 sec  ( 32.8% of XC)
  CPCM terms                ....       5.085 sec  ( 17.6% of F)
Diagonalization             ....       0.000 sec  (  0.0%)
Density matrix formation    ....       0.300 sec  (  1.0%)
Total Energy calculation    ....       0.050 sec  (  0.2%)
Population analysis         ....       0.121 sec  (  0.4%)
Orbital Transformation      ....       0.060 sec  (  0.2%)
Orbital Orthonormalization  ....       0.000 sec  (  0.0%)
DIIS solution               ....       0.440 sec  (  1.4%)
  MO trafo                  ....       0.000 sec  (  0.0 % of DIIS)
  Orb grad                  ....       0.000 sec  (  0.0 % of DIIS)
  Energy W gradient         ....       0.000 sec  (  0.0 % of DIIS)
  DIIS error                ....       0.011 sec  (  2.5 % of DIIS)
  DIIS work                 ....       0.371 sec  ( 84.2 % of DIIS)
  Form Q                    ....       0.000 sec  (  0.0 % of DIIS)
  Form QpQm                 ....       0.000 sec  (  0.0 % of DIIS)
  Exp/Cayley                ....       0.000 sec  (  0.0 % of DIIS)
  Orb update                ....       0.000 sec  (  0.0 % of DIIS)
  Wake-sleep                ....       0.028 sec  (  6.4 % of DIIS)
SOSCF solution              ....       0.052 sec  (  0.2%)
  MO trafo                  ....       0.038 sec  ( 73.3 % of SOSCF)
  Orb grad                  ....       0.001 sec  (  1.5 % of SOSCF)
  Rot update                ....       0.000 sec  (  0.1 % of SOSCF)
  Step                      ....       0.013 sec  ( 25.0 % of SOSCF)
Finished LeanSCF after  30.8 sec

Maximum memory used throughout the entire LEANSCF-calculation: 30.3 MB


-------------------------------------------------------------------------------
                          DFT DISPERSION CORRECTION                            
                                                                               
                                DFTD4 V3.4.0                                   
-------------------------------------------------------------------------------
The R2SCAN3C composite method is recognized
Using three-body term ABC
Active option DFTDOPT                   ...         5   

-------------------------   ----------------
Dispersion correction           -0.005854400
-------------------------   ----------------

------------------   -----------------
gCP correction             0.011396066
------------------   -----------------

-------------------------   --------------------
FINAL SINGLE POINT ENERGY      -312.204986617544
-------------------------   --------------------


------------------------------------------------------------------------------
                              ORCA PROPERTY CALCULATIONS
------------------------------------------------------------------------------

GBWName                                 ... sp_solv.gbw
Number of atoms                         ...     21
Number of basis functions               ...    208
Max core memory                         ...   1024 MB

Electric properties:
Dipole moment                           ... YES
Quadrupole moment                       ...  NO
Static polarizability (Dipole/Dipole)   ...  NO
Static polarizability (Dipole/Quad.)    ...  NO
Static polarizability (Quad./Quad.)     ...  NO
Static polarizability (Velocity)        ...  NO

Atomic electric properties:
Dipole moment                           ...  NO
Quadrupole moment                       ...  NO
Static polarizability                   ...  NO

Choice of electric origin               ... Center of mass
Position of electric origin             ...    -0.000002    -0.000018     0.000019

General magnetic properties:
Magnetizability                         ...  NO

EPR properties:
g-Tensor (aka g-matrix)                 ...  NO
Zero-Field splitting spin-orbit         ...  NO
Zero-field splitting spin-spin          ...  NO
Hyperfine couplings                     ...  NO (   0 nuclei)
Quadrupole couplings                    ...  NO (   0 nuclei)
Contact density                         ...  NO (   0 nuclei)

NMR properties:
Chemical shifts                         ...  NO (   0 nuclei)
Spin-rotation constants                 ...  NO (   0 nuclei)
Spin-spin couplings                     ...  NO (   0 nuclei,    0 pairs)

Choice of magnetic origin               ... GIAO
Position of magnetic origin             ...     0.000000     0.000000     0.000000

Properties with geometric perturbations:
SCF Hessian                             ...  NO
IR spectrum                             ...  NO
VCD spectrum                            ...  NO
X-ray spectroscopy properties:
SCF XES/XAS/RIXS spectra                ...  NO


-------------
DIPOLE MOMENT
-------------

Method             : SCF
Type of density    : Electron Density
Multiplicity       :   1
Irrep              :   0
Energy             :  -312.2105282845088823 Eh
Relativity type    : 
Basis              : AO
                                X                 Y                 Z
Electronic contribution:      0.551528865       3.942011247      -3.705801020
Nuclear contribution   :      0.136760150      -4.009867823       4.210385881
                        -----------------------------------------
Total Dipole Moment    :      0.688289015      -0.067856577       0.504584861
                        -----------------------------------------
Magnitude (a.u.)       :      0.856126255
Magnitude (Debye)      :      2.176100003



--------------------
Rotational spectrum 
--------------------
 
Rotational constants in cm-1:             0.086227             0.074687             0.055083 
Rotational constants in MHz :          2585.033512          2239.066808          1651.335504 

Dipole components along the rotational axes: 
x,y,z [a.u.] :     0.672657    -0.482177     0.219067 
x,y,z [Debye]:     1.709758    -1.225597     0.556824 

 

Dipole moment calculation done in   0.0 sec 

Maximum memory used throughout the entire PROP-calculation: 13.1 MB

--------------------------------
SUGGESTED CITATIONS FOR THIS RUN
--------------------------------

Below you find a list of papers that are relevant to this ORCA run
We neither can nor want to force you to cite these papers, but we appreciate if you do
You receive ORCA, which is the product of decades of hard work by many enthusiastic individuals, for free
The only thing we kindly ask in return is that you cite our papers,
We deeply appreciate it, if you show your appreciation for ORCA by not just citing the generic ORCA reference.

Please note that relegating all ORCA citations to the supporting information does *not* help us.
SI sections are not indexed - citations you put there will not count into any citation statistics
But we need these citations in order to attract the funding resources that allow us to do what we are doing

Therefore, if you are a happy ORCA user, please consider citing a few of the papers listed below in the main body of your paper

In addition to the list printed below, the program has created the file sp_solv.bibtex that contains the list in bibtex format
You can import this file easily into all common literature databanks and citation aid programs


List of essential papers. We consider these as the minimum necessary citations

  1. Neese,F.
     Software update: the ORCA program system, version 5.0
     WIRES Comput. Molec. Sci., 2022 12(1)e1606
     doi.org/10.1002/wcms.1606
  2. Grimme,S.; Hansen,A.; Ehlert,S.; Mewes,J.
     r2SCAN-3c: A 'Swiss army knife' composite electronic-structure method
     J. Chem. Phys., 2021 154 064103
     doi.org/10.1063/5.0040021

List of papers to cite with high priority. The work reported in these papers was absolutely
necessary for this run to complete.
Our perspective: the developers of density functionals and basis sets usually get cited in chemistry papers
Good! But without the algorithms to do something with them, the functionals or basis sets would not do anything.
Hence, in our opinion, the algorithm design and method developments papers are equally worthy of getting cited

  1. Neese,F.
     An improvement of the resolution of the identity approximation for the formation of the Coulomb matrix
     J. Comp. Chem., 2003 24(14)1740-1747
     doi.org/10.1002/jcc.10318
  2. Garcia-Rates,M.; Neese,F.
     Effect of the Solute Cavity on the Solvation Energy and its Derivatives within the Framework of the Gaussian Charge Scheme
     J. Comput. Chem., 2020 41 922-939
     doi.org/10.1002/jcc.26139
  3. Neese,F.
     The SHARK Integral Generation and Digestion System
     J. Comp. Chem., 2022  1-16
     doi.org/10.1002/jcc.26942
  4. Lehtola,S.; Steigemann,C.; Oliveira,M.; Marques,M.
     Recent developments in Libxc - A comprehensive library of functionals for density functional theory
     Software X, 2018 7 
     doi.org/10.1016/j.softx.2017.11.002
  5. Caldeweyher,E.; Bannwarth,C.; Grimme,S.
     Extension of the D3 dispersion coefficient model
     J. Chem. Phys., 2017 147 034112-XXXX
     doi.org/10.1063/1.4993215
  6. Caldeweyher,E.; Ehlert,S.; Hansen,A.; Neugebauer,H.; Spicher,S.; Bannwarth,C.; Grimme,S.
     A generally applicable atomic-charge dependent London dispersion correction
     J. Chem. Phys., 2019 150 154122-XXXX
     doi.org/10.1063/1.5090222
  7. Caldeweyher,E.; Mewes,J.; Ehlert,S.; Grimme,S.
     Extension and evaluation of the D4 London-dispersion model for periodic systems
     Phys. Chem. Chem. Phys., 2020 22(16)8499-8512
     doi.org/10.1039/D0CP00502A

List of suggested additional citations. These are papers that are important in the 'surrounding' of 
of this run, or papers that preceded the highly important papers. If you like your results we are grateful for a citation.

  1. Neese,F.
     The ORCA program system
     WIRES Comput. Molec. Sci., 2012 2(1)73-78
     doi.org/10.1002/wcms.81
  2. Neese,F.
     Software update: the ORCA program system, version 4.0
     WIRES Comput. Molec. Sci., 2018 8(1)1-6
     doi.org/10.1002/wcms.1327
  3. Neese,F.; Wennmohs,F.; Becker,U.; Riplinger,C.
     The ORCA quantum chemistry program package
     J. Chem. Phys., 2020 152 Art. No. L224108
     doi.org/10.1063/5.0004608

List of optional additional citations

  1. Neese,F.
     Approximate second-order SCF convergence for spin unrestricted wavefunctions
     Chem. Phys. Lett., 2000 325(1-3)93-98
     doi.org/10.1016/s0009-2614(00)00662-x

Timings for individual modules:

Sum of individual times          ...       32.607 sec (=   0.543 min)
Startup calculation              ...        1.285 sec (=   0.021 min)   3.9 %
SCF iterations                   ...       31.219 sec (=   0.520 min)  95.7 %
Property calculations            ...        0.103 sec (=   0.002 min)   0.3 %
                             ****ORCA TERMINATED NORMALLY****
TOTAL RUN TIME: 0 days 0 hours 0 minutes 33 seconds 413 msec
