24
 energy: -314.374049888025 gnorm: 0.020005412129 xtb: 6.7.1 (edcfbbe)
C           -2.21539958628170        0.60408494656769       -1.01149320364822
C           -1.91909928745040       -0.65609893109073       -0.20407236349043
C           -1.17089642131886       -0.43738258459382        1.11671619199485
C            0.34593726395329       -0.18604016868244        1.07286252787541
C            1.12049638039652       -1.18100792862334        0.18840620298349
C            1.48679892535884       -0.39935893007697       -1.07037400117431
C            1.79995708979761        0.99147846233935       -0.52705952243355
C            0.74456821652994        1.21539778613857        0.56090030654855
H           -2.91362792339111        0.37031343566410       -1.81310564330344
H           -2.66778052668216        1.36607697310534       -0.37981411166831
H           -1.31697979948359        1.01311744794894       -1.46375538244863
H           -2.87581531057435       -1.12237320419735        0.04747945572104
H           -1.37479188910921       -1.36432220910457       -0.82928858776748
H           -1.63847182002605        0.39301361067415        1.65214976073211
H           -1.32388751848665       -1.33557628779183        1.72209878446311
H            0.68857065870512       -0.29363323013012        2.10733072993381
H            2.03586592580215       -1.48615515825855        0.69837767470947
H            0.54444038544126       -2.07981345482162       -0.02421586851073
H            2.32960020873231       -0.83944703777198       -1.60250838451011
H            0.63731686618241       -0.35391523495683       -1.75189902377631
H            2.79822437333997        0.99238877623975       -0.08577172583801
H            1.76897871878388        1.76068986438021       -1.29793554557515
H            1.13697351780382        1.83284525321218        1.36887556000658
H           -0.12097320345361        1.72985065646654        0.15181521636727
24
 energy: -314.374893573988 gnorm: 0.005784672425 xtb: 6.7.1 (edcfbbe)
C           -2.21287952433995        0.60469867224255       -1.01923504033813
C           -1.92095272702001       -0.65393628415473       -0.19958532005257
C           -1.17304191949337       -0.44714509702214        1.12679487805051
C            0.34447187563049       -0.18736371518376        1.08166382601553
C            1.12296406008294       -1.18394009251595        0.19039824384708
C            1.48663741024089       -0.40039882029005       -1.07382466816715
C            1.80155036383400        0.99615584642170       -0.53181868223432
C            0.74647938021081        1.22081826466449        0.56472962343753
H           -2.91177013094048        0.37775393965279       -1.82970815082071
H           -2.66869117866580        1.37689777440895       -0.39209135634115
H           -1.31205108897638        1.02305320694176       -1.47212574618407
H           -2.87981153448296       -1.12551538856165        0.04489690372432
H           -1.38152676758880       -1.37521651251135       -0.82296945911952
H           -1.64793094384347        0.38054099062531        1.66951107022292
H           -1.32931900757677       -1.34598472620204        1.73542312233078
H            0.69119384439341       -0.29532512142234        2.11558893922144
H            2.04486550336808       -1.48917038149069        0.69660982560221
H            0.55046667714168       -2.09231389802726       -0.01779612465400
H            2.32528467459204       -0.84319068395953       -1.61931505588938
H            0.62951356810288       -0.35495387126788       -1.75411518962816
H            2.80487040159564        0.99390529378244       -0.09179075224420
H            1.77952656749992        1.77047458438301       -1.30403398704457
H            1.13367769171992        1.84710828703768        1.37331802993943
H           -0.12352165426851        1.73718139077102        0.15519669545928
24
 energy: -314.374999972795 gnorm: 0.001520021758 xtb: 6.7.1 (edcfbbe)
C           -2.20733754780194        0.60488214902869       -1.02155023360319
C           -1.92295465231850       -0.65411702760372       -0.19819283645097
C           -1.17356741007913       -0.44822967719825        1.12875598639441
C            0.34469898325639       -0.18859428779340        1.08588818925278
C            1.12662574760071       -1.18540412077706        0.19165137988521
C            1.48233705853119       -0.40026597954765       -1.07619076273724
C            1.80125564524979        0.99719786253026       -0.53248391243564
C            0.74529675561002        1.22380634648515        0.56641420023490
H           -2.90429943762736        0.37857740155677       -1.83650983341559
H           -2.66572876455289        1.38438849456357       -0.40101514429550
H           -1.30458776724813        1.02484890894953       -1.47413620532845
H           -2.88548685150959       -1.12243922258934        0.04378594051599
H           -1.38848242285802       -1.38451597299371       -0.81924954150190
H           -1.65281679991085        0.37389343702676        1.68054754067582
H           -1.33014693422971       -1.35055328094425        1.73443164970502
H            0.69438272403822       -0.29569284882445        2.11921443279592
H            2.05258651381823       -1.48710577239710        0.69595966628158
H            0.55790324057455       -2.09919484356513       -0.01252645212869
H            2.31682856453676       -0.84330759290645       -1.63088328201394
H            0.61964579378666       -0.35427222846333       -1.75266647956880
H            2.80689583125112        0.99244772953899       -0.09333927876250
H            1.78357231255393        1.77427122603095       -1.30410539823316
H            1.13063406238823        1.85370086869969        1.37488614627777
H           -0.12724879765452        1.73981317295813        0.15703887473327
24
 energy: -314.375030814142 gnorm: 0.001537537922 xtb: 6.7.1 (edcfbbe)
C           -2.20082834110490        0.60419225274771       -1.02528265052407
C           -1.92353561058412       -0.65221857447661       -0.19653006739257
C           -1.17349546678723       -0.45188725364133        1.13088907720412
C            0.34377932767109       -0.18881119117893        1.08770085638659
C            1.12751068483937       -1.18445399666095        0.19199351791874
C            1.47689016123916       -0.39875783358441       -1.07727780615172
C            1.79942668649258        0.99802706388180       -0.53331326335346
C            0.74483472578463        1.22480433964041        0.56717964522644
H           -2.89479213812786        0.37754772000227       -1.84294911778359
H           -2.66001426354917        1.38721785847810       -0.40949552337738
H           -1.29529454148066        1.02108429625209       -1.47523537961774
H           -2.88960984597636       -1.11335843933403        0.04635715314927
H           -1.39420887596609       -1.38884300615844       -0.81515290828207
H           -1.65391496620665        0.36642759592683        1.68771764961819
H           -1.32879866611082       -1.35761005021439        1.73260321400154
H            0.69471479220546       -0.29542436386610        2.12058178339658
H            2.05645695771147       -1.48026146094176        0.69474203802257
H            0.56255297024145       -2.10151820825724       -0.00822125328255
H            2.30741714126706       -0.84146571509782       -1.63817033117670
H            0.60988785382233       -0.35147714735280       -1.74824485518043
H            2.80532022771305        0.98978136580934       -0.09429254183556
H            1.78382146769061        1.77642443005506       -1.30370727135588
H            1.13060662408883        1.85504355585474        1.37521361945742
H           -0.12872076343506        1.73967293427378        0.15862300999551
24
 energy: -314.375061685269 gnorm: 0.001403697074 xtb: 6.7.1 (edcfbbe)
C           -2.18637970830258        0.60280445744770       -1.03056508580417
C           -1.92515492869303       -0.65126669887534       -0.19432564633430
C           -1.17248512578234       -0.45491661490324        1.13169471821977
C            0.34341590114230       -0.18901358325066        1.08931573420639
C            1.12879857621778       -1.18214333654979        0.19215417434794
C            1.46620967514307       -0.39604569376211       -1.07895838009694
C            1.79336784521754        0.99844611806064       -0.53358716384646
C            0.74236221699785        1.22604938521047        0.56945217065480
H           -2.87463196499223        0.37454675272025       -1.85208472835140
H           -2.64605070827071        1.39169017905454       -0.42343036486815
H           -1.27517061514854        1.01119719016500       -1.47573161227017
H           -2.89739978690889       -1.09714250571009        0.05282888838441
H           -1.40553429984601       -1.39857363987584       -0.80795462032605
H           -1.65433964507439        0.35690336837885        1.69612107071965
H           -1.32361911151634       -1.36648603490429        1.72576581443977
H            0.69471169853924       -0.29559431077606        2.12196635916853
H            2.06286494897982       -1.46748342664954        0.69113326471749
H            0.56967194705670       -2.10353658588208       -0.00183925315993
H            2.29020219538754       -0.83774638031583       -1.64934562103366
H            0.59221173995973       -0.34574220276313       -1.73972122446764
H            2.79943071094565        0.98475385738632       -0.09573993504310
H            1.77912278312330        1.77856372412063       -1.30168919090492
H            1.13050825604875        1.85475635152428        1.37700873522061
H           -0.13210590883474        1.74011883571345        0.16326871285826
24
 energy: -314.375068488930 gnorm: 0.000644586932 xtb: 6.7.1 (edcfbbe)
C           -2.18092515805346        0.60142714265850       -1.03297030510297
C           -1.92546458712160       -0.65187857713274       -0.19339119935200
C           -1.17251148263370       -0.45606191131276        1.13253474245111
C            0.34336001371733       -0.18928892039967        1.08974448150442
C            1.12832418304497       -1.18094911917168        0.19219348969770
C            1.46239399433695       -0.39444673661867       -1.07926835400994
C            1.79068502737413        0.99978271098341       -0.53441667115345
C            0.74206370282442        1.22532042232775        0.57117182774377
H           -2.86740467950703        0.37409563568374       -1.85609280294267
H           -2.63920142389499        1.39269420799136       -0.42832310977844
H           -1.26690471660022        1.00536451548681       -1.47587658941666
H           -2.89977745127925       -1.09186147728173        0.05500090767688
H           -1.40970062357124       -1.40297956786747       -0.80507380973951
H           -1.65439662741644        0.35552438981106        1.69658115163311
H           -1.32299215093205       -1.36777058784594        1.72602451758796
H            0.69381464098948       -0.29700913012836        2.12259982430683
H            2.06384783550423       -1.46461951750992        0.68896327919249
H            0.57040635246482       -2.10321232277675       -0.00052528869817
H            2.28516661119824       -0.83554600193953       -1.65158583160686
H            0.58710364195752       -0.34438930784601       -1.73781360920866
H            2.79748055284619        0.98595417593899       -0.09860161362899
H            1.77467544514267        1.78027291699362       -1.30205708014454
H            1.13276556152276        1.85254682236217        1.37858613139601
H           -0.13280176435207        1.74117086695357        0.16833664842750
24
 energy: -314.375074726245 gnorm: 0.000651437239 xtb: 6.7.1 (edcfbbe)
C           -2.17472903132422        0.59964660831431       -1.03554597182697
C           -1.92607309312979       -0.65311181321840       -0.19257575429324
C           -1.17269848734846       -0.45627391262740        1.13300649867925
C            0.34371448979949       -0.18979414369106        1.09051375230919
C            1.12773496304201       -1.18013042631596        0.19192665267625
C            1.45936122828768       -0.39348726184189       -1.08015501005077
C            1.78639468775258        1.00117316755456       -0.53537962362931
C            0.74186957326939        1.22514716549429        0.57482332459688
H           -2.85987594940146        0.37349167539646       -1.86011544406376
H           -2.63112668979304        1.39382675187205       -0.43334729931634
H           -1.25783891594522        0.99909614956006       -1.47653960522138
H           -2.90247934990480       -1.08765343915707        0.05667434442333
H           -1.41375309201181       -1.40823883915128       -0.80198144656813
H           -1.65434183665126        0.35632525949106        1.69570094272837
H           -1.32360563153008       -1.36704322855938        1.72755908206200
H            0.69330819296345       -0.29939847180487        2.12353529773388
H            2.06438302278467       -1.46351000607425        0.68664823863389
H            0.57048521898037       -2.10294771464104       -0.00047681185850
H            2.28190732394720       -0.83372725554772       -1.65351846770783
H            0.58344105295050       -0.34450729816039       -1.73772672184338
H            2.79499996774701        0.98925255981446       -0.10369425858828
H            1.76610283072356        1.78197939451013       -1.30270999904000
H            1.13649469808546        1.85008640257178        1.38228696536124
H           -0.13366804724013        1.74394097505134        0.17683668646863
24
 energy: -314.375079485335 gnorm: 0.001019404861 xtb: 6.7.1 (edcfbbe)
C           -2.16584521170593        0.59741253623055       -1.03888096142275
C           -1.92660811753069       -0.65441208974840       -0.19164645135351
C           -1.17390511115115       -0.45603300600807        1.13391479533347
C            0.34341324896786       -0.19149731991204        1.09181085836972
C            1.12704325916602       -1.17985360240057        0.19151209935033
C            1.45536810883448       -0.39197830276475       -1.08096626294194
C            1.78006134348793        1.00410301173003       -0.53783694882593
C            0.74190223825402        1.22425521680056        0.57966239481114
H           -2.84915901575545        0.37246131041017       -1.86532735253422
H           -2.62005729122067        1.39568901434814       -0.44032062435948
H           -1.24507072790579        0.99085180973757       -1.47739041806638
H           -2.90595309652397       -1.08203838517945        0.05823022242104
H           -1.41806605041425       -1.41505754128696       -0.79747552115914
H           -1.65428207351328        0.35899536417091        1.69447838216010
H           -1.32632991824383       -1.36525541873695        1.73054691508393
H            0.69241257699901       -0.30420978686612        2.12471920135097
H            2.06495390067887       -1.46278804545545        0.68429029021744
H            0.57028231148690       -2.10315252703986       -0.00065060312149
H            2.27901694756194       -0.83036485675893       -1.65413702588989
H            0.57939439033873       -0.34650601944250       -1.73865177596907
H            2.79176846720537        0.99665474271556       -0.11313821848178
H            1.75120190824112        1.78499803836838       -1.30497193428728
H            1.14354948719186        1.84424181537096        1.38767373851295
H           -0.13508410992511        1.74762868494333        0.19030711061001
24
 energy: -314.375081890153 gnorm: 0.000525957691 xtb: 6.7.1 (edcfbbe)
C           -2.16510138933943        0.59753995038192       -1.03912029691267
C           -1.92621097553776       -0.65382175298707       -0.19169158348449
C           -1.17414699140537       -0.45595380973017        1.13415111621073
C            0.34318054257083       -0.19206370938379        1.09245059469808
C            1.12692746104335       -1.18022027310181        0.19146580950122
C            1.45573950743453       -0.39268452440345       -1.08109624648332
C            1.77809953088382        1.00428652495615       -0.53869947974351
C            0.74211861120767        1.22420289864143        0.58089058379072
H           -2.84800261097403        0.37272872343187       -1.86591067295590
H           -2.61952566423964        1.39572129191260       -0.44077538047077
H           -1.24417832616835        0.99101312878470       -1.47709087264803
H           -2.90564761361562       -1.08176036369607        0.05717184568065
H           -1.41698267159248       -1.41421192277109       -0.79713079639362
H           -1.65395642244383        0.35996840042286        1.69390271699192
H           -1.32795052269300       -1.36451241316587        1.73149789901747
H            0.69222643362214       -0.30520247753634        2.12527538398865
H            2.06449813190437       -1.46331177379871        0.68477649986080
H            0.57016354296504       -2.10337297548885       -0.00126575192967
H            2.28086676069516       -0.83021791169792       -1.65285623725693
H            0.58069268932443       -0.34909563432103       -1.74013797935522
H            2.79066660895227        0.99966978663864       -0.11636113167504
H            1.74579014717310        1.78437684623177       -1.30639562844699
H            1.14588443801033        1.84259581331176        1.38893251073627
H           -0.13514370429226        1.74847098536324        0.19376945303348
24
 energy: -314.375081890153 gnorm: 0.000525957691 xtb: 6.7.1 (edcfbbe)
C           -2.16510138933943        0.59753995038192       -1.03912029691267
C           -1.92621097553776       -0.65382175298707       -0.19169158348449
C           -1.17414699140537       -0.45595380973017        1.13415111621073
C            0.34318054257083       -0.19206370938379        1.09245059469808
C            1.12692746104335       -1.18022027310181        0.19146580950122
C            1.45573950743453       -0.39268452440345       -1.08109624648332
C            1.77809953088382        1.00428652495615       -0.53869947974351
C            0.74211861120767        1.22420289864143        0.58089058379072
H           -2.84800261097403        0.37272872343187       -1.86591067295590
H           -2.61952566423964        1.39572129191260       -0.44077538047077
H           -1.24417832616835        0.99101312878470       -1.47709087264803
H           -2.90564761361562       -1.08176036369607        0.05717184568065
H           -1.41698267159248       -1.41421192277109       -0.79713079639362
H           -1.65395642244383        0.35996840042286        1.69390271699192
H           -1.32795052269300       -1.36451241316587        1.73149789901747
H            0.69222643362214       -0.30520247753634        2.12527538398865
H            2.06449813190437       -1.46331177379871        0.68477649986080
H            0.57016354296504       -2.10337297548885       -0.00126575192967
H            2.28086676069516       -0.83021791169792       -1.65285623725693
H            0.58069268932443       -0.34909563432103       -1.74013797935522
H            2.79066660895227        0.99966978663864       -0.11636113167504
H            1.74579014717310        1.78437684623177       -1.30639562844699
H            1.14588443801033        1.84259581331176        1.38893251073627
H           -0.13514370429226        1.74847098536324        0.19376945303348
