      -----------------------------------------------------------      
     |                   =====================                   |     
     |                           x T B                           |     
     |                   =====================                   |     
     |                         S. Grimme                         |     
     |          Mulliken Center for Theoretical Chemistry        |     
     |                    University of Bonn                     |     
      -----------------------------------------------------------      

   * xtb version 6.7.1 (edcfbbe) compiled by 'albert@albert-system' on 2024-07-22

   xtb is free software: you can redistribute it and/or modify it under
   the terms of the GNU Lesser General Public License as published by
   the Free Software Foundation, either version 3 of the License, or
   (at your option) any later version.
   
   xtb is distributed in the hope that it will be useful,
   but WITHOUT ANY WARRANTY; without even the implied warranty of
   MERCHANTABILITY or FITNESS FOR A PARTICULAR PURPOSE.  See the
   GNU Lesser General Public License for more details.
   
   Cite this work as:
   * C. Bannwarth, E. Caldeweyher, S. Ehlert, A. Hansen, P. Pracht,
     J. Seibert, S. Spicher, S. Grimme, WIREs Comput. Mol. Sci., 2020, 11,
     e01493. DOI: 10.1002/wcms.1493
   
   for GFN2-xTB:
   * C. Bannwarth, S. Ehlert and S. Grimme., J. Chem. Theory Comput., 2019,
     15, 1652-1671. DOI: 10.1021/acs.jctc.8b01176
   for GFN1-xTB:
   * S. Grimme, C. Bannwarth, P. Shushkov, J. Chem. Theory Comput., 2017,
     13, 1989-2009. DOI: 10.1021/acs.jctc.7b00118
   for GFN0-xTB:
   * P. Pracht, E. Caldeweyher, S. Ehlert, S. Grimme, ChemRxiv, 2019, preprint.
     DOI: 10.26434/chemrxiv.8326202.v1
   for GFN-FF:
   * S. Spicher and S. Grimme, Angew. Chem. Int. Ed., 2020, 59, 15665-15673.
     DOI: 10.1002/anie.202004239
   
   for ALPB and GBSA implicit solvation:
   * S. Ehlert, M. Stahn, S. Spicher, S. Grimme, J. Chem. Theory Comput.,
     2021, 17, 4250-4261. DOI: 10.1021/acs.jctc.1c00471
   
   for ddCOSMO and CPCM-X implicit solvation:
   * M. Stahn, S. Ehlert, S. Grimme, J. Phys. Chem. A,
     2023, XX, XXXX-XXXX. DOI: 10.1021/acs.jpca.3c04382
   
   for DFT-D4:
   * E. Caldeweyher, C. Bannwarth and S. Grimme, J. Chem. Phys., 2017,
     147, 034112. DOI: 10.1063/1.4993215
   * E. Caldeweyher, S. Ehlert, A. Hansen, H. Neugebauer, S. Spicher,
     C. Bannwarth and S. Grimme, J. Chem. Phys., 2019, 150, 154122.
     DOI: 10.1063/1.5090222
   * E. Caldeweyher, J.-M. Mewes, S. Ehlert and S. Grimme, Phys. Chem. Chem. Phys.
     2020, 22, 8499-8512. DOI: 10.1039/D0CP00502A
   
   for sTDA-xTB:
   * S. Grimme and C. Bannwarth, J. Chem. Phys., 2016, 145, 054103.
     DOI: 10.1063/1.4959605
   
   in the mass-spec context:
   * V. Asgeirsson, C. Bauer and S. Grimme, Chem. Sci., 2017, 8, 4879.
     DOI: 10.1039/c7sc00601b
   * J. Koopman and S. Grimme, ACS Omega 2019, 4, 12, 15120-15133.
     DOI: 10.1021/acsomega.9b02011
   
   for metadynamics refer to:
   * S. Grimme, J. Chem. Theory Comput., 2019, 155, 2847-2862
     DOI: 10.1021/acs.jctc.9b00143
   
   for SPH calculations refer to:
   * S. Spicher and S. Grimme, J. Chem. Theory Comput., 2021, 17, 1701-1714
     DOI: 10.1021/acs.jctc.0c01306
   
   for ONIOM refer to:
   * C. Plett, A. Katbashev, S. Ehlert, S. Grimme, M. Bursch,
     Phys. Chem. Chem. Phys., 2023, 25, 17860-17868. DOI: 10.1039/D3CP02178E
   
   for DIPRO refer to:
   * J. Kohn, N. Gildemeister, S. Grimme, D. Fazzi, A. Hansen,
     J. Chem. Phys., 2023, just accepted.
   
   for PTB refer to:
   * S. Grimme, M. Mueller, A. Hansen, J. Chem. Phys., 2023, 158, 124111.
     DOI: 10.1063/5.0137838
   
   with help from (in alphabetical order)
   P. Atkinson, C. Bannwarth, F. Bohle, G. Brandenburg, E. Caldeweyher
   M. Checinski, S. Dohm, S. Ehlert, S. Ehrlich, I. Gerasimov, C. Hölzer
   A. Katbashev, J. Kohn, J. Koopman, C. Lavigne, S. Lehtola, F. März, M. Müller,
   F. Musil, H. Neugebauer, J. Pisarek, C. Plett, P. Pracht, F. Pultar,
   J. Seibert, P. Shushkov, S. Spicher, M. Stahn, M. Steiner, T. Strunk,
   J. Stückrath, T. Rose, and J. Unsleber
   
 * started run on 2025/04/11 at 12:07:04.480     
   ID    Z sym.   atoms
    1    6 C      1-5
    2    8 O      6
    3    1 H      7-18

           -------------------------------------------------
          |                Calculation Setup                |
           -------------------------------------------------

          program call               : /srv/scratch/z5358697/.xtb/bin/xtb xtb_opt.coord --opt normal --orca -I xtb_opt-xcontrol-inp
          hostname                   : k071
          coordinate file            : xtb_opt.coord
          omp threads                :                    16

           -------------------------------------------------
          |                   Orca driver                   |
           -------------------------------------------------
orca executable           : /apps/z_install_tree/linux-rocky8-ivybridge/gcc-12.2.0/orca-6.0.0-srtngmq3qlimg2qxbl6avaaiffipurdx/bin/orca
orca input file           : xtb_opt.inp
orca input line           : 
orca parallel             : true
orca number of threads    : 16
                         * ORCA takes the control...
  ------------------------------------------------------------------------

                                 *****************
                                 * O   R   C   A *
                                 *****************

                                            #,                                       
                                            ###                                      
                                            ####                                     
                                            #####                                    
                                            ######                                   
                                           ########,                                 
                                     ,,################,,,,,                         
                               ,,#################################,,                 
                          ,,##########################################,,             
                       ,#########################################, ''#####,          
                    ,#############################################,,   '####,        
                  ,##################################################,,,,####,       
                ,###########''''           ''''###############################       
              ,#####''   ,,,,##########,,,,          '''####'''          '####       
            ,##' ,,,,###########################,,,                        '##       
           ' ,,###''''                  '''############,,,                           
         ,,##''                                '''############,,,,        ,,,,,,###''
      ,#''                                            '''#######################'''  
     '                                                          ''''####''''         
             ,#######,   #######,   ,#######,      ##                                
            ,#'     '#,  ##    ##  ,#'     '#,    #''#        ,####,   ,####,        
            ##       ##  ##   ,#'  ##            #'  '#       #'       #'  '#        
            ##       ##  #######   ##           ,######,      #####,   #    #        
            '#,     ,#'  ##    ##  '#,     ,#' ,#      #,     #,   #   #,  ,#        
             '#######'   ##     ##  '#######'  #'      '#     '####' # '####'        



                #########################################################
                #                        -***-                          #
                #          Department of theory and spectroscopy        #
                #                                                       #
                #                      Frank Neese                      #
                #                                                       #
                #     Directorship, Architecture, Infrastructure        #
                #                    SHARK, DRIVERS                     #
                #        Core code/Algorithms in most modules           #
                #                                                       #
                #        Max Planck Institute fuer Kohlenforschung      #
                #                Kaiser Wilhelm Platz 1                 #
                #                 D-45470 Muelheim/Ruhr                 #
                #                      Germany                          #
                #                                                       #
                #                  All rights reserved                  #
                #                        -***-                          #
                #########################################################


                         Program Version 6.0.0  -   RELEASE  -


 With contributions from (in alphabetic order):
   Daniel Aravena         : Magnetic Suceptibility
   Michael Atanasov       : Ab Initio Ligand Field Theory (pilot matlab implementation)
   Alexander A. Auer      : GIAO ZORA, VPT2 properties, NMR spectrum
   Ute Becker             : All parallelization in ORCA, NUMFREQ, NUMCALC
   Giovanni Bistoni       : ED, misc. LED, open-shell LED, HFLD
   Martin Brehm           : Molecular dynamics
   Dmytro Bykov           : pre 5.0 version of the SCF Hessian
   Marcos Casanova-Páez   : Triplet and SCS-CIS(D). UHF-(DLPNO)-IP/EA/STEOM-CCSD. UHF-CVS-IP/STEOM-CCSD
   Vijay G. Chilkuri      : MRCI spin determinant printing, contributions to CSF-ICE
   Pauline Colinet        : FMM embedding
   Dipayan Datta          : RHF DLPNO-CCSD density
   Achintya Kumar Dutta   : EOM-CC, STEOM-CC
   Nicolas Foglia         : Exact transition moments, OPA infrastructure, MCD improvements
   Dmitry Ganyushin       : Spin-Orbit,Spin-Spin,Magnetic field MRCI
   Miquel Garcia          : C-PCM and meta-GGA Hessian, CCSD/C-PCM, Gaussian charge scheme
   Tiago L. C. Gouveia    : GS-ROHF, GS-ROCIS
   Yang Guo               : DLPNO-NEVPT2, F12-NEVPT2, CIM, IAO-localization
   Andreas Hansen         : Spin unrestricted coupled pair/coupled cluster methods
   Ingolf Harden          : AUTO-CI MPn and infrastructure 
   Benjamin Helmich-Paris : MC-RPA, TRAH-(SCF,CASSCF), AVAS, COSX integrals, SCF dyn. polar.
   Lee Huntington         : MR-EOM, pCC
   Robert Izsak           : Overlap fitted RIJCOSX, COSX-SCS-MP3, EOM
   Riya Kayal             : Wick's Theorem for AUTO-CI, AUTO-CI UHF-CCSDT
   Emily Kempfer          : AUTO-CI, RHF CISDT and CCSDT
   Christian Kollmar      : KDIIS, OOCD, Brueckner-CCSD(T), CCSD density, CASPT2, CASPT2-K, improved NEVPT2
   Axel Koslowski         : Symmetry handling
   Simone Kossmann        : Meta GGA functionals, TD-DFT gradient, OOMP2, (MP2 Hessian; deprecated post 5.0)
   Lucas Lang             : DCDCAS
   Marvin Lechner         : AUTO-CI (C++ implementation), FIC-MRCC
   Spencer Leger          : CASSCF response
   Dagmar Lenk            : GEPOL surface, SMD, ORCA-2-JSON
   Dimitrios Liakos       : Extrapolation schemes; Compound Job, initial MDCI parallelization
   Dimitrios Manganas     : Further ROCIS development; embedding schemes. LFT, Crystal Embedding
   Dimitrios Pantazis     : SARC Basis sets
   Anastasios Papadopoulos: AUTO-CI, single reference methods and gradients
   Taras Petrenko         : pre 6.0 DFT Hessian and TD-DFT gradient, (ASA, deprecated), ECA, 1-Electron XAS/XES, NRVS
   Peter Pinski           : DLPNO-MP2, DLPNO-MP2 Gradient
   Christoph Reimann      : Effective Core Potentials
   Marius Retegan         : Local ZFS, SOC
   Christoph Riplinger    : Optimizer, TS searches, QM/MM, DLPNO-CCSD(T), (RO)-DLPNO pert. Triples
   Michael Roemelt        : Original ROCIS implementation
   Masaaki Saitow         : Open-shell DLPNO-CCSD energy and density
   Barbara Sandhoefer     : DKH picture change effects
   Kantharuban Sivalingam : CASSCF convergence/infrastructure, NEVPT2 and variants, FIC-MRCI
   Bernardo de Souza      : ESD, SOC TD-DFT
   Georgi Stoychev        : AutoAux, RI-MP2 NMR, DLPNO-MP2 response, X2C
   Van Anh Tran           : RI-MP2 g-tensors
   Willem Van den Heuvel  : Paramagnetic NMR
   Zikuan Wang            : NOTCH, Electric field optimization 
   Frank Wennmohs         : Technical directorship and infrastructure
   Hang Xu                : AUTO-CI-Response properties 


 We gratefully acknowledge several colleagues who have allowed us to
 interface, adapt or use parts of their codes:
   Stefan Grimme, W. Hujo, H. Kruse, P. Pracht,  : VdW corrections, initial TS optimization,
                  C. Bannwarth, S. Ehlert,         DFT functionals, gCP, sTDA/sTD-DF
                  L. Wittmann, M. Mueller
   Ed Valeev, F. Pavosevic, A. Kumar             : LibInt (2-el integral package), F12 methods
   Garnet Chan, S. Sharma, J. Yang, R. Olivares  : DMRG
   Ulf Ekstrom                                   : XCFun DFT Library
   Mihaly Kallay                                 : mrcc  (arbitrary order and MRCC methods)
   Frank Weinhold                                : gennbo (NPA and NBO analysis)
   Simon Mueller                                 : openCOSMO-RS
   Christopher J. Cramer and Donald G. Truhlar   : smd solvation model
   Lars Goerigk                                  : TD-DFT with DH, B97 family of functionals
   V. Asgeirsson, H. Jonsson                     : NEB implementation
   FAccTs GmbH                                   : IRC, NEB, NEB-TS, DLPNO-Multilevel, CI-OPT
                                                   MM, QMMM, 2- and 3-layer-ONIOM, Crystal-QMMM,
                                                   LR-CPCM, SF, NACMEs, symmetry and pop. for TD-DFT,
                                                   nearIR, NL-DFT gradient (VV10), updates on ESD,
                                                   ML-optimized integration grids, MBIS, APM,
                                                   GOAT, DOCKER, SOLVATOR, interface openCOSMO-RS
   S Lehtola, MJT Oliveira, MAL Marques          : LibXC Library
   Liviu Ungur et al                             : ANISO software


 Your calculation uses the libint2 library for the computation of 2-el integrals
 For citations please refer to: http://libint.valeyev.net

 Your ORCA version has been built with support for libXC version: 6.2.2
 For citations please refer to: https://libxc.gitlab.io

 This ORCA versions uses:
   CBLAS   interface :  Fast vector & matrix operations
   LAPACKE interface :  Fast linear algebra routines
   SCALAPACK package :  Parallel linear algebra routines
   Shared memory     :  Shared parallel matrices
   BLAS/LAPACK       :  OpenBLAS 0.3.27  USE64BITINT DYNAMIC_ARCH NO_AFFINITY SkylakeX SINGLE_THREADED
        Core in use  :  SkylakeX
   Copyright (c) 2011-2014, The OpenBLAS Project




***************************************
The coordinates will be read from file: xtb_opt.xyz
***************************************


Your calculation utilizes the geometrical counterpoise correction gCP
Please cite in your paper:
H.Kruse, S. Grimme J.Chem.Phys., 136, (2012), 154101 
   

Your calculation utilizes the atom-pairwise dispersion correction
based on EEQ partial charges (D4)


Your calculation utilizes the SMD solvation module
Please cite in your paper:
A.V. Marenich, C.J. Cramer, D.G. Truhlar J. Phys. Chem. B, 113, (2009), 6378 

================================================================================

----- Orbital basis set information -----
Your calculation utilizes the basis: def2-mTZVPP
   Stefan Grimme, Andreas Hansen, Sebastian Ehlert, and Jan-Michael Mewes 
   J. Chem. Phys. 154, 064103 (2021). DOI: 10.1063/5.0040021

----- AuxJ basis set information -----
Your calculation utilizes the auxiliary basis: def2/J
   F. Weigend, Phys. Chem. Chem. Phys. 8, 1057 (2006).

================================================================================
                                        WARNINGS
                       Please study these warnings very carefully!
================================================================================

WARNING: Old DensityContainer found on disk!
         Will remove this file - 
         If you want to keep old densities, please start your calculation with a different basename. 

Using LibXC functional ID 497 : Re-regularized SCAN exchange by Furness et al
[ 1]  J. W. Furness, A. D. Kaplan, J. Ning, J. P. Perdew, and J. Sun.,  J. Phys. Chem. Lett. 11, 8208-8215 (2020)
[ 2]  J. W. Furness, A. D. Kaplan, J. Ning, J. P. Perdew, and J. Sun.,  J. Phys. Chem. Lett. 11, 9248-9248 (2020)
Using LibXC functional ID 498 : Re-regularized SCAN correlation by Furness et al
[ 1]  J. W. Furness, A. D. Kaplan, J. Ning, J. P. Perdew, and J. Sun.,  J. Phys. Chem. Lett. 11, 8208-8215 (2020)
[ 2]  J. W. Furness, A. D. Kaplan, J. Ning, J. P. Perdew, and J. Sun.,  J. Phys. Chem. Lett. 11, 9248-9248 (2020)
Using LibXC functional ID 497 : Re-regularized SCAN exchange by Furness et al
[ 1]  J. W. Furness, A. D. Kaplan, J. Ning, J. P. Perdew, and J. Sun.,  J. Phys. Chem. Lett. 11, 8208-8215 (2020)
[ 2]  J. W. Furness, A. D. Kaplan, J. Ning, J. P. Perdew, and J. Sun.,  J. Phys. Chem. Lett. 11, 9248-9248 (2020)
Using LibXC functional ID 498 : Re-regularized SCAN correlation by Furness et al
[ 1]  J. W. Furness, A. D. Kaplan, J. Ning, J. P. Perdew, and J. Sun.,  J. Phys. Chem. Lett. 11, 8208-8215 (2020)
[ 2]  J. W. Furness, A. D. Kaplan, J. Ning, J. P. Perdew, and J. Sun.,  J. Phys. Chem. Lett. 11, 9248-9248 (2020)

================================================================================
                                       INPUT FILE
================================================================================
NAME = xtb_opt.inp
|  1> ! r2scan-3c def2/J RI DEFGRID2 scfconv7 ENGRAD tightSCF miniprint
|  2> %cpcm
|  3>     smd true
|  4>     smdsolvent "water"
|  5> end
|  6> * xyzfile 0 1 xtb_opt.xyz
|  7> 
|  8>                          ****END OF INPUT****
================================================================================

                     *******************************
                     * Energy+Gradient Calculation *
                     *******************************

---------------------------------
CARTESIAN COORDINATES (ANGSTROEM)
---------------------------------
  C     -1.764668    1.018535    0.819884
  C     -1.158702    0.301533   -0.387025
  C      0.004430   -0.636006   -0.030752
  C      1.386216   -0.009813   -0.182555
  C      1.616604    1.238183    0.663346
  O      0.020787   -1.794028   -0.904472
  H     -2.186440    0.293605    1.524718
  H     -1.028148    1.617514    1.361881
  H     -2.571995    1.687751    0.506159
  H     -1.946602   -0.298967   -0.858696
  H     -0.827406    1.027075   -1.141481
  H     -0.124904   -0.981584    1.008186
  H      2.131755   -0.770637    0.077643
  H      1.530439    0.231699   -1.243810
  H      1.440921    1.040132    1.726314
  H      2.650002    1.581374    0.554024
  H      0.963426    2.060836    0.357891
  H     -0.842988   -2.219562   -0.835342

----------------------------
CARTESIAN COORDINATES (A.U.)
----------------------------
  NO LB      ZA    FRAG     MASS         X           Y           Z
   0 C     6.0000    0    12.011   -3.334740    1.924752    1.549357
   1 C     6.0000    0    12.011   -2.189630    0.569815   -0.731371
   2 C     6.0000    0    12.011    0.008372   -1.201877   -0.058113
   3 C     6.0000    0    12.011    2.619568   -0.018545   -0.344978
   4 C     6.0000    0    12.011    3.054939    2.339826    1.253542
   5 O     8.0000    0    15.999    0.039282   -3.390221   -1.709204
   6 H     1.0000    0     1.008   -4.131772    0.554833    2.881299
   7 H     1.0000    0     1.008   -1.942919    3.056658    2.573582
   8 H     1.0000    0     1.008   -4.860365    3.189387    0.956502
   9 H     1.0000    0     1.008   -3.678545   -0.564966   -1.622701
  10 H     1.0000    0     1.008   -1.563570    1.940891   -2.157086
  11 H     1.0000    0     1.008   -0.236035   -1.854926    1.905195
  12 H     1.0000    0     1.008    4.028433   -1.456292    0.146724
  13 H     1.0000    0     1.008    2.892110    0.437847   -2.350461
  14 H     1.0000    0     1.008    2.722947    1.965565    3.262261
  15 H     1.0000    0     1.008    5.007778    2.988365    1.046953
  16 H     1.0000    0     1.008    1.820612    3.894416    0.676317
  17 H     1.0000    0     1.008   -1.593016   -4.194365   -1.578567

------------------------------------------------------------------------------
                   ___                                                        
                  /   \      - P O W E R E D   B Y -                         
                 /     \                                                     
                 |  |  |   _    _      __       _____    __    __             
                 |  |  |  | |  | |    /  \     |  _  \  |  |  /  |          
                  \  \/   | |  | |   /    \    | | | |  |  | /  /          
                 / \  \   | |__| |  /  /\  \   | |_| |  |  |/  /          
                |  |  |   |  __  | /  /__\  \  |    /   |      \           
                |  |  |   | |  | | |   __   |  |    \   |  |\   \          
                \     /   | |  | | |  |  |  |  | |\  \  |  | \   \       
                 \___/    |_|  |_| |__|  |__|  |_| \__\ |__|  \__/        
                                                                              
                      - O R C A' S   B I G   F R I E N D -                    
                                      &                                       
                       - I N T E G R A L  F E E D E R -                       
                                                                              
 v1 FN, 2020, v2 2021, v3 2022-2024                                           
------------------------------------------------------------------------------


----------------------
SHARK INTEGRAL PACKAGE
----------------------

Number of atoms                             ...     18
Number of basis functions                   ...    179
Number of shells                            ...     91
Maximum angular momentum                    ...      2
Integral batch strategy                     ... SHARK/LIBINT Hybrid
RI-J (if used) integral strategy            ... SPLIT-RIJ (Revised 2003 algorithm where possible)
Printlevel                                  ...      1
Contraction scheme used                     ... SEGMENTED contraction
Prescreening option                         ... SCHWARTZ
   Thresh                                   ... 3.000e-11
   Tcut                                     ... 1.000e-12
   Tpresel                                  ... 1.000e-12 
Coulomb Range Separation                    ... NOT USED
Exchange Range Separation                   ... NOT USED
Multipole approximations                    ... NOT USED
Finite Nucleus Model                        ... NOT USED
CABS basis                                  ... NOT available
Auxiliary Coulomb fitting basis             ... AVAILABLE
   # of basis functions in Aux-J            ...    426
   # of shells in Aux-J                     ...    150
   Maximum angular momentum in Aux-J        ...      4
Auxiliary J/K fitting basis                 ... NOT available
Auxiliary Correlation fitting basis         ... NOT available
Auxiliary 'external' fitting basis          ... NOT available

Checking pre-screening integrals            ... done (  0.0 sec) Dimension = 91
Check shell pair data                       ... done (  0.0 sec)
Shell pair information
Shell pair cut-off parameter TPreSel        ...   1.0e-12
Total number of shell pairs                 ...      4186
Shell pairs after pre-screening             ...      3959
Total number of primitive shell pairs       ...     14533
Primitive shell pairs kept                  ...     10215
          la=0 lb=0:   1390 shell pairs
          la=1 lb=0:   1529 shell pairs
          la=1 lb=1:    443 shell pairs
          la=2 lb=0:    364 shell pairs
          la=2 lb=1:    205 shell pairs
          la=2 lb=2:     28 shell pairs

Calculating one electron integrals          ... done (  0.0 sec)
Calculating RI/J V-Matrix + Cholesky decomp.... done (  0.1 sec)
Calculating Nuclear repulsion               ... done (  0.0 sec) ENN=    259.671492877463 Eh

Diagonalization of the overlap matrix:
Smallest eigenvalue                        ... 2.137e-04
Time for diagonalization                   ...    0.003 sec
Threshold for overlap eigenvalues          ... 1.000e-07
Number of eigenvalues below threshold      ... 0
Time for construction of square roots      ...    0.016 sec
Total time needed                          ...    0.028 sec

-------------------
DFT GRID GENERATION
-------------------

General Integration Accuracy     IntAcc      ... 4.388
Radial Grid Type                 RadialGrid  ... OptM3 with GC (2021)
Angular Grid (max. ang.)         AngularGrid ... 4 (Lebedev-302)
Angular grid pruning method      GridPruning ... 4 (adaptive)
Weight generation scheme         WeightScheme... mBecke (2022)
Basis function cutoff            BFCut       ... 1.0000e-11
Integration weight cutoff        WCut        ... 1.0000e-14
Partially contracted basis set               ... off
Rotationally invariant grid construction     ... off
Angular grids for H and He will be reduced by one unit
Diffuse basis detected: some atoms will have their outermost
                        angular grid increased by 1.

Total number of grid points                  ...    74860
Total number of batches                      ...     1178
Average number of points per batch           ...       63
Average number of grid points per atom       ...     4159
Initializing property integral containers    ... done (  0.1 sec)

SHARK setup successfully completed in   1.1 seconds

Maximum memory used throughout the entire STARTUP-calculation: 32.6 MB
Occupation numbers will be reassigned to an Aufbau configuration
             **** ENERGY FILE WAS UPDATED (xtb_opt.en.tmp) ****
Finished Guess after   0.3 sec
Maximum memory used throughout the entire GUESS-calculation: 12.3 MB
--------------------
CPCM SOLVATION MODEL
--------------------
CPCM parameters:
  Epsilon                                         ...      78.3550
  Refrac                                          ...       1.3328
  Rsolv                                           ...       1.3000
  Surface type                                    ... GAUSSIAN VDW
  Discretization scheme                           ... Constant charge density
    Threshold for H atoms                         ...       5.0000 (charges/Ang^2)
    Threshold for non-H atoms                     ...       5.0000 (charges/Ang^2)
  Epsilon function type                           ...         CPCM
Solvent:                                          ... WATER
SMD-CDS solvent descriptors:
  Soln                                            ...       1.3328
  Soln25                                          ...       1.3323
  Sola                                            ...       0.0000
  Solb                                            ...       0.0000
  Solg                                            ...       0.0000
  Solc                                            ...       0.0000
  Solh                                            ...       0.0000
Radii:
  Scheme                                          ... Element-dependent radii
  Radius for C  used is    3.4960 Bohr (=   1.8500 Ang.)
  Radius for O  used is    2.8724 Bohr (=   1.5200 Ang.)
  Radius for H  used is    2.2677 Bohr (=   1.2000 Ang.)
Calculating surface                               ...        done! (  0.0s)
Cavity surface points                             ...         1319
Cavity Volume                                     ...     738.4388
Cavity Surface-area                               ...     492.5508
Calculating surface distance matrix               ...        done! (  0.0s)
Performing Cholesky decomposition & store         ...        done! (  0.1s)
Overall time for CPCM initialization              ...                 0.1s

----------------------------------------D-I-I-S--------------------------------------------
Iteration    Energy (Eh)           Delta-E    RMSDP     MaxDP     DIISErr   Damp  Time(sec)
-------------------------------------------------------------------------------------------
               ***  Starting incremental Fock matrix formation  ***
                              *** Initializing SOSCF ***
---------------------------------------S-O-S-C-F--------------------------------------
Iteration    Energy (Eh)           Delta-E    RMSDP     MaxDP     MaxGrad    Time(sec)
--------------------------------------------------------------------------------------
    1    -272.9168176267760373     0.00e+00  1.49e-06  4.02e-05  2.89e-06     2.6
               *** Restarting incremental Fock matrix formation ***
    2    -272.9168176267028230     7.32e-11  2.20e-06  5.96e-05  1.82e-05     2.5
                  *** Gradient check signals convergence ***

               *****************************************************
               *                     SUCCESS                       *
               *           SCF CONVERGED AFTER   2 CYCLES          *
               *****************************************************


SMD CDS free energy correction energy :                 3.22981     Kcal/mol
Total Energy after SMD CDS correction =              -272.911670603 Eh
             **** ENERGY FILE WAS UPDATED (xtb_opt.en.tmp) ****

----------------
TOTAL SCF ENERGY
----------------

Total Energy       :       -272.91167060318423 Eh           -7426.30410 eV

Components:
Nuclear Repulsion  :        259.67149287746258 Eh            7066.02055 eV
Electronic Energy  :       -532.57366227741795 Eh          -14492.06611 eV
One Electron Energy:       -883.26152301369291 Eh          -24034.76795 eV
Two Electron Energy:        350.68786073627501 Eh            9542.70183 eV
CPCM Dielectric    :         -0.01464822674744 Eh              -0.39860 eV
SMD CDS (Gcds)     :          0.00514702351858 Eh               0.14006 eV

Virial components:
Potential Energy   :       -544.45482513983654 Eh          -14815.36899 eV
Kinetic Energy     :        271.54315453665231 Eh            7389.06489 eV
Virial Ratio       :          2.00503977376586

DFT components:
N(Alpha)           :       25.000020054412 electrons
N(Beta)            :       25.000020054412 electrons
N(Total)           :       50.000040108823 electrons
E(X)               :      -38.548599104457 Eh       
E(C)               :       -1.560961288746 Eh       
E(XC)              :      -40.109560393203 Eh       

CPCM Solvation Model Properties:
Surface-charge          :         -0.04668715729387
Corrected charge        :         -0.00000000000000
Outlying charge corr.   :          0.00018080159833 Eh               0.00492 eV
Free-energy (cav+disp)  :          0.00514702351858 Eh               0.14006 eV

---------------
SCF CONVERGENCE
---------------

  Last Energy change         ...   -7.3214e-11  Tolerance :   1.0000e-07
  Last MAX-Density change    ...    5.9633e-05  Tolerance :   1.0000e-07
  Last RMS-Density change    ...    2.1989e-06  Tolerance :   5.0000e-09
  Last DIIS Error            ...    6.1605e-05  Tolerance :   1.0000e-07
  Last Orbital Gradient      ...    1.8157e-05  Tolerance :   1.0000e-04
  Last Orbital Rotation      ...    1.7821e-05  Tolerance :   1.0000e-04


----------------
ORBITAL ENERGIES
----------------

  NO   OCC          E(Eh)            E(eV) 
   0   2.0000     -18.946919      -515.5719 
   1   2.0000     -10.074911      -274.1523 
   2   2.0000     -10.020450      -272.6703 
   3   2.0000     -10.020445      -272.6702 
   4   2.0000     -10.013588      -272.4836 
   5   2.0000     -10.012839      -272.4632 
   6   2.0000      -0.976681       -26.5769 
   7   2.0000      -0.755946       -20.5703 
   8   2.0000      -0.709539       -19.3075 
   9   2.0000      -0.634913       -17.2769 
  10   2.0000      -0.576753       -15.6943 
  11   2.0000      -0.527337       -14.3496 
  12   2.0000      -0.468729       -12.7548 
  13   2.0000      -0.433387       -11.7930 
  14   2.0000      -0.410072       -11.1586 
  15   2.0000      -0.371947       -10.1212 
  16   2.0000      -0.367618       -10.0034 
  17   2.0000      -0.365479        -9.9452 
  18   2.0000      -0.335785        -9.1372 
  19   2.0000      -0.326280        -8.8785 
  20   2.0000      -0.314758        -8.5650 
  21   2.0000      -0.302344        -8.2272 
  22   2.0000      -0.292323        -7.9545 
  23   2.0000      -0.274158        -7.4602 
  24   2.0000      -0.238389        -6.4869 
  25   0.0000       0.076774         2.0891 
  26   0.0000       0.093476         2.5436 
  27   0.0000       0.116972         3.1830 
  28   0.0000       0.128442         3.4951 
  29   0.0000       0.134127         3.6498 
  30   0.0000       0.148103         4.0301 
  31   0.0000       0.159265         4.3338 
  32   0.0000       0.162230         4.4145 
  33   0.0000       0.169788         4.6202 
  34   0.0000       0.176155         4.7934 
  35   0.0000       0.189416         5.1543 
*Only the first 10 virtual orbitals were printed.
Total SCF time: 0 days 0 hours 0 min 6 sec 
Finished LeanSCF after   6.1 sec

Maximum memory used throughout the entire LEANSCF-calculation: 23.8 MB


-------------------------------------------------------------------------------
                          DFT DISPERSION CORRECTION                            
                                                                               
                                DFTD4 V3.4.0                                   
-------------------------------------------------------------------------------
-------------------------   ----------------
Dispersion correction           -0.004373001
-------------------------   ----------------

------------------   -----------------
gCP correction             0.009584918
------------------   -----------------

-------------------------   --------------------
FINAL SINGLE POINT ENERGY      -272.906458686420
-------------------------   --------------------

------------------------------------------------------------------------------
                         ORCA SCF GRADIENT CALCULATION
------------------------------------------------------------------------------

Nuc. rep. gradient        (SHARK) ... done (  0.0 sec)
HCore & Overlap gradient  (SHARK) ... done (  0.2 sec)
Split-RIJ-J gradient      (SHARK) ... done (  1.0 sec)
XC gradient                       ... done (  4.7 sec)
CPCM gradient                     ... done (  0.6 sec)
SMD gradient                      ... done (  0.0 sec)
Dispersion correction             ... done (  0.0 sec)

-------------------
DISPERSION GRADIENT
-------------------

   1   C   :   -0.000081913    0.000037803    0.000034805
   2   C   :   -0.000051606    0.000001308   -0.000022192
   3   C   :   -0.000000170   -0.000032726   -0.000007099
   4   C   :    0.000063847   -0.000008698   -0.000013032
   5   C   :    0.000074897    0.000047151    0.000025711
   6   O   :   -0.000016003   -0.000086501   -0.000034056
   7   H   :   -0.000040000    0.000008560    0.000020203
   8   H   :   -0.000030668    0.000020704    0.000017837
   9   H   :   -0.000037515    0.000018853    0.000007273
  10   H   :   -0.000028592   -0.000006445   -0.000012039
  11   H   :   -0.000021115    0.000008642   -0.000017250
  12   H   :   -0.000000428   -0.000024141   -0.000000795
  13   H   :    0.000031015   -0.000011993   -0.000001376
  14   H   :    0.000027508   -0.000003224   -0.000015379
  15   H   :    0.000036319    0.000016109    0.000021364
  16   H   :    0.000036173    0.000018594    0.000007233
  17   H   :    0.000030331    0.000026380    0.000005754
  18   H   :    0.000007921   -0.000030376   -0.000016965

Difference to translation invariance:
           :    0.0000000000    0.0000000000   -0.0000000000

Difference to rotation invariance:
           :   -0.0000000000   -0.0000000000    0.0000000000

Norm of the Dispersion gradient    ...    0.0002282723
RMS gradient                       ...    0.0000310639
MAX gradient                       ...    0.0000865008
gCP correction                   ... done

------------------
CARTESIAN GRADIENT
------------------

   1   C   :   -0.000136295    0.000108615    0.000151317
   2   C   :    0.000180761   -0.000185941   -0.000132779
   3   C   :   -0.000315557   -0.000255288   -0.000072752
   4   C   :    0.000329516    0.000022194   -0.000160054
   5   C   :   -0.000067548    0.000047048    0.000002991
   6   O   :   -0.000385795    0.000035988    0.000401537
   7   H   :   -0.000046619   -0.000022618   -0.000016101
   8   H   :    0.000031246   -0.000099551    0.000018245
   9   H   :    0.000100293    0.000004510   -0.000013338
  10   H   :   -0.000008086    0.000034547   -0.000015841
  11   H   :    0.000003822    0.000059497    0.000019405
  12   H   :    0.000034653    0.000032909   -0.000071870
  13   H   :   -0.000142369    0.000099896    0.000059383
  14   H   :    0.000010847   -0.000062671    0.000154561
  15   H   :    0.000058714    0.000020058   -0.000015867
  16   H   :    0.000004562    0.000055435   -0.000114590
  17   H   :   -0.000047148   -0.000087460   -0.000000424
  18   H   :    0.000395002    0.000192831   -0.000193822

Difference to translation invariance:
           :    0.0000000000   -0.0000000000   -0.0000000000

Difference to rotation invariance:
           :   -0.0002372552   -0.0001656862    0.0001684984

Norm of the Cartesian gradient     ...    0.0010587848
RMS gradient                       ...    0.0001440824
MAX gradient                       ...    0.0004015366

-------
TIMINGS
-------

Total SCF gradient time     ....        7.194 sec

Densities                   ....       0.000 sec  (  0.0%)
One electron gradient       ....       0.185 sec  (  2.6%)
RI-J Coulomb gradient       ....       1.004 sec  ( 14.0%)
XC gradient                 ....       4.707 sec  ( 65.4%)
CPCM gradient               ....       0.617 sec  (  8.6%)
   A-Matrix (El+Nuc)        ....       0.058 sec  (  0.8%)
   Potential                ....       0.559 sec  (  7.8%)
SMD gradient                ....       0.016 sec  (  0.2%)

Maximum memory used throughout the entire SCFGRAD-calculation: 32.4 MB

------------------------------------------------------------------------------
                              ORCA PROPERTY CALCULATIONS
------------------------------------------------------------------------------

GBWName                                 ... xtb_opt.gbw
Number of atoms                         ...     18
Number of basis functions               ...    179
Max core memory                         ...   1024 MB

Electric properties:
Dipole moment                           ... YES
Quadrupole moment                       ...  NO
Static polarizability (Dipole/Dipole)   ...  NO
Static polarizability (Dipole/Quad.)    ...  NO
Static polarizability (Quad./Quad.)     ...  NO
Static polarizability (Velocity)        ...  NO

Atomic electric properties:
Dipole moment                           ...  NO
Quadrupole moment                       ...  NO
Static polarizability                   ...  NO

Choice of electric origin               ... Center of mass
Position of electric origin             ...     0.011182    -0.009026    -0.017244

General magnetic properties:
Magnetizability                         ...  NO

EPR properties:
g-Tensor (aka g-matrix)                 ...  NO
Zero-Field splitting spin-orbit         ...  NO
Zero-field splitting spin-spin          ...  NO
Hyperfine couplings                     ...  NO (   0 nuclei)
Quadrupole couplings                    ...  NO (   0 nuclei)
Contact density                         ...  NO (   0 nuclei)

NMR properties:
Chemical shifts                         ...  NO (   0 nuclei)
Spin-rotation constants                 ...  NO (   0 nuclei)
Spin-spin couplings                     ...  NO (   0 nuclei,    0 pairs)

Choice of magnetic origin               ... GIAO
Position of magnetic origin             ...     0.000000     0.000000     0.000000

Properties with geometric perturbations:
SCF Hessian                             ...  NO
IR spectrum                             ...  NO
VCD spectrum                            ...  NO
X-ray spectroscopy properties:
SCF XES/XAS/RIXS spectra                ...  NO


-------------
DIPOLE MOMENT
-------------

Method             : SCF
Type of density    : Electron Density
Multiplicity       :   1
Irrep              :   0
Energy             :  -272.9116706031842341 Eh
Relativity type    : 
Basis              : AO
                                X                 Y                 Z
Electronic contribution:      0.154898680      -4.597768501      -2.420685932
Nuclear contribution   :     -0.828140446       4.970784455       2.939186670
                        -----------------------------------------
Total Dipole Moment    :     -0.673241765       0.373015954       0.518500738
                        -----------------------------------------
Magnitude (a.u.)       :      0.928029305
Magnitude (Debye)      :      2.358863032



--------------------
Rotational spectrum 
--------------------
 
Rotational constants in cm-1:             0.111883             0.106749             0.060200 
Rotational constants in MHz :          3354.164582          3200.257672          1804.753362 

Dipole components along the rotational axes: 
x,y,z [a.u.] :    -0.826944     0.323375     0.269873 
x,y,z [Debye]:    -2.101923     0.821954     0.685962 

 

Dipole moment calculation done in   0.0 sec 

Maximum memory used throughout the entire PROP-calculation: 10.7 MB

--------------------------------
SUGGESTED CITATIONS FOR THIS RUN
--------------------------------

Below you find a list of papers that are relevant to this ORCA run
We neither can nor want to force you to cite these papers, but we appreciate if you do
You receive ORCA, which is the product of decades of hard work by many enthusiastic individuals, for free
The only thing we kindly ask in return is that you cite our papers,
We deeply appreciate it, if you show your appreciation for ORCA by not just citing the generic ORCA reference.

Please note that relegating all ORCA citations to the supporting information does *not* help us.
SI sections are not indexed - citations you put there will not count into any citation statistics
But we need these citations in order to attract the funding resources that allow us to do what we are doing

Therefore, if you are a happy ORCA user, please consider citing a few of the papers listed below in the main body of your paper

In addition to the list printed below, the program has created the file xtb_opt.bibtex that contains the list in bibtex format
You can import this file easily into all common literature databanks and citation aid programs


List of essential papers. We consider these as the minimum necessary citations

  1. Neese,F.
     Software update: the ORCA program system, version 5.0
     WIRES Comput. Molec. Sci., 2022 12(1)e1606
     doi.org/10.1002/wcms.1606
  2. Grimme,S.; Hansen,A.; Ehlert,S.; Mewes,J.
     r2SCAN-3c: A 'Swiss army knife' composite electronic-structure method
     J. Chem. Phys., 2021 154 064103
     doi.org/10.1063/5.0040021

List of papers to cite with high priority. The work reported in these papers was absolutely
necessary for this run to complete.
Our perspective: the developers of density functionals and basis sets usually get cited in chemistry papers
Good! But without the algorithms to do something with them, the functionals or basis sets would not do anything.
Hence, in our opinion, the algorithm design and method developments papers are equally worthy of getting cited

  1. Neese,F.
     An improvement of the resolution of the identity approximation for the formation of the Coulomb matrix
     J. Comp. Chem., 2003 24(14)1740-1747
     doi.org/10.1002/jcc.10318
  2. Garcia-Rates,M.; Neese,F.
     Effect of the Solute Cavity on the Solvation Energy and its Derivatives within the Framework of the Gaussian Charge Scheme
     J. Comput. Chem., 2020 41 922-939
     doi.org/10.1002/jcc.26139
  3. Neese,F.
     The SHARK Integral Generation and Digestion System
     J. Comp. Chem., 2022  1-16
     doi.org/10.1002/jcc.26942
  4. Lehtola,S.; Steigemann,C.; Oliveira,M.; Marques,M.
     Recent developments in Libxc - A comprehensive library of functionals for density functional theory
     Software X, 2018 7 
     doi.org/10.1016/j.softx.2017.11.002
  5. Caldeweyher,E.; Bannwarth,C.; Grimme,S.
     Extension of the D3 dispersion coefficient model
     J. Chem. Phys., 2017 147 034112-XXXX
     doi.org/10.1063/1.4993215
  6. Caldeweyher,E.; Ehlert,S.; Hansen,A.; Neugebauer,H.; Spicher,S.; Bannwarth,C.; Grimme,S.
     A generally applicable atomic-charge dependent London dispersion correction
     J. Chem. Phys., 2019 150 154122-XXXX
     doi.org/10.1063/1.5090222
  7. Caldeweyher,E.; Mewes,J.; Ehlert,S.; Grimme,S.
     Extension and evaluation of the D4 London-dispersion model for periodic systems
     Phys. Chem. Chem. Phys., 2020 22(16)8499-8512
     doi.org/10.1039/D0CP00502A

List of suggested additional citations. These are papers that are important in the 'surrounding' of 
of this run, or papers that preceded the highly important papers. If you like your results we are grateful for a citation.

  1. Neese,F.
     The ORCA program system
     WIRES Comput. Molec. Sci., 2012 2(1)73-78
     doi.org/10.1002/wcms.81
  2. Neese,F.
     Software update: the ORCA program system, version 4.0
     WIRES Comput. Molec. Sci., 2018 8(1)1-6
     doi.org/10.1002/wcms.1327
  3. Neese,F.; Wennmohs,F.; Becker,U.; Riplinger,C.
     The ORCA quantum chemistry program package
     J. Chem. Phys., 2020 152 Art. No. L224108
     doi.org/10.1063/5.0004608

List of optional additional citations

  1. Neese,F.
     Approximate second-order SCF convergence for spin unrestricted wavefunctions
     Chem. Phys. Lett., 2000 325(1-3)93-98
     doi.org/10.1016/s0009-2614(00)00662-x

Timings for individual modules:

Sum of individual times          ...       15.042 sec (=   0.251 min)
Startup calculation              ...        1.107 sec (=   0.018 min)   7.4 %
SCF iterations                   ...        6.508 sec (=   0.108 min)  43.3 %
Property calculations            ...        0.134 sec (=   0.002 min)   0.9 %
SCF Gradient evaluation          ...        7.293 sec (=   0.122 min)  48.5 %
                             ****ORCA TERMINATED NORMALLY****
TOTAL RUN TIME: 0 days 0 hours 0 minutes 15 seconds 969 msec
  ------------------------------------------------------------------------
          * successful ORCA run, taking over control again...

         :::::::::::::::::::::::::::::::::::::::::::::::::::::
         ::                  ORCA SUMMARY                   ::
         :::::::::::::::::::::::::::::::::::::::::::::::::::::
         :: total energy            -272.906458686420 Eh    ::
         :: gradient norm              0.001058784805 Eh/a0 ::
         :: HOMO-LUMO gap              0.000000000000 eV    ::
         :::::::::::::::::::::::::::::::::::::::::::::::::::::

      ----------------------------------------------------------- 
     |                       L-ANC optimizer                     |
      ----------------------------------------------------------- 
          low memory version by Sebastian Ehlert

          ...................................................
          :                      SETUP                      :
          :.................................................:
          :   energy convergence        0.5000000E-05 Eh    :
          :   grad. convergence         0.1000000E-02 Eh/a0 :
          :   optimization log               true           :
          :   writing optlog all                1     steps :
          :   Hessian reset                     8     steps :
          :   maximium step len.        1.0000000     a0    :
          :   LBFGS images                      8           :
          ...................................................
 * calculating model hessian...
Using Lindh-Hessian (1995)
 Shifting diagonal of input Hessian by   1.000000000000000E-002
 Lowest  eigenvalues of input Hessian
    0.000000    0.000000    0.000000    0.000000    0.000000    0.000000
    0.013411    0.014051    0.016545    0.019559    0.021083    0.022234
    0.027913    0.030049    0.042575    0.052166    0.053439    0.061393
 Highest eigenvalues
    1.144799    1.183488    1.204055    1.260614    1.304668    1.404175
 

........................................................................
.............................. CYCLE    1 ..............................
........................................................................
                         * ORCA takes the control...
  ------------------------------------------------------------------------

                                 *****************
                                 * O   R   C   A *
                                 *****************

                                            #,                                       
                                            ###                                      
                                            ####                                     
                                            #####                                    
                                            ######                                   
                                           ########,                                 
                                     ,,################,,,,,                         
                               ,,#################################,,                 
                          ,,##########################################,,             
                       ,#########################################, ''#####,          
                    ,#############################################,,   '####,        
                  ,##################################################,,,,####,       
                ,###########''''           ''''###############################       
              ,#####''   ,,,,##########,,,,          '''####'''          '####       
            ,##' ,,,,###########################,,,                        '##       
           ' ,,###''''                  '''############,,,                           
         ,,##''                                '''############,,,,        ,,,,,,###''
      ,#''                                            '''#######################'''  
     '                                                          ''''####''''         
             ,#######,   #######,   ,#######,      ##                                
            ,#'     '#,  ##    ##  ,#'     '#,    #''#        ,####,   ,####,        
            ##       ##  ##   ,#'  ##            #'  '#       #'       #'  '#        
            ##       ##  #######   ##           ,######,      #####,   #    #        
            '#,     ,#'  ##    ##  '#,     ,#' ,#      #,     #,   #   #,  ,#        
             '#######'   ##     ##  '#######'  #'      '#     '####' # '####'        



                #########################################################
                #                        -***-                          #
                #          Department of theory and spectroscopy        #
                #                                                       #
                #                      Frank Neese                      #
                #                                                       #
                #     Directorship, Architecture, Infrastructure        #
                #                    SHARK, DRIVERS                     #
                #        Core code/Algorithms in most modules           #
                #                                                       #
                #        Max Planck Institute fuer Kohlenforschung      #
                #                Kaiser Wilhelm Platz 1                 #
                #                 D-45470 Muelheim/Ruhr                 #
                #                      Germany                          #
                #                                                       #
                #                  All rights reserved                  #
                #                        -***-                          #
                #########################################################


                         Program Version 6.0.0  -   RELEASE  -


 With contributions from (in alphabetic order):
   Daniel Aravena         : Magnetic Suceptibility
   Michael Atanasov       : Ab Initio Ligand Field Theory (pilot matlab implementation)
   Alexander A. Auer      : GIAO ZORA, VPT2 properties, NMR spectrum
   Ute Becker             : All parallelization in ORCA, NUMFREQ, NUMCALC
   Giovanni Bistoni       : ED, misc. LED, open-shell LED, HFLD
   Martin Brehm           : Molecular dynamics
   Dmytro Bykov           : pre 5.0 version of the SCF Hessian
   Marcos Casanova-Páez   : Triplet and SCS-CIS(D). UHF-(DLPNO)-IP/EA/STEOM-CCSD. UHF-CVS-IP/STEOM-CCSD
   Vijay G. Chilkuri      : MRCI spin determinant printing, contributions to CSF-ICE
   Pauline Colinet        : FMM embedding
   Dipayan Datta          : RHF DLPNO-CCSD density
   Achintya Kumar Dutta   : EOM-CC, STEOM-CC
   Nicolas Foglia         : Exact transition moments, OPA infrastructure, MCD improvements
   Dmitry Ganyushin       : Spin-Orbit,Spin-Spin,Magnetic field MRCI
   Miquel Garcia          : C-PCM and meta-GGA Hessian, CCSD/C-PCM, Gaussian charge scheme
   Tiago L. C. Gouveia    : GS-ROHF, GS-ROCIS
   Yang Guo               : DLPNO-NEVPT2, F12-NEVPT2, CIM, IAO-localization
   Andreas Hansen         : Spin unrestricted coupled pair/coupled cluster methods
   Ingolf Harden          : AUTO-CI MPn and infrastructure 
   Benjamin Helmich-Paris : MC-RPA, TRAH-(SCF,CASSCF), AVAS, COSX integrals, SCF dyn. polar.
   Lee Huntington         : MR-EOM, pCC
   Robert Izsak           : Overlap fitted RIJCOSX, COSX-SCS-MP3, EOM
   Riya Kayal             : Wick's Theorem for AUTO-CI, AUTO-CI UHF-CCSDT
   Emily Kempfer          : AUTO-CI, RHF CISDT and CCSDT
   Christian Kollmar      : KDIIS, OOCD, Brueckner-CCSD(T), CCSD density, CASPT2, CASPT2-K, improved NEVPT2
   Axel Koslowski         : Symmetry handling
   Simone Kossmann        : Meta GGA functionals, TD-DFT gradient, OOMP2, (MP2 Hessian; deprecated post 5.0)
   Lucas Lang             : DCDCAS
   Marvin Lechner         : AUTO-CI (C++ implementation), FIC-MRCC
   Spencer Leger          : CASSCF response
   Dagmar Lenk            : GEPOL surface, SMD, ORCA-2-JSON
   Dimitrios Liakos       : Extrapolation schemes; Compound Job, initial MDCI parallelization
   Dimitrios Manganas     : Further ROCIS development; embedding schemes. LFT, Crystal Embedding
   Dimitrios Pantazis     : SARC Basis sets
   Anastasios Papadopoulos: AUTO-CI, single reference methods and gradients
   Taras Petrenko         : pre 6.0 DFT Hessian and TD-DFT gradient, (ASA, deprecated), ECA, 1-Electron XAS/XES, NRVS
   Peter Pinski           : DLPNO-MP2, DLPNO-MP2 Gradient
   Christoph Reimann      : Effective Core Potentials
   Marius Retegan         : Local ZFS, SOC
   Christoph Riplinger    : Optimizer, TS searches, QM/MM, DLPNO-CCSD(T), (RO)-DLPNO pert. Triples
   Michael Roemelt        : Original ROCIS implementation
   Masaaki Saitow         : Open-shell DLPNO-CCSD energy and density
   Barbara Sandhoefer     : DKH picture change effects
   Kantharuban Sivalingam : CASSCF convergence/infrastructure, NEVPT2 and variants, FIC-MRCI
   Bernardo de Souza      : ESD, SOC TD-DFT
   Georgi Stoychev        : AutoAux, RI-MP2 NMR, DLPNO-MP2 response, X2C
   Van Anh Tran           : RI-MP2 g-tensors
   Willem Van den Heuvel  : Paramagnetic NMR
   Zikuan Wang            : NOTCH, Electric field optimization 
   Frank Wennmohs         : Technical directorship and infrastructure
   Hang Xu                : AUTO-CI-Response properties 


 We gratefully acknowledge several colleagues who have allowed us to
 interface, adapt or use parts of their codes:
   Stefan Grimme, W. Hujo, H. Kruse, P. Pracht,  : VdW corrections, initial TS optimization,
                  C. Bannwarth, S. Ehlert,         DFT functionals, gCP, sTDA/sTD-DF
                  L. Wittmann, M. Mueller
   Ed Valeev, F. Pavosevic, A. Kumar             : LibInt (2-el integral package), F12 methods
   Garnet Chan, S. Sharma, J. Yang, R. Olivares  : DMRG
   Ulf Ekstrom                                   : XCFun DFT Library
   Mihaly Kallay                                 : mrcc  (arbitrary order and MRCC methods)
   Frank Weinhold                                : gennbo (NPA and NBO analysis)
   Simon Mueller                                 : openCOSMO-RS
   Christopher J. Cramer and Donald G. Truhlar   : smd solvation model
   Lars Goerigk                                  : TD-DFT with DH, B97 family of functionals
   V. Asgeirsson, H. Jonsson                     : NEB implementation
   FAccTs GmbH                                   : IRC, NEB, NEB-TS, DLPNO-Multilevel, CI-OPT
                                                   MM, QMMM, 2- and 3-layer-ONIOM, Crystal-QMMM,
                                                   LR-CPCM, SF, NACMEs, symmetry and pop. for TD-DFT,
                                                   nearIR, NL-DFT gradient (VV10), updates on ESD,
                                                   ML-optimized integration grids, MBIS, APM,
                                                   GOAT, DOCKER, SOLVATOR, interface openCOSMO-RS
   S Lehtola, MJT Oliveira, MAL Marques          : LibXC Library
   Liviu Ungur et al                             : ANISO software


 Your calculation uses the libint2 library for the computation of 2-el integrals
 For citations please refer to: http://libint.valeyev.net

 Your ORCA version has been built with support for libXC version: 6.2.2
 For citations please refer to: https://libxc.gitlab.io

 This ORCA versions uses:
   CBLAS   interface :  Fast vector & matrix operations
   LAPACKE interface :  Fast linear algebra routines
   SCALAPACK package :  Parallel linear algebra routines
   Shared memory     :  Shared parallel matrices
   BLAS/LAPACK       :  OpenBLAS 0.3.27  USE64BITINT DYNAMIC_ARCH NO_AFFINITY SkylakeX SINGLE_THREADED
        Core in use  :  SkylakeX
   Copyright (c) 2011-2014, The OpenBLAS Project




***************************************
The coordinates will be read from file: xtb_opt.xyz
***************************************


Your calculation utilizes the geometrical counterpoise correction gCP
Please cite in your paper:
H.Kruse, S. Grimme J.Chem.Phys., 136, (2012), 154101 
   

Your calculation utilizes the atom-pairwise dispersion correction
based on EEQ partial charges (D4)


Your calculation utilizes the SMD solvation module
Please cite in your paper:
A.V. Marenich, C.J. Cramer, D.G. Truhlar J. Phys. Chem. B, 113, (2009), 6378 

================================================================================

----- Orbital basis set information -----
Your calculation utilizes the basis: def2-mTZVPP
   Stefan Grimme, Andreas Hansen, Sebastian Ehlert, and Jan-Michael Mewes 
   J. Chem. Phys. 154, 064103 (2021). DOI: 10.1063/5.0040021

----- AuxJ basis set information -----
Your calculation utilizes the auxiliary basis: def2/J
   F. Weigend, Phys. Chem. Chem. Phys. 8, 1057 (2006).

================================================================================
                                        WARNINGS
                       Please study these warnings very carefully!
================================================================================

WARNING: Old DensityContainer found on disk!
         Will remove this file - 
         If you want to keep old densities, please start your calculation with a different basename. 

Using LibXC functional ID 497 : Re-regularized SCAN exchange by Furness et al
[ 1]  J. W. Furness, A. D. Kaplan, J. Ning, J. P. Perdew, and J. Sun.,  J. Phys. Chem. Lett. 11, 8208-8215 (2020)
[ 2]  J. W. Furness, A. D. Kaplan, J. Ning, J. P. Perdew, and J. Sun.,  J. Phys. Chem. Lett. 11, 9248-9248 (2020)
Using LibXC functional ID 498 : Re-regularized SCAN correlation by Furness et al
[ 1]  J. W. Furness, A. D. Kaplan, J. Ning, J. P. Perdew, and J. Sun.,  J. Phys. Chem. Lett. 11, 8208-8215 (2020)
[ 2]  J. W. Furness, A. D. Kaplan, J. Ning, J. P. Perdew, and J. Sun.,  J. Phys. Chem. Lett. 11, 9248-9248 (2020)
Using LibXC functional ID 497 : Re-regularized SCAN exchange by Furness et al
[ 1]  J. W. Furness, A. D. Kaplan, J. Ning, J. P. Perdew, and J. Sun.,  J. Phys. Chem. Lett. 11, 8208-8215 (2020)
[ 2]  J. W. Furness, A. D. Kaplan, J. Ning, J. P. Perdew, and J. Sun.,  J. Phys. Chem. Lett. 11, 9248-9248 (2020)
Using LibXC functional ID 498 : Re-regularized SCAN correlation by Furness et al
[ 1]  J. W. Furness, A. D. Kaplan, J. Ning, J. P. Perdew, and J. Sun.,  J. Phys. Chem. Lett. 11, 8208-8215 (2020)
[ 2]  J. W. Furness, A. D. Kaplan, J. Ning, J. P. Perdew, and J. Sun.,  J. Phys. Chem. Lett. 11, 9248-9248 (2020)

================================================================================
                                       INPUT FILE
================================================================================
NAME = xtb_opt.inp
|  1> ! r2scan-3c def2/J RI DEFGRID2 scfconv7 ENGRAD tightSCF miniprint
|  2> %cpcm
|  3>     smd true
|  4>     smdsolvent "water"
|  5> end
|  6> * xyzfile 0 1 xtb_opt.xyz
|  7> 
|  8>                          ****END OF INPUT****
================================================================================

                     *******************************
                     * Energy+Gradient Calculation *
                     *******************************

---------------------------------
CARTESIAN COORDINATES (ANGSTROEM)
---------------------------------
  C     -1.764705    1.019358    0.819243
  C     -1.159194    0.301440   -0.386966
  C      0.004929   -0.635554   -0.031566
  C      1.386151   -0.009163   -0.183472
  C      1.617015    1.237438    0.664499
  O      0.020320   -1.793611   -0.906039
  H     -2.183728    0.294772    1.526038
  H     -1.029117    1.621440    1.359147
  H     -2.574437    1.685947    0.505731
  H     -1.946903   -0.300399   -0.857279
  H     -0.828939    1.025964   -1.142785
  H     -0.123875   -0.981618    1.007469
  H      2.132272   -0.770496    0.074808
  H      1.529691    0.234006   -1.244725
  H      1.438686    1.038336    1.726860
  H      2.651224    1.578959    0.558254
  H      0.966070    2.061956    0.358934
  H     -0.842732   -2.221135   -0.832238

----------------------------
CARTESIAN COORDINATES (A.U.)
----------------------------
  NO LB      ZA    FRAG     MASS         X           Y           Z
   0 C     6.0000    0    12.011   -3.334810    1.926307    1.548145
   1 C     6.0000    0    12.011   -2.190560    0.569638   -0.731260
   2 C     6.0000    0    12.011    0.009315   -1.201023   -0.059651
   3 C     6.0000    0    12.011    2.619445   -0.017316   -0.346713
   4 C     6.0000    0    12.011    3.055716    2.338419    1.255722
   5 O     8.0000    0    15.999    0.038400   -3.389433   -1.712165
   6 H     1.0000    0     1.008   -4.126648    0.557038    2.883794
   7 H     1.0000    0     1.008   -1.944750    3.064077    2.568415
   8 H     1.0000    0     1.008   -4.864982    3.185978    0.955693
   9 H     1.0000    0     1.008   -3.679113   -0.567671   -1.620023
  10 H     1.0000    0     1.008   -1.566467    1.938791   -2.159551
  11 H     1.0000    0     1.008   -0.234090   -1.854990    1.903840
  12 H     1.0000    0     1.008    4.029410   -1.456027    0.141367
  13 H     1.0000    0     1.008    2.890698    0.442206   -2.352188
  14 H     1.0000    0     1.008    2.718723    1.962171    3.263292
  15 H     1.0000    0     1.008    5.010087    2.983801    1.054947
  16 H     1.0000    0     1.008    1.825608    3.896533    0.678287
  17 H     1.0000    0     1.008   -1.592533   -4.197338   -1.572702

------------------------------------------------------------------------------
                   ___                                                        
                  /   \      - P O W E R E D   B Y -                         
                 /     \                                                     
                 |  |  |   _    _      __       _____    __    __             
                 |  |  |  | |  | |    /  \     |  _  \  |  |  /  |          
                  \  \/   | |  | |   /    \    | | | |  |  | /  /          
                 / \  \   | |__| |  /  /\  \   | |_| |  |  |/  /          
                |  |  |   |  __  | /  /__\  \  |    /   |      \           
                |  |  |   | |  | | |   __   |  |    \   |  |\   \          
                \     /   | |  | | |  |  |  |  | |\  \  |  | \   \       
                 \___/    |_|  |_| |__|  |__|  |_| \__\ |__|  \__/        
                                                                              
                      - O R C A' S   B I G   F R I E N D -                    
                                      &                                       
                       - I N T E G R A L  F E E D E R -                       
                                                                              
 v1 FN, 2020, v2 2021, v3 2022-2024                                           
------------------------------------------------------------------------------


----------------------
SHARK INTEGRAL PACKAGE
----------------------

Number of atoms                             ...     18
Number of basis functions                   ...    179
Number of shells                            ...     91
Maximum angular momentum                    ...      2
Integral batch strategy                     ... SHARK/LIBINT Hybrid
RI-J (if used) integral strategy            ... SPLIT-RIJ (Revised 2003 algorithm where possible)
Printlevel                                  ...      1
Contraction scheme used                     ... SEGMENTED contraction
Prescreening option                         ... SCHWARTZ
   Thresh                                   ... 3.000e-11
   Tcut                                     ... 1.000e-12
   Tpresel                                  ... 1.000e-12 
Coulomb Range Separation                    ... NOT USED
Exchange Range Separation                   ... NOT USED
Multipole approximations                    ... NOT USED
Finite Nucleus Model                        ... NOT USED
CABS basis                                  ... NOT available
Auxiliary Coulomb fitting basis             ... AVAILABLE
   # of basis functions in Aux-J            ...    426
   # of shells in Aux-J                     ...    150
   Maximum angular momentum in Aux-J        ...      4
Auxiliary J/K fitting basis                 ... NOT available
Auxiliary Correlation fitting basis         ... NOT available
Auxiliary 'external' fitting basis          ... NOT available

Checking pre-screening integrals            ... done (  0.0 sec) Dimension = 91
Check shell pair data                       ... done (  0.0 sec)
Shell pair information
Shell pair cut-off parameter TPreSel        ...   1.0e-12
Total number of shell pairs                 ...      4186
Shell pairs after pre-screening             ...      3959
Total number of primitive shell pairs       ...     14533
Primitive shell pairs kept                  ...     10215
          la=0 lb=0:   1390 shell pairs
          la=1 lb=0:   1529 shell pairs
          la=1 lb=1:    443 shell pairs
          la=2 lb=0:    364 shell pairs
          la=2 lb=1:    205 shell pairs
          la=2 lb=2:     28 shell pairs

Calculating one electron integrals          ... done (  0.0 sec)
Calculating RI/J V-Matrix + Cholesky decomp.... done (  0.1 sec)
Calculating Nuclear repulsion               ... done (  0.0 sec) ENN=    259.647532550858 Eh

Diagonalization of the overlap matrix:
Smallest eigenvalue                        ... 2.137e-04
Time for diagonalization                   ...    0.003 sec
Threshold for overlap eigenvalues          ... 1.000e-07
Number of eigenvalues below threshold      ... 0
Time for construction of square roots      ...    0.016 sec
Total time needed                          ...    0.030 sec

-------------------
DFT GRID GENERATION
-------------------

General Integration Accuracy     IntAcc      ... 4.388
Radial Grid Type                 RadialGrid  ... OptM3 with GC (2021)
Angular Grid (max. ang.)         AngularGrid ... 4 (Lebedev-302)
Angular grid pruning method      GridPruning ... 4 (adaptive)
Weight generation scheme         WeightScheme... mBecke (2022)
Basis function cutoff            BFCut       ... 1.0000e-11
Integration weight cutoff        WCut        ... 1.0000e-14
Partially contracted basis set               ... off
Rotationally invariant grid construction     ... off
Angular grids for H and He will be reduced by one unit
Diffuse basis detected: some atoms will have their outermost
                        angular grid increased by 1.

Total number of grid points                  ...    74861
Total number of batches                      ...     1178
Average number of points per batch           ...       63
Average number of grid points per atom       ...     4159
Initializing property integral containers    ... done (  0.0 sec)

SHARK setup successfully completed in   1.1 seconds

Maximum memory used throughout the entire STARTUP-calculation: 32.6 MB
Occupation numbers will be reassigned to an Aufbau configuration
             **** ENERGY FILE WAS UPDATED (xtb_opt.en.tmp) ****
Finished Guess after   0.3 sec
Maximum memory used throughout the entire GUESS-calculation: 12.3 MB
--------------------
CPCM SOLVATION MODEL
--------------------
CPCM parameters:
  Epsilon                                         ...      78.3550
  Refrac                                          ...       1.3328
  Rsolv                                           ...       1.3000
  Surface type                                    ... GAUSSIAN VDW
  Discretization scheme                           ... Constant charge density
    Threshold for H atoms                         ...       5.0000 (charges/Ang^2)
    Threshold for non-H atoms                     ...       5.0000 (charges/Ang^2)
  Epsilon function type                           ...         CPCM
Solvent:                                          ... WATER
SMD-CDS solvent descriptors:
  Soln                                            ...       1.3328
  Soln25                                          ...       1.3323
  Sola                                            ...       0.0000
  Solb                                            ...       0.0000
  Solg                                            ...       0.0000
  Solc                                            ...       0.0000
  Solh                                            ...       0.0000
Radii:
  Scheme                                          ... Element-dependent radii
  Radius for C  used is    3.4960 Bohr (=   1.8500 Ang.)
  Radius for O  used is    2.8724 Bohr (=   1.5200 Ang.)
  Radius for H  used is    2.2677 Bohr (=   1.2000 Ang.)
Calculating surface                               ...        done! (  0.0s)
Cavity surface points                             ...         1319
Cavity Volume                                     ...     738.5362
Cavity Surface-area                               ...     492.7032
Calculating surface distance matrix               ...        done! (  0.0s)
Performing Cholesky decomposition & store         ...        done! (  0.1s)
Overall time for CPCM initialization              ...                 0.1s

----------------------------------------D-I-I-S--------------------------------------------
Iteration    Energy (Eh)           Delta-E    RMSDP     MaxDP     DIISErr   Damp  Time(sec)
-------------------------------------------------------------------------------------------
               ***  Starting incremental Fock matrix formation  ***
                              *** Initializing SOSCF ***
---------------------------------------S-O-S-C-F--------------------------------------
Iteration    Energy (Eh)           Delta-E    RMSDP     MaxDP     MaxGrad    Time(sec)
--------------------------------------------------------------------------------------
    1    -272.9168146203905394     0.00e+00  3.65e-05  1.15e-03  5.74e-05     2.4
               *** Restarting incremental Fock matrix formation ***
    2    -272.9168240540888632    -9.43e-06  1.61e-05  2.33e-04  5.84e-05     2.3
    3    -272.9168245396286352    -4.86e-07  4.65e-06  7.14e-05  2.25e-05     1.9
                  *** Gradient check signals convergence ***

               *****************************************************
               *                     SUCCESS                       *
               *           SCF CONVERGED AFTER   3 CYCLES          *
               *****************************************************


SMD CDS free energy correction energy :                 3.23017     Kcal/mol
Total Energy after SMD CDS correction =              -272.911676937 Eh
             **** ENERGY FILE WAS UPDATED (xtb_opt.en.tmp) ****

----------------
TOTAL SCF ENERGY
----------------

Total Energy       :       -272.91167693721218 Eh           -7426.30428 eV

Components:
Nuclear Repulsion  :        259.64753255085833 Eh            7065.36856 eV
Electronic Energy  :       -532.54969786202901 Eh          -14491.41401 eV
One Electron Energy:       -883.21470092885829 Eh          -24033.49385 eV
Two Electron Energy:        350.66500306682934 Eh            9542.07984 eV
CPCM Dielectric    :         -0.01465922845806 Eh              -0.39890 eV
SMD CDS (Gcds)     :          0.00514760241643 Eh               0.14007 eV

Virial components:
Potential Energy   :       -544.45390739035918 Eh          -14815.34402 eV
Kinetic Energy     :        271.54223045314700 Eh            7389.03974 eV
Virial Ratio       :          2.00504321733596

DFT components:
N(Alpha)           :       25.000021284128 electrons
N(Beta)            :       25.000021284128 electrons
N(Total)           :       50.000042568256 electrons
E(X)               :      -38.547820112397 Eh       
E(C)               :       -1.560932295267 Eh       
E(XC)              :      -40.108752407664 Eh       

CPCM Solvation Model Properties:
Surface-charge          :         -0.04669278582821
Corrected charge        :         -0.00000000000000
Outlying charge corr.   :          0.00018083624235 Eh               0.00492 eV
Free-energy (cav+disp)  :          0.00514760241643 Eh               0.14007 eV

---------------
SCF CONVERGENCE
---------------

  Last Energy change         ...    4.8554e-07  Tolerance :   1.0000e-07
  Last MAX-Density change    ...    7.1359e-05  Tolerance :   1.0000e-07
  Last RMS-Density change    ...    4.6450e-06  Tolerance :   5.0000e-09
  Last DIIS Error            ...    1.2179e-03  Tolerance :   1.0000e-07
  Last Orbital Gradient      ...    2.2524e-05  Tolerance :   1.0000e-04
  Last Orbital Rotation      ...    2.8287e-05  Tolerance :   1.0000e-04


----------------
ORBITAL ENERGIES
----------------

  NO   OCC          E(Eh)            E(eV) 
   0   2.0000     -18.947219      -515.5801 
   1   2.0000     -10.074712      -274.1469 
   2   2.0000     -10.020568      -272.6735 
   3   2.0000     -10.020399      -272.6689 
   4   2.0000     -10.013643      -272.4851 
   5   2.0000     -10.012890      -272.4646 
   6   2.0000      -0.976534       -26.5728 
   7   2.0000      -0.755924       -20.5697 
   8   2.0000      -0.709561       -19.3081 
   9   2.0000      -0.634891       -17.2763 
  10   2.0000      -0.576736       -15.6938 
  11   2.0000      -0.527235       -14.3468 
  12   2.0000      -0.468666       -12.7530 
  13   2.0000      -0.433331       -11.7915 
  14   2.0000      -0.410022       -11.1573 
  15   2.0000      -0.371946       -10.1212 
  16   2.0000      -0.367655       -10.0044 
  17   2.0000      -0.365457        -9.9446 
  18   2.0000      -0.335781        -9.1371 
  19   2.0000      -0.326335        -8.8800 
  20   2.0000      -0.314718        -8.5639 
  21   2.0000      -0.302409        -8.2290 
  22   2.0000      -0.292250        -7.9525 
  23   2.0000      -0.274218        -7.4618 
  24   2.0000      -0.238408        -6.4874 
  25   0.0000       0.076649         2.0857 
  26   0.0000       0.093397         2.5414 
  27   0.0000       0.116998         3.1837 
  28   0.0000       0.128377         3.4933 
  29   0.0000       0.134110         3.6493 
  30   0.0000       0.148171         4.0319 
  31   0.0000       0.159288         4.3344 
  32   0.0000       0.162179         4.4131 
  33   0.0000       0.169668         4.6169 
  34   0.0000       0.176155         4.7934 
  35   0.0000       0.189543         5.1577 
*Only the first 10 virtual orbitals were printed.
Total SCF time: 0 days 0 hours 0 min 7 sec 
Finished LeanSCF after   7.3 sec

Maximum memory used throughout the entire LEANSCF-calculation: 23.8 MB


-------------------------------------------------------------------------------
                          DFT DISPERSION CORRECTION                            
                                                                               
                                DFTD4 V3.4.0                                   
-------------------------------------------------------------------------------
-------------------------   ----------------
Dispersion correction           -0.004372586
-------------------------   ----------------

------------------   -----------------
gCP correction             0.009584689
------------------   -----------------

-------------------------   --------------------
FINAL SINGLE POINT ENERGY      -272.906464834018
-------------------------   --------------------

------------------------------------------------------------------------------
                         ORCA SCF GRADIENT CALCULATION
------------------------------------------------------------------------------

Nuc. rep. gradient        (SHARK) ... done (  0.0 sec)
HCore & Overlap gradient  (SHARK) ... done (  0.2 sec)
Split-RIJ-J gradient      (SHARK) ... done (  1.0 sec)
XC gradient                       ... done (  4.7 sec)
CPCM gradient                     ... done (  0.6 sec)
SMD gradient                      ... done (  0.0 sec)
Dispersion correction             ... done (  0.0 sec)

-------------------
DISPERSION GRADIENT
-------------------

   1   C   :   -0.000081942    0.000037846    0.000034794
   2   C   :   -0.000051629    0.000001272   -0.000022192
   3   C   :   -0.000000163   -0.000032771   -0.000007127
   4   C   :    0.000063877   -0.000008680   -0.000013072
   5   C   :    0.000074921    0.000047106    0.000025785
   6   O   :   -0.000016031   -0.000086476   -0.000033971
   7   H   :   -0.000040008    0.000008573    0.000020219
   8   H   :   -0.000030681    0.000020750    0.000017807
   9   H   :   -0.000037497    0.000018836    0.000007267
  10   H   :   -0.000028576   -0.000006459   -0.000012021
  11   H   :   -0.000021136    0.000008629   -0.000017276
  12   H   :   -0.000000405   -0.000024130   -0.000000822
  13   H   :    0.000031004   -0.000011973   -0.000001407
[...]
E(X)               :      -38.548314585203 Eh       
E(C)               :       -1.560907186621 Eh       
E(XC)              :      -40.109221771824 Eh       

CPCM Solvation Model Properties:
Surface-charge          :         -0.04668169714970
Corrected charge        :         -0.00000000000000
Outlying charge corr.   :          0.00018074702602 Eh               0.00492 eV
Free-energy (cav+disp)  :          0.00515521672206 Eh               0.14028 eV

---------------
SCF CONVERGENCE
---------------

  Last Energy change         ...    8.7211e-09  Tolerance :   1.0000e-07
  Last MAX-Density change    ...    5.1092e-05  Tolerance :   1.0000e-07
  Last RMS-Density change    ...    2.7996e-06  Tolerance :   5.0000e-09
  Last DIIS Error            ...    7.2670e-05  Tolerance :   1.0000e-07
  Last Orbital Gradient      ...    1.6300e-05  Tolerance :   1.0000e-04
  Last Orbital Rotation      ...    1.9317e-05  Tolerance :   1.0000e-04


----------------
ORBITAL ENERGIES
----------------

  NO   OCC          E(Eh)            E(eV) 
   0   2.0000     -18.946908      -515.5716 
   1   2.0000     -10.074767      -274.1484 
   2   2.0000     -10.020463      -272.6707 
   3   2.0000     -10.020381      -272.6684 
   4   2.0000     -10.013560      -272.4828 
   5   2.0000     -10.012764      -272.4612 
   6   2.0000      -0.976457       -26.5707 
   7   2.0000      -0.755858       -20.5679 
   8   2.0000      -0.709539       -19.3075 
   9   2.0000      -0.634939       -17.2776 
  10   2.0000      -0.576629       -15.6909 
  11   2.0000      -0.527157       -14.3447 
  12   2.0000      -0.468839       -12.7578 
  13   2.0000      -0.433257       -11.7895 
  14   2.0000      -0.409867       -11.1531 
  15   2.0000      -0.371991       -10.1224 
  16   2.0000      -0.367693       -10.0054 
  17   2.0000      -0.365167        -9.9367 
  18   2.0000      -0.335920        -9.1409 
  19   2.0000      -0.326254        -8.8778 
  20   2.0000      -0.314452        -8.5567 
  21   2.0000      -0.302784        -8.2392 
  22   2.0000      -0.291987        -7.9454 
  23   2.0000      -0.274187        -7.4610 
  24   2.0000      -0.238388        -6.4869 
  25   0.0000       0.076629         2.0852 
  26   0.0000       0.093257         2.5376 
  27   0.0000       0.117211         3.1895 
  28   0.0000       0.128166         3.4876 
  29   0.0000       0.134257         3.6533 
  30   0.0000       0.148682         4.0458 
  31   0.0000       0.159574         4.3422 
  32   0.0000       0.162305         4.4166 
  33   0.0000       0.169207         4.6043 
  34   0.0000       0.176377         4.7995 
  35   0.0000       0.189519         5.1571 
*Only the first 10 virtual orbitals were printed.
Total SCF time: 0 days 0 hours 0 min 5 sec 
Finished LeanSCF after   5.2 sec

Maximum memory used throughout the entire LEANSCF-calculation: 23.9 MB


-------------------------------------------------------------------------------
                          DFT DISPERSION CORRECTION                            
                                                                               
                                DFTD4 V3.4.0                                   
-------------------------------------------------------------------------------
-------------------------   ----------------
Dispersion correction           -0.004372008
-------------------------   ----------------

------------------   -----------------
gCP correction             0.009584100
------------------   -----------------

-------------------------   --------------------
FINAL SINGLE POINT ENERGY      -272.906485020156
-------------------------   --------------------

------------------------------------------------------------------------------
                         ORCA SCF GRADIENT CALCULATION
------------------------------------------------------------------------------

Nuc. rep. gradient        (SHARK) ... done (  0.0 sec)
HCore & Overlap gradient  (SHARK) ... done (  0.2 sec)
Split-RIJ-J gradient      (SHARK) ... done (  1.0 sec)
XC gradient                       ... done (  4.3 sec)
CPCM gradient                     ... done (  0.6 sec)
SMD gradient                      ... done (  0.0 sec)
Dispersion correction             ... done (  0.0 sec)

-------------------
DISPERSION GRADIENT
-------------------

   1   C   :   -0.000081862    0.000038174    0.000034663
   2   C   :   -0.000051875    0.000001081   -0.000022229
   3   C   :   -0.000000143   -0.000032859   -0.000007286
   4   C   :    0.000063853   -0.000008560   -0.000013218
   5   C   :    0.000075036    0.000046825    0.000026312
   6   O   :   -0.000015837   -0.000086526   -0.000033842
   7   H   :   -0.000040082    0.000008679    0.000020438
   8   H   :   -0.000030652    0.000021111    0.000017488
   9   H   :   -0.000037418    0.000018731    0.000007226
  10   H   :   -0.000028564   -0.000006524   -0.000011898
  11   H   :   -0.000021319    0.000008482   -0.000017469
  12   H   :   -0.000000342   -0.000024155   -0.000000897
  13   H   :    0.000030943   -0.000011920   -0.000001585
  14   H   :    0.000027562   -0.000003015   -0.000015534
  15   H   :    0.000036183    0.000015911    0.000021508
  16   H   :    0.000036149    0.000018357    0.000007549
  17   H   :    0.000030581    0.000026459    0.000005956
  18   H   :    0.000007786   -0.000030252   -0.000017181

Difference to translation invariance:
           :   -0.0000000000   -0.0000000000    0.0000000000

Difference to rotation invariance:
           :    0.0000000000    0.0000000000   -0.0000000000

Norm of the Dispersion gradient    ...    0.0002284556
RMS gradient                       ...    0.0000310889
MAX gradient                       ...    0.0000865256
gCP correction                   ... done

------------------
CARTESIAN GRADIENT
------------------

   1   C   :   -0.000105282    0.000075637   -0.000004043
   2   C   :    0.000069909   -0.000061896    0.000003693
   3   C   :   -0.000054546   -0.000122767   -0.000019801
   4   C   :    0.000118810    0.000039804   -0.000013904
   5   C   :    0.000041707    0.000069555    0.000005242
   6   O   :   -0.000313466   -0.000198488    0.000058449
   7   H   :   -0.000040007   -0.000061260    0.000013460
   8   H   :    0.000050195   -0.000014119    0.000029624
   9   H   :    0.000011638    0.000018413   -0.000016864
  10   H   :    0.000020593    0.000000963   -0.000010768
  11   H   :    0.000022446    0.000038745    0.000023155
  12   H   :   -0.000000031    0.000088729   -0.000087688
  13   H   :   -0.000080426    0.000049288   -0.000003997
  14   H   :   -0.000048504   -0.000002124    0.000062393
  15   H   :   -0.000012460   -0.000001286   -0.000031926
  16   H   :   -0.000019357   -0.000004116   -0.000001672
  17   H   :    0.000018141   -0.000040958   -0.000006520
  18   H   :    0.000320641    0.000125879    0.000001169

Difference to translation invariance:
           :    0.0000000000   -0.0000000000   -0.0000000000

Difference to rotation invariance:
           :   -0.0002181905   -0.0001992168    0.0001963240

Norm of the Cartesian gradient     ...    0.0006111796
RMS gradient                       ...    0.0000831710
MAX gradient                       ...    0.0003206410

-------
TIMINGS
-------

Total SCF gradient time     ....        6.678 sec

Densities                   ....       0.000 sec  (  0.0%)
One electron gradient       ....       0.183 sec  (  2.7%)
RI-J Coulomb gradient       ....       0.999 sec  ( 15.0%)
XC gradient                 ....       4.315 sec  ( 64.6%)
CPCM gradient               ....       0.610 sec  (  9.1%)
   A-Matrix (El+Nuc)        ....       0.057 sec  (  0.9%)
   Potential                ....       0.553 sec  (  8.3%)
SMD gradient                ....       0.014 sec  (  0.2%)

Maximum memory used throughout the entire SCFGRAD-calculation: 32.4 MB

------------------------------------------------------------------------------
                              ORCA PROPERTY CALCULATIONS
------------------------------------------------------------------------------

GBWName                                 ... xtb_opt.gbw
Number of atoms                         ...     18
Number of basis functions               ...    179
Max core memory                         ...   1024 MB

Electric properties:
Dipole moment                           ... YES
Quadrupole moment                       ...  NO
Static polarizability (Dipole/Dipole)   ...  NO
Static polarizability (Dipole/Quad.)    ...  NO
Static polarizability (Quad./Quad.)     ...  NO
Static polarizability (Velocity)        ...  NO

Atomic electric properties:
Dipole moment                           ...  NO
Quadrupole moment                       ...  NO
Static polarizability                   ...  NO

Choice of electric origin               ... Center of mass
Position of electric origin             ...     0.010702    -0.006815    -0.021320

General magnetic properties:
Magnetizability                         ...  NO

EPR properties:
g-Tensor (aka g-matrix)                 ...  NO
Zero-Field splitting spin-orbit         ...  NO
Zero-field splitting spin-spin          ...  NO
Hyperfine couplings                     ...  NO (   0 nuclei)
Quadrupole couplings                    ...  NO (   0 nuclei)
Contact density                         ...  NO (   0 nuclei)

NMR properties:
Chemical shifts                         ...  NO (   0 nuclei)
Spin-rotation constants                 ...  NO (   0 nuclei)
Spin-spin couplings                     ...  NO (   0 nuclei,    0 pairs)

Choice of magnetic origin               ... GIAO
Position of magnetic origin             ...     0.000000     0.000000     0.000000

Properties with geometric perturbations:
SCF Hessian                             ...  NO
IR spectrum                             ...  NO
VCD spectrum                            ...  NO
X-ray spectroscopy properties:
SCF XES/XAS/RIXS spectra                ...  NO


-------------
DIPOLE MOMENT
-------------

Method             : SCF
Type of density    : Electron Density
Multiplicity       :   1
Irrep              :   0
Energy             :  -272.9116971121375741 Eh
Relativity type    : 
Basis              : AO
                                X                 Y                 Z
Electronic contribution:      0.156753977      -4.589610256      -2.438992075
Nuclear contribution   :     -0.823154932       4.949907460       2.976588201
                        -----------------------------------------
Total Dipole Moment    :     -0.666400954       0.360297203       0.537596126
                        -----------------------------------------
Magnitude (a.u.)       :      0.928931591
Magnitude (Debye)      :      2.361156461



--------------------
Rotational spectrum 
--------------------
 
Rotational constants in cm-1:             0.111745             0.106806             0.060145 
Rotational constants in MHz :          3350.030657          3201.953386          1803.111777 

Dipole components along the rotational axes: 
x,y,z [a.u.] :    -0.825307     0.309932     0.292788 
x,y,z [Debye]:    -2.097763     0.787784     0.744209 

 

Dipole moment calculation done in   0.0 sec 

Maximum memory used throughout the entire PROP-calculation: 10.7 MB

--------------------------------
SUGGESTED CITATIONS FOR THIS RUN
--------------------------------

Below you find a list of papers that are relevant to this ORCA run
We neither can nor want to force you to cite these papers, but we appreciate if you do
You receive ORCA, which is the product of decades of hard work by many enthusiastic individuals, for free
The only thing we kindly ask in return is that you cite our papers,
We deeply appreciate it, if you show your appreciation for ORCA by not just citing the generic ORCA reference.

Please note that relegating all ORCA citations to the supporting information does *not* help us.
SI sections are not indexed - citations you put there will not count into any citation statistics
But we need these citations in order to attract the funding resources that allow us to do what we are doing

Therefore, if you are a happy ORCA user, please consider citing a few of the papers listed below in the main body of your paper

In addition to the list printed below, the program has created the file xtb_opt.bibtex that contains the list in bibtex format
You can import this file easily into all common literature databanks and citation aid programs


List of essential papers. We consider these as the minimum necessary citations

  1. Neese,F.
     Software update: the ORCA program system, version 5.0
     WIRES Comput. Molec. Sci., 2022 12(1)e1606
     doi.org/10.1002/wcms.1606
  2. Grimme,S.; Hansen,A.; Ehlert,S.; Mewes,J.
     r2SCAN-3c: A 'Swiss army knife' composite electronic-structure method
     J. Chem. Phys., 2021 154 064103
     doi.org/10.1063/5.0040021

List of papers to cite with high priority. The work reported in these papers was absolutely
necessary for this run to complete.
Our perspective: the developers of density functionals and basis sets usually get cited in chemistry papers
Good! But without the algorithms to do something with them, the functionals or basis sets would not do anything.
Hence, in our opinion, the algorithm design and method developments papers are equally worthy of getting cited

  1. Neese,F.
     An improvement of the resolution of the identity approximation for the formation of the Coulomb matrix
     J. Comp. Chem., 2003 24(14)1740-1747
     doi.org/10.1002/jcc.10318
  2. Garcia-Rates,M.; Neese,F.
     Effect of the Solute Cavity on the Solvation Energy and its Derivatives within the Framework of the Gaussian Charge Scheme
     J. Comput. Chem., 2020 41 922-939
     doi.org/10.1002/jcc.26139
  3. Neese,F.
     The SHARK Integral Generation and Digestion System
     J. Comp. Chem., 2022  1-16
     doi.org/10.1002/jcc.26942
  4. Lehtola,S.; Steigemann,C.; Oliveira,M.; Marques,M.
     Recent developments in Libxc - A comprehensive library of functionals for density functional theory
     Software X, 2018 7 
     doi.org/10.1016/j.softx.2017.11.002
  5. Caldeweyher,E.; Bannwarth,C.; Grimme,S.
     Extension of the D3 dispersion coefficient model
     J. Chem. Phys., 2017 147 034112-XXXX
     doi.org/10.1063/1.4993215
  6. Caldeweyher,E.; Ehlert,S.; Hansen,A.; Neugebauer,H.; Spicher,S.; Bannwarth,C.; Grimme,S.
     A generally applicable atomic-charge dependent London dispersion correction
     J. Chem. Phys., 2019 150 154122-XXXX
     doi.org/10.1063/1.5090222
  7. Caldeweyher,E.; Mewes,J.; Ehlert,S.; Grimme,S.
     Extension and evaluation of the D4 London-dispersion model for periodic systems
     Phys. Chem. Chem. Phys., 2020 22(16)8499-8512
     doi.org/10.1039/D0CP00502A

List of suggested additional citations. These are papers that are important in the 'surrounding' of 
of this run, or papers that preceded the highly important papers. If you like your results we are grateful for a citation.

  1. Neese,F.
     The ORCA program system
     WIRES Comput. Molec. Sci., 2012 2(1)73-78
     doi.org/10.1002/wcms.81
  2. Neese,F.
     Software update: the ORCA program system, version 4.0
     WIRES Comput. Molec. Sci., 2018 8(1)1-6
     doi.org/10.1002/wcms.1327
  3. Neese,F.; Wennmohs,F.; Becker,U.; Riplinger,C.
     The ORCA quantum chemistry program package
     J. Chem. Phys., 2020 152 Art. No. L224108
     doi.org/10.1063/5.0004608

List of optional additional citations

  1. Neese,F.
     Approximate second-order SCF convergence for spin unrestricted wavefunctions
     Chem. Phys. Lett., 2000 325(1-3)93-98
     doi.org/10.1016/s0009-2614(00)00662-x

Timings for individual modules:

Sum of individual times          ...       13.431 sec (=   0.224 min)
Startup calculation              ...        1.040 sec (=   0.017 min)   7.7 %
SCF iterations                   ...        5.510 sec (=   0.092 min)  41.0 %
Property calculations            ...        0.105 sec (=   0.002 min)   0.8 %
SCF Gradient evaluation          ...        6.775 sec (=   0.113 min)  50.4 %
                             ****ORCA TERMINATED NORMALLY****
TOTAL RUN TIME: 0 days 0 hours 0 minutes 14 seconds 338 msec
  ------------------------------------------------------------------------
          * successful ORCA run, taking over control again...

         :::::::::::::::::::::::::::::::::::::::::::::::::::::
         ::                  ORCA SUMMARY                   ::
         :::::::::::::::::::::::::::::::::::::::::::::::::::::
         :: total energy            -272.906485020156 Eh    ::
         :: gradient norm              0.000611179583 Eh/a0 ::
         :: HOMO-LUMO gap              0.000000000000 eV    ::
         :::::::::::::::::::::::::::::::::::::::::::::::::::::

           -------------------------------------------------
          |                Property Printout                |
           -------------------------------------------------
           -------------------------------------------------
          |                Geometry Summary                 |
           -------------------------------------------------

      molecular mass/u    :       88.1483734
   center of mass at/Å    :        0.0056639      -0.0036238      -0.0112910
  moments of inertia/u·Å² :        0.1508562E+03   0.1578301E+03   0.2802766E+03
rotational constants/cm⁻¹ :        0.1117464E+00   0.1068087E+00   0.6014642E-01

 * 16 selected distances

     #   Z          #   Z                                           value/Å
     1   6 C        2   6 C                                       1.5287929
     2   6 C        3   6 C                                       1.5359306 (max)
     3   6 C        4   6 C                                       1.5240538
     4   6 C        5   6 C                                       1.5253750
     1   6 C        7   1 H                                       1.0956366
     1   6 C        8   1 H                                       1.0931640
     1   6 C        9   1 H                                       1.0946917
     2   6 C       10   1 H                                       1.0972235
     2   6 C       11   1 H                                       1.0979392
     3   6 C       12   1 H                                       1.1024249
     4   6 C       13   1 H                                       1.0966146
     4   6 C       14   1 H                                       1.0980568
     5   6 C       15   1 H                                       1.0954890
     5   6 C       16   1 H                                       1.0942719
     5   6 C       17   1 H                                       1.0938808
     6   8 O       18   1 H                                       0.9655123 (min)

 * 3 distinct bonds (by element types)

   Z      Z             #   av. dist./Å        max./Å        min./Å
   1 H    6 C          11     1.0963085     1.1024249     1.0931640
   6 C    6 C           4     1.5285381     1.5359306     1.5240538
   1 H    8 O           1     0.9655123     0.9655123     0.9655123


optimized geometry written to: xtbopt.coord


           -------------------------------------------------
          | TOTAL ENERGY             -272.906485020156 Eh   |
          | GRADIENT NORM               0.000611179583 Eh/α |
           -------------------------------------------------

------------------------------------------------------------------------
 * finished run on 2025/04/11 at 12:09:07.850     
------------------------------------------------------------------------
 total:
 * wall-time:     0 d,  0 h,  2 min,  3.370 sec
 *  cpu-time:     0 d,  0 h,  0 min,  2.063 sec
 * ratio c/w:     0.017 speedup
 SCF:
 * wall-time:     0 d,  0 h,  0 min, 16.036 sec
 *  cpu-time:     0 d,  0 h,  0 min,  0.208 sec
 * ratio c/w:     0.013 speedup
 ANC optimizer:
 * wall-time:     0 d,  0 h,  1 min, 47.261 sec
 *  cpu-time:     0 d,  0 h,  0 min,  1.833 sec
 * ratio c/w:     0.017 speedup

