
                                 *****************
                                 * O   R   C   A *
                                 *****************

                                            #,                                       
                                            ###                                      
                                            ####                                     
                                            #####                                    
                                            ######                                   
                                           ########,                                 
                                     ,,################,,,,,                         
                               ,,#################################,,                 
                          ,,##########################################,,             
                       ,#########################################, ''#####,          
                    ,#############################################,,   '####,        
                  ,##################################################,,,,####,       
                ,###########''''           ''''###############################       
              ,#####''   ,,,,##########,,,,          '''####'''          '####       
            ,##' ,,,,###########################,,,                        '##       
           ' ,,###''''                  '''############,,,                           
         ,,##''                                '''############,,,,        ,,,,,,###''
      ,#''                                            '''#######################'''  
     '                                                          ''''####''''         
             ,#######,   #######,   ,#######,      ##                                
            ,#'     '#,  ##    ##  ,#'     '#,    #''#        ,####,   ,####,        
            ##       ##  ##   ,#'  ##            #'  '#       #'       #'  '#        
            ##       ##  #######   ##           ,######,      #####,   #    #        
            '#,     ,#'  ##    ##  '#,     ,#' ,#      #,     #,   #   #,  ,#        
             '#######'   ##     ##  '#######'  #'      '#     '####' # '####'        



                #########################################################
                #                        -***-                          #
                #          Department of theory and spectroscopy        #
                #                                                       #
                #                      Frank Neese                      #
                #                                                       #
                #     Directorship, Architecture, Infrastructure        #
                #                    SHARK, DRIVERS                     #
                #        Core code/Algorithms in most modules           #
                #                                                       #
                #        Max Planck Institute fuer Kohlenforschung      #
                #                Kaiser Wilhelm Platz 1                 #
                #                 D-45470 Muelheim/Ruhr                 #
                #                      Germany                          #
                #                                                       #
                #                  All rights reserved                  #
                #                        -***-                          #
                #########################################################


                         Program Version 6.0.0  -   RELEASE  -


 With contributions from (in alphabetic order):
   Daniel Aravena         : Magnetic Suceptibility
   Michael Atanasov       : Ab Initio Ligand Field Theory (pilot matlab implementation)
   Alexander A. Auer      : GIAO ZORA, VPT2 properties, NMR spectrum
   Ute Becker             : All parallelization in ORCA, NUMFREQ, NUMCALC
   Giovanni Bistoni       : ED, misc. LED, open-shell LED, HFLD
   Martin Brehm           : Molecular dynamics
   Dmytro Bykov           : pre 5.0 version of the SCF Hessian
   Marcos Casanova-Páez   : Triplet and SCS-CIS(D). UHF-(DLPNO)-IP/EA/STEOM-CCSD. UHF-CVS-IP/STEOM-CCSD
   Vijay G. Chilkuri      : MRCI spin determinant printing, contributions to CSF-ICE
   Pauline Colinet        : FMM embedding
   Dipayan Datta          : RHF DLPNO-CCSD density
   Achintya Kumar Dutta   : EOM-CC, STEOM-CC
   Nicolas Foglia         : Exact transition moments, OPA infrastructure, MCD improvements
   Dmitry Ganyushin       : Spin-Orbit,Spin-Spin,Magnetic field MRCI
   Miquel Garcia          : C-PCM and meta-GGA Hessian, CCSD/C-PCM, Gaussian charge scheme
   Tiago L. C. Gouveia    : GS-ROHF, GS-ROCIS
   Yang Guo               : DLPNO-NEVPT2, F12-NEVPT2, CIM, IAO-localization
   Andreas Hansen         : Spin unrestricted coupled pair/coupled cluster methods
   Ingolf Harden          : AUTO-CI MPn and infrastructure 
   Benjamin Helmich-Paris : MC-RPA, TRAH-(SCF,CASSCF), AVAS, COSX integrals, SCF dyn. polar.
   Lee Huntington         : MR-EOM, pCC
   Robert Izsak           : Overlap fitted RIJCOSX, COSX-SCS-MP3, EOM
   Riya Kayal             : Wick's Theorem for AUTO-CI, AUTO-CI UHF-CCSDT
   Emily Kempfer          : AUTO-CI, RHF CISDT and CCSDT
   Christian Kollmar      : KDIIS, OOCD, Brueckner-CCSD(T), CCSD density, CASPT2, CASPT2-K, improved NEVPT2
   Axel Koslowski         : Symmetry handling
   Simone Kossmann        : Meta GGA functionals, TD-DFT gradient, OOMP2, (MP2 Hessian; deprecated post 5.0)
   Lucas Lang             : DCDCAS
   Marvin Lechner         : AUTO-CI (C++ implementation), FIC-MRCC
   Spencer Leger          : CASSCF response
   Dagmar Lenk            : GEPOL surface, SMD, ORCA-2-JSON
   Dimitrios Liakos       : Extrapolation schemes; Compound Job, initial MDCI parallelization
   Dimitrios Manganas     : Further ROCIS development; embedding schemes. LFT, Crystal Embedding
   Dimitrios Pantazis     : SARC Basis sets
   Anastasios Papadopoulos: AUTO-CI, single reference methods and gradients
   Taras Petrenko         : pre 6.0 DFT Hessian and TD-DFT gradient, (ASA, deprecated), ECA, 1-Electron XAS/XES, NRVS
   Peter Pinski           : DLPNO-MP2, DLPNO-MP2 Gradient
   Christoph Reimann      : Effective Core Potentials
   Marius Retegan         : Local ZFS, SOC
   Christoph Riplinger    : Optimizer, TS searches, QM/MM, DLPNO-CCSD(T), (RO)-DLPNO pert. Triples
   Michael Roemelt        : Original ROCIS implementation
   Masaaki Saitow         : Open-shell DLPNO-CCSD energy and density
   Barbara Sandhoefer     : DKH picture change effects
   Kantharuban Sivalingam : CASSCF convergence/infrastructure, NEVPT2 and variants, FIC-MRCI
   Bernardo de Souza      : ESD, SOC TD-DFT
   Georgi Stoychev        : AutoAux, RI-MP2 NMR, DLPNO-MP2 response, X2C
   Van Anh Tran           : RI-MP2 g-tensors
   Willem Van den Heuvel  : Paramagnetic NMR
   Zikuan Wang            : NOTCH, Electric field optimization 
   Frank Wennmohs         : Technical directorship and infrastructure
   Hang Xu                : AUTO-CI-Response properties 


 We gratefully acknowledge several colleagues who have allowed us to
 interface, adapt or use parts of their codes:
   Stefan Grimme, W. Hujo, H. Kruse, P. Pracht,  : VdW corrections, initial TS optimization,
                  C. Bannwarth, S. Ehlert,         DFT functionals, gCP, sTDA/sTD-DF
                  L. Wittmann, M. Mueller
   Ed Valeev, F. Pavosevic, A. Kumar             : LibInt (2-el integral package), F12 methods
   Garnet Chan, S. Sharma, J. Yang, R. Olivares  : DMRG
   Ulf Ekstrom                                   : XCFun DFT Library
   Mihaly Kallay                                 : mrcc  (arbitrary order and MRCC methods)
   Frank Weinhold                                : gennbo (NPA and NBO analysis)
   Simon Mueller                                 : openCOSMO-RS
   Christopher J. Cramer and Donald G. Truhlar   : smd solvation model
   Lars Goerigk                                  : TD-DFT with DH, B97 family of functionals
   V. Asgeirsson, H. Jonsson                     : NEB implementation
   FAccTs GmbH                                   : IRC, NEB, NEB-TS, DLPNO-Multilevel, CI-OPT
                                                   MM, QMMM, 2- and 3-layer-ONIOM, Crystal-QMMM,
                                                   LR-CPCM, SF, NACMEs, symmetry and pop. for TD-DFT,
                                                   nearIR, NL-DFT gradient (VV10), updates on ESD,
                                                   ML-optimized integration grids, MBIS, APM,
                                                   GOAT, DOCKER, SOLVATOR, interface openCOSMO-RS
   S Lehtola, MJT Oliveira, MAL Marques          : LibXC Library
   Liviu Ungur et al                             : ANISO software


 Your calculation uses the libint2 library for the computation of 2-el integrals
 For citations please refer to: http://libint.valeyev.net

 Your ORCA version has been built with support for libXC version: 6.2.2
 For citations please refer to: https://libxc.gitlab.io

 This ORCA versions uses:
   CBLAS   interface :  Fast vector & matrix operations
   LAPACKE interface :  Fast linear algebra routines
   SCALAPACK package :  Parallel linear algebra routines
   Shared memory     :  Shared parallel matrices
   BLAS/LAPACK       :  OpenBLAS 0.3.27  USE64BITINT DYNAMIC_ARCH NO_AFFINITY SkylakeX SINGLE_THREADED
        Core in use  :  SkylakeX
   Copyright (c) 2011-2014, The OpenBLAS Project


Your calculation utilizes the geometrical counterpoise correction gCP
Please cite in your paper:
H.Kruse, S. Grimme J.Chem.Phys., 136, (2012), 154101 
   

Your calculation utilizes the atom-pairwise dispersion correction
based on EEQ partial charges (D4)


================================================================================

----- Orbital basis set information -----
Your calculation utilizes the basis: def2-SV(P)
   F. Weigend and R. Ahlrichs, Phys. Chem. Chem. Phys. 7, 3297 (2005).

----- AuxJ basis set information -----
Your calculation utilizes the auxiliary basis: def2/J
   F. Weigend, Phys. Chem. Chem. Phys. 8, 1057 (2006).

================================================================================
                                        WARNINGS
                       Please study these warnings very carefully!
================================================================================


================================================================================
                                       INPUT FILE
================================================================================
NAME = sp.inp
|  1> ! pbe def2-sv(p) def2/J RI DEFGRID1 loosescf d4 GCP(DFT/SV(P)) printgap
|  2> %output
|  3>     printlevel normal
|  4> end
|  5> * xyz 0 1
|  6> C -1.343036857 -0.4291086324 -0.3602358086
|  7> C 0.0191066885 -0.0281487736 0.244010677
|  8> C 1.1590155583 -0.6875895889 -0.5438404761
|  9> O 2.3937829847 -0.6591938265 0.1266986043
| 10> O 0.1923811254 1.3769168082 0.1850377356
| 11> O -2.4110392185 0.2757050259 0.2277969609
| 12> H -1.5325450082 -1.4857542117 -0.1663722146
| 13> H -1.319288188 -0.261515656 -1.4432049667
| 14> H 0.0557059414 -0.3652507338 1.2880365906
| 15> H 1.3123968436 -0.1219413765 -1.4649438918
| 16> H 0.8761030267 -1.716925819 -0.7969137036
| 17> H 2.3302217221 -1.1686079499 0.9474075973
| 18> H -0.1923961453 1.7870910794 0.9707082955
| 19> H -2.3448772526 1.2059918986 -0.0335068528
| 20> *
| 21> 
| 22>                          ****END OF INPUT****
================================================================================

                       ****************************
                       * Single Point Calculation *
                       ****************************

---------------------------------
CARTESIAN COORDINATES (ANGSTROEM)
---------------------------------
  C     -1.343037   -0.429109   -0.360236
  C      0.019107   -0.028149    0.244011
  C      1.159016   -0.687590   -0.543840
  O      2.393783   -0.659194    0.126699
  O      0.192381    1.376917    0.185038
  O     -2.411039    0.275705    0.227797
  H     -1.532545   -1.485754   -0.166372
  H     -1.319288   -0.261516   -1.443205
  H      0.055706   -0.365251    1.288037
  H      1.312397   -0.121941   -1.464944
  H      0.876103   -1.716926   -0.796914
  H      2.330222   -1.168608    0.947408
  H     -0.192396    1.787091    0.970708
  H     -2.344877    1.205992   -0.033507

----------------------------
CARTESIAN COORDINATES (A.U.)
----------------------------
  NO LB      ZA    FRAG     MASS         X           Y           Z
   0 C     6.0000    0    12.011   -2.537972   -0.810898   -0.680747
   1 C     6.0000    0    12.011    0.036106   -0.053193    0.461113
   2 C     6.0000    0    12.011    2.190222   -1.299356   -1.027710
   3 O     8.0000    0    15.999    4.523594   -1.245696    0.239426
   4 O     8.0000    0    15.999    0.363548    2.601996    0.349671
   5 O     8.0000    0    15.999   -4.556204    0.521007    0.430474
   6 H     1.0000    0     1.008   -2.896090   -2.807669   -0.314398
   7 H     1.0000    0     1.008   -2.493093   -0.494193   -2.727262
   8 H     1.0000    0     1.008    0.105269   -0.690224    2.434036
   9 H     1.0000    0     1.008    2.480071   -0.230436   -2.768343
  10 H     1.0000    0     1.008    1.655595   -3.244520   -1.505949
  11 H     1.0000    0     1.008    4.403481   -2.208349    1.790341
  12 H     1.0000    0     1.008   -0.363576    3.377113    1.834373
  13 H     1.0000    0     1.008   -4.431176    2.278994   -0.063319

--------------------------------
INTERNAL COORDINATES (ANGSTROEM)
--------------------------------
 C      0   0   0     0.000000000000     0.00000000     0.00000000
 C      1   0   0     1.543151859759     0.00000000     0.00000000
 C      2   1   0     1.534589150155   110.05960707     0.00000000
 O      3   2   1     1.405375243472   113.51565715   195.30824114
 O      2   1   3     1.416937234834   110.44460888   119.52301864
 O      1   2   3     1.408252063766   112.07903666   187.05824386
 H      1   2   3     1.090869521393   109.59916193    69.42344757
 H      1   2   3     1.096117513049   109.14847195   309.97898308
 H      2   1   3     1.097710046028   108.78719039   240.19505597
 H      3   2   1     1.091748698779   108.35270871    78.37019240
 H      3   2   1     1.097095544431   109.27205078   319.56891690
 H      4   3   2     0.968042372220   109.64468901    63.00145022
 H      5   2   1     0.966216699036   109.78047428    87.33300676
 H      6   1   2     0.968550852720   108.43669110    68.43639445

---------------------------
INTERNAL COORDINATES (A.U.)
---------------------------
 C      0   0   0     0.000000000000     0.00000000     0.00000000
 C      1   0   0     2.916134397995     0.00000000     0.00000000
 C      2   1   0     2.899953221880   110.05960707     0.00000000
 O      3   2   1     2.655774325555   113.51565715   195.30824114
 O      2   1   3     2.677623322792   110.44460888   119.52301864
 O      1   2   3     2.661210728047   112.07903666   187.05824386
 H      1   2   3     2.061444643274   109.59916193    69.42344757
 H      1   2   3     2.071361910258   109.14847195   309.97898308
 H      2   1   3     2.074371361448   108.78719039   240.19505597
 H      3   2   1     2.063106047757   108.35270871    78.37019240
 H      3   2   1     2.073210121720   109.27205078   319.56891690
 H      4   3   2     1.829334969528   109.64468901    63.00145022
 H      5   2   1     1.825884947199   109.78047428    87.33300676
 H      6   1   2     1.830295858416   108.43669110    68.43639445

---------------------
BASIS SET INFORMATION
---------------------
There are 3 groups of distinct atoms

 Group   1 Type C   : 7s4p1d contracted to 3s2p1d pattern {511/31/1}
 Group   2 Type O   : 7s4p1d contracted to 3s2p1d pattern {511/31/1}
 Group   3 Type H   : 4s contracted to 2s pattern {31}

Atom   0C    basis set group =>   1
Atom   1C    basis set group =>   1
Atom   2C    basis set group =>   1
Atom   3O    basis set group =>   2
Atom   4O    basis set group =>   2
Atom   5O    basis set group =>   2
Atom   6H    basis set group =>   3
Atom   7H    basis set group =>   3
Atom   8H    basis set group =>   3
Atom   9H    basis set group =>   3
Atom  10H    basis set group =>   3
Atom  11H    basis set group =>   3
Atom  12H    basis set group =>   3
Atom  13H    basis set group =>   3
---------------------------------
AUXILIARY/J BASIS SET INFORMATION
---------------------------------
There are 3 groups of distinct atoms

 Group   1 Type C   : 12s5p4d2f1g contracted to 6s4p3d1f1g pattern {711111/2111/211/2/1}
 Group   2 Type O   : 12s5p4d2f1g contracted to 6s4p3d1f1g pattern {711111/2111/211/2/1}
 Group   3 Type H   : 5s2p1d contracted to 3s1p1d pattern {311/2/1}

Atom   0C    basis set group =>   1
Atom   1C    basis set group =>   1
Atom   2C    basis set group =>   1
Atom   3O    basis set group =>   2
Atom   4O    basis set group =>   2
Atom   5O    basis set group =>   2
Atom   6H    basis set group =>   3
Atom   7H    basis set group =>   3
Atom   8H    basis set group =>   3
Atom   9H    basis set group =>   3
Atom  10H    basis set group =>   3
Atom  11H    basis set group =>   3
Atom  12H    basis set group =>   3
Atom  13H    basis set group =>   3
------------------------------------------------------------------------------
                             ORCA STARTUP CALCULATIONS
                           -- RI-GTO INTEGRALS CHOSEN --
------------------------------------------------------------------------------
------------------------------------------------------------------------------
                   ___                                                        
                  /   \      - P O W E R E D   B Y -                         
                 /     \                                                     
                 |  |  |   _    _      __       _____    __    __             
                 |  |  |  | |  | |    /  \     |  _  \  |  |  /  |          
                  \  \/   | |  | |   /    \    | | | |  |  | /  /          
                 / \  \   | |__| |  /  /\  \   | |_| |  |  |/  /          
                |  |  |   |  __  | /  /__\  \  |    /   |      \           
                |  |  |   | |  | | |   __   |  |    \   |  |\   \          
                \     /   | |  | | |  |  |  |  | |\  \  |  | \   \       
                 \___/    |_|  |_| |__|  |__|  |_| \__\ |__|  \__/        
                                                                              
                      - O R C A' S   B I G   F R I E N D -                    
                                      &                                       
                       - I N T E G R A L  F E E D E R -                       
                                                                              
 v1 FN, 2020, v2 2021, v3 2022-2024                                           
------------------------------------------------------------------------------


----------------------
SHARK INTEGRAL PACKAGE
----------------------

Number of atoms                             ...     14
Number of basis functions                   ...    100
Number of shells                            ...     52
Maximum angular momentum                    ...      2
Integral batch strategy                     ... SHARK/LIBINT Hybrid
RI-J (if used) integral strategy            ... SPLIT-RIJ (Revised 2003 algorithm where possible)
Printlevel                                  ...      1
Contraction scheme used                     ... SEGMENTED contraction
Prescreening option                         ... SCHWARTZ
   Thresh                                   ... 1.000e-09
   Tcut                                     ... 1.000e-10
   Tpresel                                  ... 1.000e-10 
Coulomb Range Separation                    ... NOT USED
Exchange Range Separation                   ... NOT USED
Multipole approximations                    ... NOT USED
Finite Nucleus Model                        ... NOT USED
CABS basis                                  ... NOT available
Auxiliary Coulomb fitting basis             ... AVAILABLE
   # of basis functions in Aux-J            ...    382
   # of shells in Aux-J                     ...    130
   Maximum angular momentum in Aux-J        ...      4
Auxiliary J/K fitting basis                 ... NOT available
Auxiliary Correlation fitting basis         ... NOT available
Auxiliary 'external' fitting basis          ... NOT available

Checking pre-screening integrals            ... done (  0.0 sec) Dimension = 52
Check shell pair data                       ... done (  0.0 sec)
Shell pair information
Shell pair cut-off parameter TPreSel        ...   1.0e-10
Total number of shell pairs                 ...      1378
Shell pairs after pre-screening             ...      1318
Total number of primitive shell pairs       ...      5562
Primitive shell pairs kept                  ...      3928
          la=0 lb=0:    567 shell pairs
          la=1 lb=0:    394 shell pairs
          la=1 lb=1:     77 shell pairs
          la=2 lb=0:    190 shell pairs
          la=2 lb=1:     70 shell pairs
          la=2 lb=2:     20 shell pairs

Calculating one electron integrals          ... done (  0.0 sec)
Calculating RI/J V-Matrix + Cholesky decomp.... done (  0.1 sec)
Calculating Nuclear repulsion               ... done (  0.0 sec) ENN=    259.607575351254 Eh

Diagonalization of the overlap matrix:
Smallest eigenvalue                        ... 1.846e-03
Time for diagonalization                   ...    0.001 sec
Threshold for overlap eigenvalues          ... 1.000e-07
Number of eigenvalues below threshold      ... 0
Time for construction of square roots      ...    0.012 sec
Total time needed                          ...    0.021 sec

-------------------
DFT GRID GENERATION
-------------------

General Integration Accuracy     IntAcc      ... 4.159
Radial Grid Type                 RadialGrid  ... OptM3 with GC (2021)
Angular Grid (max. ang.)         AngularGrid ... 3 (Lebedev-194)
Angular grid pruning method      GridPruning ... 4 (adaptive)
Weight generation scheme         WeightScheme... mBecke (2022)
Basis function cutoff            BFCut       ... 1.0000e-10
Integration weight cutoff        WCut        ... 1.0000e-14
Partially contracted basis set               ... off
Rotationally invariant grid construction     ... off
Angular grids for H and He will be reduced by one unit

Total number of grid points                  ...    31047
Total number of batches                      ...      493
Average number of points per batch           ...       62
Average number of grid points per atom       ...     2218
Initializing property integral containers    ... done (  0.0 sec)

SHARK setup successfully completed in   0.5 seconds

Maximum memory used throughout the entire STARTUP-calculation: 15.2 MB
-------------------------------------------------------------------------------
                                 ORCA GUESS
                   Start orbitals & Density for SCF / CASSCF
-------------------------------------------------------------------------------

------------
SCF SETTINGS
------------
Hamiltonian:
 Density Functional     Method          .... DFT(GTOs)
 Exchange Functional    Exchange        .... PBE
   PBE kappa parameter   XKappa         ....  0.804000
   PBE mue parameter    XMuePBE         ....  0.219520
 Correlation Functional Correlation     .... PBE
   PBE beta parameter  CBetaPBE         ....  0.066725
 LDA part of GGA corr.  LDAOpt          .... PW91-LDA
 Gradients option       PostSCFGGA      .... off
   NL short-range parameter             ....  6.400000
 RI-approximation to the Coulomb term is turned on
   Number of AuxJ basis functions       .... 382


General Settings:
 Integral files         IntName         .... sp
 Hartree-Fock type      HFTyp           .... RHF
 Total Charge           Charge          ....    0
 Multiplicity           Mult            ....    1
 Number of Electrons    NEL             ....   50
 Basis Dimension        Dim             ....  100
 Nuclear Repulsion      ENuc            ....    259.6075753513 Eh

Convergence Acceleration:
 AO-DIIS                CNVDIIS         .... on
   Start iteration      DIISMaxIt       ....    12
   Startup error        DIISStart       ....  0.200000
   # of expansion vecs  DIISMaxEq       ....     5
   Bias factor          DIISBfac        ....   1.050
   Max. coefficient     DIISMaxC        ....  10.000
 MO-DIIS                CNVKDIIS        .... off
 Trust-Rad. Augm. Hess. CNVTRAH         .... auto
   Auto Start mean grad. ratio tolernc. ....  1.125000
   Auto Start start iteration           ....    50
   Auto Start num. interpolation iter.  ....    10
   Max. Number of Micro iterations      ....    24
   Max. Number of Macro iterations      .... Maxiter - #DIIS iter
   Number of Davidson start vectors     ....     2
   Converg. threshold    (grad. norm)   ....   1.000e-04
   Grad. Scal. Fac. for Micro threshold ....   0.100
   Minimum threshold for Micro iter.    ....   1.000e-02
   NR start threshold (gradient norm)   ....   1.000e-04
   Initial trust radius                 ....   0.400
   Minimum AH scaling param. (alpha)    ....   1.000
   Maximum AH scaling param. (alpha)    .... 1000.000
   Quad. conv. algorithm                .... NR
   White noise on init. David. guess    .... on
   Maximum white noise                  ....   0.010
   Pseudo random numbers                .... off
   Inactive MOs                         .... canonical
   Orbital update algorithm             .... Taylor
   Preconditioner                       .... Diag
   Full preconditioner red. dimension   ....   250
 SOSCF                  CNVSOSCF        .... on
   Start iteration      SOSCFMaxIt      ....   150
   Startup grad/error   SOSCFStart      ....  0.003300
   Hessian update       SOSCFHessUp     .... L-BFGS
 Level Shifting         CNVShift        .... on
   Level shift para.    LevelShift      ....    0.2500
   Turn off err/grad.   ShiftErr        ....    0.0010
 Zerner damping         CNVZerner       .... off
 Static damping         CNVDamp         .... on
   Fraction old density DampFac         ....    0.7000
   Max. Damping (<1)    DampMax         ....    0.9800
   Min. Damping (>=0)   DampMin         ....    0.0000
   Turn off err/grad.   DampErr         ....    0.1000

SCF Procedure:
 Maximum # iterations   MaxIter         ....   125
 SCF integral mode      SCFMode         .... Direct
   Integral package                     .... SHARK and LIBINT hybrid scheme
 Reset frequency        DirectResetFreq ....    20
 Integral Threshold     Thresh          ....  1.000e-09 Eh
 Primitive CutOff       TCut            ....  1.000e-10 Eh

Convergence Tolerance:
 Convergence Check Mode ConvCheckMode   .... Total+1el-Energy
 Convergence forced     ConvForced      .... 0
 Energy Change          TolE            ....  1.000e-05 Eh
 1-El. energy change                    ....  1.000e-02 Eh
 Orbital Gradient       TolG            ....  1.000e-04
 Orbital Rotation angle TolX            ....  1.000e-04
 DIIS Error             TolErr          ....  5.000e-04

------------------------------
INITIAL GUESS: MODEL POTENTIAL
------------------------------
Loading Hartree-Fock densities                     ... done
Calculating cut-offs                               ... done
Initializing the effective Hamiltonian             ... done
Setting up the integral package (SHARK)            ... done
Starting the Coulomb interaction                   ... done (   0.1 sec)
Making the grid                                    ... done (   0.1 sec)
Mapping shells                                     ... done
Starting the XC term evaluation                    ... done (   0.1 sec)
  promolecular density results
     # of electrons  =     49.993732232
     EX              =    -42.171725617
     EC              =     -1.663995920
     EX+EC           =    -43.835721537
Transforming the Hamiltonian                       ... done (   0.0 sec)
Diagonalizing the Hamiltonian                      ... done (   0.0 sec)
Back transforming the eigenvectors                 ... done (   0.0 sec)
Now organizing SCF variables                       ... done
                      ------------------
                      INITIAL GUESS DONE (   0.4 sec)
                      ------------------
             **** ENERGY FILE WAS UPDATED (sp.en.tmp) ****
Finished Guess after   0.5 sec
Maximum memory used throughout the entire GUESS-calculation: 11.7 MB

-------------------------------------------------------------------------------------------
                                      ORCA LEAN-SCF
                              memory conserving SCF solver
-------------------------------------------------------------------------------------------

----------------------------------------D-I-I-S--------------------------------------------
Iteration    Energy (Eh)           Delta-E    RMSDP     MaxDP     DIISErr   Damp  Time(sec)
-------------------------------------------------------------------------------------------
               ***  Starting incremental Fock matrix formation  ***
    1    -343.8874135657159172     0.00e+00  6.38e-03  7.98e-02  2.32e-01  0.700   0.6
    2    -343.9817469174070652    -9.43e-02  4.08e-03  5.72e-02  9.39e-02  0.700   0.6
                               ***Turning on AO-DIIS***
    3    -344.0116172841010780    -2.99e-02  1.46e-03  1.46e-02  1.97e-02  0.700   0.6
    4    -344.0312173298497669    -1.96e-02  1.94e-03  2.39e-02  1.06e-02  0.000   0.5
    5    -344.0766748716540064    -4.55e-02  5.76e-04  8.27e-03  7.02e-03  0.000   0.5
                              *** Initializing SOSCF ***
---------------------------------------S-O-S-C-F--------------------------------------
Iteration    Energy (Eh)           Delta-E    RMSDP     MaxDP     MaxGrad    Time(sec)
--------------------------------------------------------------------------------------
    6    -344.0769349011296185    -2.60e-04  2.08e-04  2.69e-03  1.22e-03     0.5
               *** Restarting incremental Fock matrix formation ***
    7    -344.0769568919651533    -2.20e-05  1.44e-04  2.16e-03  2.04e-04     0.5
    8    -344.0769583691377989    -1.48e-06  4.66e-05  5.74e-04  2.02e-04     0.5
                 **** Energy Check signals convergence ****

               *****************************************************
               *                     SUCCESS                       *
               *           SCF CONVERGED AFTER   8 CYCLES          *
               *****************************************************

             **** ENERGY FILE WAS UPDATED (sp.en.tmp) ****

----------------
TOTAL SCF ENERGY
----------------

Total Energy       :       -344.07695836913780 Eh           -9362.81003 eV

Components:
Nuclear Repulsion  :        259.60757535125430 Eh            7064.28127 eV
Electronic Energy  :       -603.68453372039210 Eh          -16427.09130 eV
One Electron Energy:       -985.28244924523892 Eh          -26810.89848 eV
Two Electron Energy:        381.59791552484683 Eh           10383.80718 eV

Virial components:
Potential Energy   :       -685.82284226780735 Eh          -18662.18831 eV
Kinetic Energy     :        341.74588389866949 Eh            9299.37827 eV
Virial Ratio       :          2.00682107548414

DFT components:
N(Alpha)           :       24.999916819887 electrons
N(Beta)            :       24.999916819887 electrons
N(Total)           :       49.999833639774 electrons
E(X)               :      -42.971937195859 Eh       
E(C)               :       -1.680877545215 Eh       
E(XC)              :      -44.652814741073 Eh       

---------------
SCF CONVERGENCE
---------------

  Last Energy change         ...    1.4772e-06  Tolerance :   1.0000e-05
  Last MAX-Density change    ...    5.7418e-04  Tolerance :   1.0000e-03
  Last RMS-Density change    ...    4.6638e-05  Tolerance :   1.0000e-04
  Last DIIS Error            ...    1.2212e-03  Tolerance :   5.0000e-04
  Last Orbital Gradient      ...    2.0196e-04  Tolerance :   1.0000e-04
  Last Orbital Rotation      ...    1.8864e-04  Tolerance :   1.0000e-04


----------------
ORBITAL ENERGIES
----------------

  NO   OCC          E(Eh)            E(eV) 
   0   2.0000     -18.756166      -510.3812 
   1   2.0000     -18.749068      -510.1881 
   2   2.0000     -18.742768      -510.0166 
   3   2.0000      -9.940305      -270.4894 
   4   2.0000      -9.931375      -270.2465 
   5   2.0000      -9.931266      -270.2435 
   6   2.0000      -0.941588       -25.6219 
   7   2.0000      -0.921021       -25.0623 
   8   2.0000      -0.911354       -24.7992 
   9   2.0000      -0.686871       -18.6907 
  10   2.0000      -0.600822       -16.3492 
  11   2.0000      -0.544115       -14.8061 
  12   2.0000      -0.486798       -13.2464 
  13   2.0000      -0.473167       -12.8755 
  14   2.0000      -0.438715       -11.9380 
  15   2.0000      -0.408874       -11.1260 
  16   2.0000      -0.380821       -10.3627 
  17   2.0000      -0.372255       -10.1296 
  18   2.0000      -0.354377        -9.6431 
  19   2.0000      -0.298360        -8.1188 
  20   2.0000      -0.289687        -7.8828 
  21   2.0000      -0.271637        -7.3916 
  22   2.0000      -0.245253        -6.6737 
  23   2.0000      -0.224099        -6.0980 
  24   2.0000      -0.201690        -5.4883 
  25   0.0000       0.010744         0.2924 
  26   0.0000       0.028589         0.7780 
  27   0.0000       0.055901         1.5211 
  28   0.0000       0.059772         1.6265 
  29   0.0000       0.088478         2.4076 
  30   0.0000       0.094994         2.5849 
  31   0.0000       0.117832         3.2064 
  32   0.0000       0.125365         3.4113 
  33   0.0000       0.161156         4.3853 
  34   0.0000       0.182061         4.9541 
  35   0.0000       0.187694         5.1074 
*Only the first 10 virtual orbitals were printed.

                    ********************************
                    * MULLIKEN POPULATION ANALYSIS *
                    ********************************

-----------------------
MULLIKEN ATOMIC CHARGES
-----------------------
   0 C :    0.025357
   1 C :   -0.036454
   2 C :    0.043347
   3 O :   -0.428881
   4 O :   -0.422825
   5 O :   -0.437672
   6 H :    0.083703
   7 H :    0.076095
   8 H :    0.052450
   9 H :    0.094184
  10 H :    0.074349
  11 H :    0.291658
  12 H :    0.298780
  13 H :    0.285908
Sum of atomic charges:   -0.0000000

--------------------------------
MULLIKEN REDUCED ORBITAL CHARGES
--------------------------------
  0 C s       :     3.048237  s :     3.048237
      pz      :     0.997625  p :     2.863952
      px      :     0.865929
      py      :     1.000399
      dz2     :     0.016724  d :     0.062454
      dxz     :     0.011759
      dyz     :     0.005282
      dx2y2   :     0.017751
      dxy     :     0.010938

  1 C s       :     3.081216  s :     3.081216
      pz      :     1.065352  p :     2.888167
      px      :     1.037282
      py      :     0.785533
      dz2     :     0.013275  d :     0.067071
      dxz     :     0.006417
      dyz     :     0.013014
      dx2y2   :     0.017678
      dxy     :     0.016687

  2 C s       :     3.043835  s :     3.043835
      pz      :     1.023748  p :     2.849909
      px      :     0.811846
      py      :     1.014315
      dz2     :     0.011019  d :     0.062909
      dxz     :     0.014656
      dyz     :     0.008328
      dx2y2   :     0.015996
      dxy     :     0.012910

  3 O s       :     3.787556  s :     3.787556
      pz      :     1.366724  p :     4.625641
      px      :     1.500278
      py      :     1.758639
      dz2     :     0.003089  d :     0.015684
      dxz     :     0.002332
      dyz     :     0.004510
      dx2y2   :     0.003544
      dxy     :     0.002208

  4 O s       :     3.792947  s :     3.792947
      pz      :     1.536538  p :     4.614657
      px      :     1.797139
      py      :     1.280979
      dz2     :     0.003382  d :     0.015221
      dxz     :     0.003260
      dyz     :     0.003600
      dx2y2   :     0.002449
      dxy     :     0.002530

  5 O s       :     3.791060  s :     3.791060
      pz      :     1.773193  p :     4.630993
      px      :     1.605316
      py      :     1.252484
      dz2     :     0.002244  d :     0.015619
      dxz     :     0.002996
      dyz     :     0.002639
      dx2y2   :     0.005836
      dxy     :     0.001904

  6 H s       :     0.916297  s :     0.916297

  7 H s       :     0.923905  s :     0.923905

  8 H s       :     0.947550  s :     0.947550

  9 H s       :     0.905816  s :     0.905816

 10 H s       :     0.925651  s :     0.925651

 11 H s       :     0.708342  s :     0.708342

 12 H s       :     0.701220  s :     0.701220

 13 H s       :     0.714092  s :     0.714092


------------------------
MULLIKEN OVERLAP CHARGES
------------------------
B(  0-C ,  1-C ) :   0.4655 B(  0-C ,  2-C ) :  -0.0632 B(  0-C ,  4-O ) :  -0.1211 
B(  0-C ,  5-O ) :   0.6778 B(  0-C ,  6-H ) :   0.6314 B(  0-C ,  7-H ) :   0.6782 
B(  0-C ,  8-H ) :  -0.0744 B(  0-C , 13-H ) :  -0.1052 B(  1-C ,  2-C ) :   0.4874 
B(  1-C ,  3-O ) :  -0.0871 B(  1-C ,  4-O ) :   0.6216 B(  1-C ,  5-O ) :  -0.0994 
B(  1-C ,  7-H ) :  -0.0720 B(  1-C ,  8-H ) :   0.6446 B(  1-C , 10-H ) :  -0.1279 
B(  2-C ,  3-O ) :   0.6928 B(  2-C ,  4-O ) :  -0.1193 B(  2-C ,  8-H ) :  -0.0723 
B(  2-C ,  9-H ) :   0.6399 B(  2-C , 10-H ) :   0.7060 B(  2-C , 11-H ) :  -0.1013 
B(  3-O ,  9-H ) :  -0.0623 B(  3-O , 10-H ) :  -0.0632 B(  3-O , 11-H ) :   0.5301 
B(  4-O ,  8-H ) :  -0.0647 B(  4-O , 12-H ) :   0.5039 B(  5-O ,  6-H ) :  -0.0621 
B(  5-O ,  7-H ) :  -0.0612 B(  5-O , 13-H ) :   0.5125 B(  6-H ,  7-H ) :  -0.0716 
B(  9-H , 10-H ) :  -0.0643 


                     *******************************
                     * LOEWDIN POPULATION ANALYSIS *
                     *******************************

----------------------
LOEWDIN ATOMIC CHARGES
----------------------
   0 C :   -0.140345
   1 C :   -0.098542
   2 C :   -0.130337
   3 O :   -0.333059
   4 O :   -0.327265
   5 O :   -0.340188
   6 H :    0.113559
   7 H :    0.100851
   8 H :    0.096964
   9 H :    0.122149
  10 H :    0.096734
  11 H :    0.279751
  12 H :    0.284540
  13 H :    0.275188

-------------------------------
LOEWDIN REDUCED ORBITAL CHARGES
-------------------------------
  0 C s       :     2.927237  s :     2.927237
      pz      :     1.068119  p :     3.070898
      px      :     0.952745
      py      :     1.050034
      dz2     :     0.039248  d :     0.142210
      dxz     :     0.027000
      dyz     :     0.011036
      dx2y2   :     0.041016
      dxy     :     0.023911

  1 C s       :     2.909078  s :     2.909078
      pz      :     1.093281  p :     3.033518
      px      :     1.074158
      py      :     0.866079
      dz2     :     0.030761  d :     0.155946
      dxz     :     0.017321
      dyz     :     0.027861
      dx2y2   :     0.041979
      dxy     :     0.038025

  2 C s       :     2.920418  s :     2.920418
      pz      :     1.054822  p :     3.066732
      px      :     0.909184
      py      :     1.102726
      dz2     :     0.022538  d :     0.143187
      dxz     :     0.034785
      dyz     :     0.019966
      dx2y2   :     0.036553
      dxy     :     0.029344

  3 O s       :     3.541566  s :     3.541566
      pz      :     1.435982  p :     4.764276
      px      :     1.551256
      py      :     1.777037
      dz2     :     0.005849  d :     0.027217
      dxz     :     0.004857
      dyz     :     0.007546
      dx2y2   :     0.006053
      dxy     :     0.002913

  4 O s       :     3.545456  s :     3.545456
      pz      :     1.596779  p :     4.755365
      px      :     1.801966
      py      :     1.356619
      dz2     :     0.005727  d :     0.026444
      dxz     :     0.004711
      dyz     :     0.006394
      dx2y2   :     0.005214
      dxy     :     0.004398

  5 O s       :     3.543956  s :     3.543956
      pz      :     1.802067  p :     4.769269
      px      :     1.637264
      py      :     1.329939
      dz2     :     0.003340  d :     0.026963
      dxz     :     0.004461
      dyz     :     0.004641
      dx2y2   :     0.010487
      dxy     :     0.004034

  6 H s       :     0.886441  s :     0.886441

  7 H s       :     0.899149  s :     0.899149

  8 H s       :     0.903036  s :     0.903036

  9 H s       :     0.877851  s :     0.877851

 10 H s       :     0.903266  s :     0.903266

 11 H s       :     0.720249  s :     0.720249

 12 H s       :     0.715460  s :     0.715460

 13 H s       :     0.724812  s :     0.724812


---------------------------------
LOEWDIN BOND ORDERS (THRESH 0.050000)
---------------------------------
B(  0-C ,  1-C ) :   1.0543 B(  0-C ,  2-C ) :   0.0630 B(  0-C ,  4-O ) :   0.0804 
B(  0-C ,  5-O ) :   1.2439 B(  0-C ,  6-H ) :   0.9100 B(  0-C ,  7-H ) :   0.9085 
B(  1-C ,  2-C ) :   1.0650 B(  1-C ,  3-O ) :   0.0802 B(  1-C ,  4-O ) :   1.2040 
B(  1-C ,  5-O ) :   0.0834 B(  1-C ,  8-H ) :   0.8782 B(  2-C ,  3-O ) :   1.2540 
B(  2-C ,  4-O ) :   0.0627 B(  2-C ,  9-H ) :   0.9061 B(  2-C , 10-H ) :   0.9048 
B(  3-O , 11-H ) :   0.8918 B(  4-O , 12-H ) :   0.8850 B(  5-O , 13-H ) :   0.8844 


------------------------------------------
LOEWDIN REDUCED ORBITAL POPULATIONS PER MO
-------------------------------------------
THRESHOLD FOR PRINTING IS 0.1%%
                      0         1         2         3         4         5   
                 -18.75617 -18.74907 -18.74277  -9.94030  -9.93138  -9.93127
                   2.00000   2.00000   2.00000   2.00000   2.00000   2.00000
                  --------  --------  --------  --------  --------  --------
 0 C  s               0.0       0.0       0.0       0.0      98.9       0.7
 1 C  s               0.0       0.0       0.0      99.6       0.0       0.0
 2 C  s               0.0       0.0       0.0       0.0       0.7      98.9
 3 O  s               0.0       0.0      99.9       0.0       0.0       0.0
 4 O  s              99.9       0.0       0.0       0.0       0.0       0.0
 4 O  py              0.0       0.0       0.0       0.1       0.0       0.0
 5 O  s               0.0      99.9       0.0       0.0       0.0       0.0

                      6         7         8         9        10        11   
                  -0.94159  -0.92102  -0.91135  -0.68687  -0.60082  -0.54411
                   2.00000   2.00000   2.00000   2.00000   2.00000   2.00000
                  --------  --------  --------  --------  --------  --------
 0 C  s               5.4       3.3       2.1      11.2      16.3       4.0
 0 C  pz              0.9       0.5       0.2       0.0       0.1       1.6
 0 C  px              0.2       2.8       2.7       5.1       0.0       3.1
 0 C  py              1.7       1.0       0.4       0.3       1.0       1.9
 0 C  dxz             0.0       0.1       0.1       0.1       0.0       0.1
 0 C  dxy             0.1       0.2       0.2       0.1       0.0       0.0
 1 C  s               9.3       0.3       1.4      19.3       0.0      10.3
 1 C  pz              0.1       0.0       0.1       1.7       0.3       2.9
 1 C  px              0.0       2.3       0.1       0.0      10.1       0.2
 1 C  py              4.1       0.0       4.9       4.8       0.0       0.4
 1 C  dz2             0.1       0.0       0.1       0.0       0.0       0.0
 1 C  dxz             0.0       0.0       0.0       0.0       0.2       0.0
 1 C  dx2y2           0.2       0.0       0.4       0.2       0.0       0.0
 2 C  s               2.6       6.3       2.1      11.1      15.4       4.9
 2 C  pz              0.8       1.6       0.5       0.0       1.0       5.1
 2 C  px              0.1       3.8       3.0       5.7       0.0       2.5
 2 C  py              0.3       0.0       0.2       0.3       0.1       1.1
 2 C  dxz             0.0       0.3       0.2       0.2       0.0       0.1
 2 C  dx2y2           0.0       0.2       0.1       0.0       0.0       0.0
 3 O  s               5.1      34.4      19.5       2.7       2.2       0.1
 3 O  pz              0.0       0.1       0.1       1.1       6.6       8.3
 3 O  px              0.3       1.5       0.7       1.0       3.5       1.5
 3 O  py              0.0       0.4       0.3       0.2       0.8       0.3
 4 O  s              33.4       1.1      24.8       3.8       0.0       1.3
 4 O  pz              0.9       0.0       0.8       1.2       0.1       1.4
 4 O  px              0.5       0.0       0.3       0.1       0.4       0.2
 4 O  py              0.8       0.0       0.2       4.7       0.2      14.4
 5 O  s              16.3      23.7      19.5       2.1       2.5       0.2
 5 O  pz              0.4       0.5       0.4       0.1       0.3       0.5
 5 O  px              0.8       0.7       0.5       0.8       2.9       0.6
 5 O  py              0.1       0.2       0.1       1.8       8.6       6.1
 6 H  s               0.6       0.4       0.3       2.8       5.8       3.0
 7 H  s               0.7       0.3       0.2       2.6       3.9       2.3
 8 H  s               1.3       0.1       0.1       3.7       0.1       5.6
 9 H  s               0.4       0.8       0.2       2.4       5.5       3.4
10 H  s               0.3       0.7       0.3       2.8       3.6       3.0
11 H  s               1.1       7.1       4.0       1.3       3.8       2.8
12 H  s               7.0       0.2       5.0       2.9       0.1       4.5
13 H  s               3.8       4.8       3.6       1.4       4.0       1.8

                     12        13        14        15        16        17   
                  -0.48680  -0.47317  -0.43871  -0.40887  -0.38082  -0.37226
                   2.00000   2.00000   2.00000   2.00000   2.00000   2.00000
                  --------  --------  --------  --------  --------  --------
 0 C  s               0.4       0.6       1.1       0.4       0.0       0.1
 0 C  pz              3.7      12.0       0.9       9.9       9.3       0.4
 0 C  px              0.7       7.1       6.8       2.6       3.2       0.3
 0 C  py              1.6       0.1       0.8      11.2      12.7      13.7
 0 C  dz2             0.0       0.0       0.1       0.0       0.1       0.0
 0 C  dxz             0.0       0.1       0.3       0.0       0.0       0.0
 0 C  dyz             0.0       0.1       0.0       0.2       0.0       0.0
 0 C  dx2y2           0.0       0.0       0.1       0.1       0.0       0.3
 0 C  dxy             0.0       0.0       0.1       0.0       0.1       0.2
 1 C  s               0.8       0.4       0.4       0.0       0.0       0.3
 1 C  pz              9.5      10.3       1.7       0.3       2.0       0.5
 1 C  px              0.1       0.7       8.2      15.9       1.2       1.4
 1 C  py             14.2       0.5       0.1       1.4       0.8       3.2
 1 C  dz2             0.2       0.0       0.0       0.0       0.0       0.2
 1 C  dxz             0.0       0.0       0.2       0.0       0.0       0.0
 1 C  dx2y2           0.1       0.0       0.1       0.0       0.0       0.6
 1 C  dxy             0.1       0.0       0.0       0.0       0.2       0.1
 2 C  s               0.4       0.1       1.4       0.2       0.1       0.3
 2 C  pz              1.4       1.5       0.4      10.2       6.4       0.4
 2 C  px              2.1       5.3      10.6       0.3       0.2       2.5
 2 C  py              6.7       1.6       1.5       5.9      10.6      19.1
 2 C  dz2             0.0       0.0       0.0       0.0       0.0       0.2
 2 C  dxz             0.0       0.0       0.1       0.0       0.1       0.1
 2 C  dx2y2           0.0       0.1       0.5       0.1       0.0       0.0
 3 O  s               0.7       0.0       1.7       0.1       1.7       0.1
 3 O  pz              1.0       6.4      16.8       0.4       0.1       3.9
 3 O  px              0.2       2.4       1.2       2.6       8.5       1.2
 3 O  py              1.2       2.5       4.6       2.9       3.1       4.8
 4 O  s               0.8       0.2       1.3       0.3       0.1       1.2
 4 O  pz             14.0       0.5       1.6       0.3       0.7       3.1
 4 O  px              1.3       0.6       3.2       7.1       0.1       0.0
 4 O  py             13.5       2.2       0.1       0.7       1.4       6.9
 4 O  dz2             0.1       0.0       0.0       0.0       0.0       0.0
 5 O  s               0.1       0.8       2.0       0.2       1.1       0.2
 5 O  pz              1.0       0.7       0.1       1.2      10.6       2.2
 5 O  px              0.2       1.5       0.3       8.6       3.6       5.4
 5 O  py              0.5      19.6      13.3       0.5       0.4       1.4
 5 O  dx2y2           0.0       0.1       0.0       0.1       0.0       0.1
 6 H  s               0.2       0.0       0.0       5.2       6.7       9.4
 7 H  s               2.0       6.2       1.7       4.0       5.3       0.4
 8 H  s               8.2       3.4       1.1       0.5       0.4       0.3
 9 H  s               0.9       0.1       0.3       1.5       5.7       4.9
10 H  s               2.9       2.0       4.6       4.1       2.9       6.1
11 H  s               0.4       3.2       6.3       0.2       0.0       0.5
12 H  s               8.3       0.3       0.6       0.0       0.0       2.8
13 H  s               0.2       6.3       3.4       0.7       0.2       0.7

                     18        19        20        21        22        23   
                  -0.35438  -0.29836  -0.28969  -0.27164  -0.24525  -0.22410
                   2.00000   2.00000   2.00000   2.00000   2.00000   2.00000
                  --------  --------  --------  --------  --------  --------
 0 C  s               0.0       0.0       0.3       0.0       0.7       0.2
 0 C  pz              4.9       0.7       3.5       1.4       0.3       1.3
 0 C  px              2.9       0.9       1.2       0.9       2.3       0.7
 0 C  py              1.1       0.0       2.7       0.9       0.6       0.0
 0 C  dz2             0.1       0.0       0.1       0.3       0.5       0.4
 0 C  dxz             0.0       0.0       0.0       0.0       0.1       0.1
 0 C  dx2y2           0.1       0.1       0.8       0.1       0.1       0.2
 0 C  dxy             0.0       0.2       0.0       0.1       0.0       0.0
 1 C  s               0.0       0.2       0.9       0.1       0.3       1.7
 1 C  pz             13.3       5.0       0.1       3.5       0.0       3.3
 1 C  px              0.2       0.1       0.1       2.7       0.0       0.0
 1 C  py              3.5       2.4       1.5       0.3       0.3       0.7
 1 C  dz2             0.3       0.1       0.1       0.3       0.0       0.0
 1 C  dyz             0.0       0.4       0.0       0.4       0.2       0.1
 1 C  dx2y2           0.2       0.0       0.0       0.0       0.1       0.0
 1 C  dxy             0.0       0.2       0.0       0.0       0.5       0.1
 2 C  s               0.2       0.4       0.4       0.1       0.1       0.0
 2 C  pz             18.2       1.0       0.3       2.3       0.1       0.1
 2 C  px              0.6       0.4       1.3       5.6       0.2       0.1
 2 C  py              0.0       0.9       2.6       1.1       0.2       1.6
 2 C  dz2             0.1       0.0       0.3       0.3       0.0       0.1
 2 C  dxz             0.1       0.1       0.1       0.0       0.0       0.1
 2 C  dyz             0.0       0.0       0.1       0.4       0.0       0.2
 2 C  dx2y2           0.2       0.0       0.1       0.0       0.0       0.4
 2 C  dxy             0.0       0.0       0.0       0.0       0.0       0.8
 3 O  s               0.2       0.4       4.3       3.8       0.0       0.1
 3 O  pz              0.1       1.4       7.4       1.1       0.0       9.7
 3 O  px              9.7       6.4      16.8      12.9       0.1       0.8
 3 O  py              0.2       0.0       1.5      10.1       0.6      40.2
 4 O  s               2.0       5.7       0.3       0.8       0.0       0.1
 4 O  pz             10.8      16.4       0.8       9.7       9.9       5.0
 4 O  px              0.0      16.4       0.2       0.0      41.3       5.4
 4 O  py              8.6       8.1       1.1       4.4       0.3       0.1
 5 O  s               0.0       2.6       4.6       1.1       0.3       0.0
 5 O  pz              1.8       8.1       2.1       4.9      27.3      13.4
 5 O  px              1.9       7.7      17.1       6.8       7.6       3.3
 5 O  py              0.1       2.6       7.9       1.3       1.1       0.2
 6 H  s               0.4       0.1       6.5       1.4       0.7       0.1
 7 H  s               2.7       0.3       2.6       3.2       2.5       2.3
 8 H  s               5.5       5.8       0.6       6.0       0.7       1.3
 9 H  s               8.1       0.2       3.5       5.7       0.1       0.1
10 H  s               0.8       0.7       1.0       2.6       0.1       5.0
11 H  s               0.6       0.2       2.3       2.1       0.0       0.1
12 H  s               0.0       2.6       0.0       0.6       0.1       0.3
13 H  s               0.1       1.0       2.7       0.7       0.5       0.1

                     24        25        26        27        28        29   
                  -0.20169   0.01074   0.02859   0.05590   0.05977   0.08848
                   2.00000   0.00000   0.00000   0.00000   0.00000   0.00000
                  --------  --------  --------  --------  --------  --------
 0 C  s               0.5       0.3       0.1       2.1       9.5       2.2
 0 C  pz              1.9       0.6       1.0       5.8       0.4       0.3
 0 C  px              4.1       0.4       1.5       0.4       1.7       0.8
 0 C  py              0.7       1.4       0.5       1.4       2.2       2.5
 0 C  dz2             0.2       0.0       0.1       0.3       0.1       0.0
 0 C  dxz             0.2       0.0       0.1       0.1       0.2       0.0
 0 C  dyz             0.0       0.1       0.0       0.2       0.0       0.2
 0 C  dx2y2           0.2       0.0       0.0       0.0       0.0       0.0
 0 C  dxy             0.0       0.4       0.1       0.0       0.2       0.2
 1 C  s               0.0       0.6       1.1       0.2       1.2       3.0
 1 C  pz              0.0       3.2       1.8       1.5       0.4       3.9
 1 C  px             10.2       0.0       0.3       0.0       0.1       0.5
 1 C  py              0.1       2.6       0.5       1.7       0.3       0.3
 1 C  dz2             0.1       0.1       0.0       1.0       0.2       0.2
 1 C  dxz             0.2       0.0       0.3       0.0       0.0       0.2
 1 C  dyz             0.0       0.1       0.0       0.0       0.0       0.0
 1 C  dx2y2           0.0       0.3       0.0       0.0       0.0       0.1
 1 C  dxy             0.5       0.0       0.0       0.0       0.0       0.1
 2 C  s               0.2       0.3       1.3       1.2       5.3       4.8
 2 C  pz              1.4       0.2       0.9       4.6       0.9       4.8
 2 C  px              1.2       0.3       2.1       0.7       3.2       2.7
 2 C  py              1.4       0.2       1.3       0.2       1.3       0.0
 2 C  dz2             0.0       0.2       0.1       0.1       0.0       0.0
 2 C  dxz             0.3       0.0       0.2       0.4       0.8       0.5
 2 C  dx2y2           0.0       0.1       0.0       0.1       0.1       0.3
 2 C  dxy             0.4       0.0       0.0       0.1       0.0       0.0
 3 O  s               0.0       0.8       6.1       1.3       3.6       0.6
 3 O  pz              7.4       0.9       4.8       0.2       0.2       0.3
 3 O  px              6.1       0.1       0.3       0.5       1.2       0.4
 3 O  py             15.2       0.1       1.8       0.2       1.3       0.0
 3 O  dxz             0.0       0.0       0.0       0.0       0.1       0.0
 4 O  s               0.2       6.7       0.4       1.8       0.2       2.3
 4 O  pz              2.7       2.2       0.4       3.6       0.0       2.6
 4 O  px             12.9       2.7       1.1       0.1       0.0       0.1
 4 O  py              0.1       0.4       0.0       0.0       0.0       0.1
 4 O  dyz             0.0       0.2       0.0       0.0       0.0       0.0
 5 O  s               0.1       3.2       2.5       3.0       2.1       1.3
 5 O  pz             14.7       0.0       0.2       0.5       1.3       0.2
 5 O  px             11.6       0.9       0.2       0.2       0.4       0.1
 5 O  py              0.7       2.9       1.4       1.7       0.3       0.2
 6 H  s               0.5       1.8       1.4       2.3      16.9       7.4
 7 H  s               1.5       0.6       2.5      15.0       7.0       0.7
 8 H  s               0.5       8.0       5.3       7.0       2.5      17.7
 9 H  s               0.0       0.4       0.1       8.0       3.8      14.2
10 H  s               1.7       1.9       5.2       3.1       9.2       8.5
11 H  s               0.1       5.3      37.5       2.9      11.9       0.0
12 H  s               0.3      33.2       2.7      12.9       0.7      12.8
13 H  s               0.2      16.1      12.4      13.4       8.4       2.9

                     30        31        32        33        34        35   
                   0.09499   0.11783   0.12536   0.16116   0.18206   0.18769
                   0.00000   0.00000   0.00000   0.00000   0.00000   0.00000
                  --------  --------  --------  --------  --------  --------
 0 C  s               0.3       0.1       3.8       5.1       0.4       0.2
 0 C  pz              1.6       1.5       6.6       5.8       0.8       5.3
 0 C  px              1.4       2.9       2.3       3.3      10.2       6.1
 0 C  py              8.8       7.9       0.2       1.7       0.8       1.5
 0 C  dz2             0.0       0.1       0.2       0.3       0.3       0.2
 0 C  dxz             0.4       0.3       0.6       0.1       2.1       0.3
 0 C  dyz             0.0       0.3       0.0       0.2       0.0       1.3
 0 C  dx2y2           0.4       0.4       0.0       0.3       0.5       0.2
 0 C  dxy             0.7       0.8       0.2       1.3       0.0       0.6
 1 C  s               4.2       0.1       2.0       1.0       1.4       0.7
 1 C  pz              1.8       0.2       1.0       1.8       0.2       0.6
 1 C  px              0.1       0.2       1.6       0.1      16.3      13.4
 1 C  py              4.6       0.2       1.1       9.9      13.8       6.0
 1 C  dz2             0.1       0.3       0.0       0.0       1.2       1.0
 1 C  dxz             0.0       0.1       1.0       0.2       2.9       1.5
 1 C  dyz             0.0       0.1       0.0       0.0       0.2       0.6
 1 C  dx2y2           2.0       0.0       0.2       2.5       1.9       0.0
 1 C  dxy             0.2       0.6       0.1       0.1       0.0       1.2
 2 C  s               1.0       0.7       5.5       0.0       1.4       0.4
 2 C  pz              0.7       6.7       0.3       3.8       5.2       1.1
 2 C  px              2.3       2.2       0.2       0.8       0.4      20.8
 2 C  py              5.7      10.9       0.3       1.7       5.2       0.8
 2 C  dz2             0.0       0.4       0.0       0.1       0.1       0.2
 2 C  dxz             0.2       0.7       0.0       0.1       0.2       2.8
 2 C  dyz             0.3       0.7       0.0       0.0       1.4       0.5
 2 C  dx2y2           0.7       0.2       0.0       1.4       0.3       0.4
 2 C  dxy             0.0       0.0       0.0       0.1       0.7       0.3
 3 O  s               0.2       0.3       0.8       0.0       0.2       0.7
 3 O  pz              0.9       0.9       0.7       0.5       1.0       5.4
 3 O  px              0.6       2.1       0.1       1.2       0.5       2.9
 3 O  py              0.4       0.1       0.5       0.6       0.0       0.2
 3 O  dz2             0.0       0.0       0.0       0.1       0.0       0.0
 3 O  dxz             0.1       0.0       0.1       0.0       0.1       0.3
 3 O  dyz             0.0       0.0       0.0       0.0       0.1       0.1
 3 O  dx2y2           0.0       0.1       0.0       0.0       0.0       0.1
 3 O  dxy             0.1       0.2       0.0       0.0       0.0       0.0
 4 O  s               0.8       0.1       0.9       0.3       2.0       0.2
 4 O  pz              0.0       0.0       1.3       0.7       0.2       0.1
 4 O  px              0.0       0.2       0.3       0.4       0.5       1.0
 4 O  py              5.7       0.2       0.3       4.3       8.0       2.3
 4 O  dz2             0.2       0.0       0.0       0.0       0.1       0.0
 4 O  dxz             0.0       0.0       0.0       0.0       0.1       0.0
 4 O  dx2y2           0.1       0.0       0.1       0.1       0.5       0.0
 4 O  dxy             0.0       0.0       0.0       0.0       0.0       0.3
 5 O  s               0.5       0.2       0.4       1.1       0.3       0.3
 5 O  pz              0.8       0.3       0.4       0.1       0.2       0.2
 5 O  px              1.4       1.4       0.2       3.4       0.0       0.0
 5 O  py              0.3       2.2       4.4       3.7       1.0       0.1
 5 O  dxz             0.1       0.1       0.1       0.0       0.0       0.0
 5 O  dyz             0.0       0.0       0.0       0.0       0.1       0.1
 5 O  dxy             0.0       0.0       0.0       0.4       0.0       0.0
 6 H  s              15.0      10.2       0.1      13.2       3.1       0.0
 7 H  s               6.6       2.8      24.6       1.7       1.1       5.0
 8 H  s               7.5       0.7       4.9      11.8       0.6       1.1
 9 H  s              10.9      18.1       5.1       1.2       3.7       5.4
10 H  s               8.5      16.5       4.7       4.4       5.1       0.1
11 H  s               0.9       0.9       6.4       2.6       1.6       4.1
12 H  s               0.5       0.6       3.6       4.4       1.5       0.9
13 H  s               0.1       3.3      13.0       1.7       0.3       0.5

                     36        37        38        39        40        41   
                   0.22367   0.25939   0.43353   0.45225   0.46448   0.46805
                   0.00000   0.00000   0.00000   0.00000   0.00000   0.00000
                  --------  --------  --------  --------  --------  --------
 0 C  s               0.2       7.5       5.2       4.2       6.6       0.2
 0 C  pz              0.2       6.6      15.3       5.2       4.6       0.7
 0 C  px             16.3       2.1       0.5       0.1       1.5       1.1
 0 C  py              0.4       9.6       6.0       1.0      10.8      12.4
 0 C  dz2             0.5       0.6       1.9       0.8       0.1       2.1
 0 C  dxz             1.1       0.1       0.2       0.0       0.3       0.0
 0 C  dyz             0.1       2.9       1.3       0.1       1.1       0.7
 0 C  dx2y2           1.1       1.2       0.0       0.1       0.3       0.2
 0 C  dxy             1.4       0.0       0.1       0.0       0.3       0.2
 1 C  s              16.2       3.5       4.9       0.7       7.9       0.2
 1 C  pz             12.0       3.5       1.7       2.9       2.7       5.2
 1 C  px              0.3       4.0       3.0       1.2       1.5       8.7
 1 C  py              2.8       3.9      16.6       0.7      13.5       9.4
 1 C  dz2             0.8       0.6       0.0       0.6       1.6       0.1
 1 C  dxz             0.1       0.1       0.7       0.7       0.3       0.9
 1 C  dyz             1.0       0.0       0.2       1.6       0.9       0.6
 1 C  dx2y2           0.9       0.0       0.1       0.0       0.0       0.6
 1 C  dxy             0.1       0.1       0.0       0.4       0.0       0.3
 2 C  s               7.1       3.2       2.2       7.0       0.7       2.9
 2 C  pz              8.4       3.6       3.6      26.7       1.5       3.9
 2 C  px              3.8      10.3       3.3       0.1       0.2       6.8
 2 C  py              3.1       0.4       0.3       5.6       3.5       1.8
 2 C  dz2             0.1       0.2       0.5       1.4       1.2       1.2
 2 C  dxz             0.5       1.1       0.0       0.0       0.4       0.3
 2 C  dyz             0.9       0.1       0.0       0.6       0.6       2.8
 2 C  dx2y2           1.5       1.1       0.1       1.5       0.5       0.0
 2 C  dxy             1.9       0.3       0.1       0.5       0.0       0.0
 3 O  s               0.7       2.1       0.3       0.2       0.3       0.9
 3 O  pz              0.1       3.9       1.3       1.5       0.1       0.9
 3 O  px              3.4       3.6       1.1       0.3       0.1       0.9
 3 O  py              0.9       0.0       0.2       0.1       0.2       0.3
 3 O  dz2             0.3       0.0       0.2       0.0       0.0       0.5
 3 O  dxz             0.0       0.4       0.2       0.3       0.1       0.0
 3 O  dyz             0.1       0.0       0.4       0.4       0.0       0.4
 3 O  dx2y2           0.2       0.2       0.3       0.3       0.0       0.4
 4 O  s               0.1       0.5       0.6       0.9       0.3       0.2
 4 O  pz              0.5       0.4       0.3       1.1       1.1       1.1
 4 O  px              0.0       0.1       0.1       0.2       0.2       1.2
 4 O  py              0.2       3.3       2.9       0.3       3.3       1.0
 4 O  dz2             0.0       0.1       0.6       0.1       0.7       0.2
 4 O  dxz             0.0       0.0       0.0       0.3       0.0       0.4
 4 O  dyz             0.3       0.0       0.0       0.6       0.4       0.0
 4 O  dx2y2           0.2       0.2       0.5       0.0       1.0       0.1
 4 O  dxy             0.0       0.1       0.0       0.2       0.0       0.1
 5 O  s               0.7       2.0       0.2       0.1       0.1       0.7
 5 O  pz              1.8       0.8       0.9       0.6       0.1       2.0
 5 O  px              0.5       5.6       0.4       0.2       0.4       0.2
 5 O  py              1.6       3.2       1.5       0.8       1.7       0.2
 5 O  dxz             0.0       0.4       0.2       0.1       0.1       0.1
 5 O  dyz             0.1       0.0       0.6       0.2       0.4       0.0
 5 O  dx2y2           0.2       0.2       0.3       0.2       0.2       0.1
 5 O  dxy             0.0       0.4       0.1       0.1       0.5       0.0
 6 H  s               0.1       0.1       0.0       0.4       3.8       3.8
 7 H  s               0.9       0.9      10.1       3.1       0.0       2.5
 8 H  s               0.9       1.5       1.2       4.7       8.1       1.0
 9 H  s               1.2       0.1       0.1       0.3       4.7       6.7
10 H  s               1.0       0.3       1.3       6.7       3.8       2.4
11 H  s               0.0       0.9       3.4       3.1       0.2       6.8
12 H  s               0.5       1.1       0.0       7.1       3.2       1.5
13 H  s               0.6       0.9       2.8       2.0       2.2       0.3

                     42        43        44        45        46        47   
                   0.47715   0.49651   0.54212   0.55549   0.57246   0.59539
                   0.00000   0.00000   0.00000   0.00000   0.00000   0.00000
                  --------  --------  --------  --------  --------  --------
 0 C  s               2.4       1.3       0.1       3.3      10.4       5.4
 0 C  pz              1.1       0.6       1.5       1.7       1.1      11.3
 0 C  px             31.3       7.2      28.3       0.3       4.9       0.1
 0 C  py              1.6       2.0       0.2       0.7       0.4       0.4
 0 C  dz2             0.1       1.0       0.2       1.5       0.0       0.2
 0 C  dxz             0.3       0.1       0.0       0.4       0.0       0.1
 0 C  dyz             0.1       0.0       0.0       0.0       0.0       0.0
 0 C  dx2y2           0.2       3.1       0.7       0.1       0.3       0.1
 0 C  dxy             0.1       0.0       0.1       0.0       0.0       0.2
 1 C  s               2.1       1.5       0.0       2.5       2.0       1.1
 1 C  pz              1.2       0.0       0.3       0.2       1.7       1.7
 1 C  px              5.7       1.7      27.7       0.2       7.0       0.4
 1 C  py              2.6       0.2       3.2       1.9      11.4       2.3
 1 C  dz2             0.6       0.1       0.0       0.6       0.0       0.1
 1 C  dxz             1.1       0.6       0.1       0.3       0.0       0.2
 1 C  dyz             0.6       0.1       0.0       0.3       0.0       0.0
 1 C  dx2y2           0.3       0.1       0.0       0.1       0.0       0.0
 1 C  dxy             0.0       1.4       0.0       0.0       0.1       0.4
 2 C  s               5.9       1.6       2.7       0.4       9.2       4.2
 2 C  pz              5.4       0.6       1.9       0.0       3.7       3.1
 2 C  px             14.0      27.3       1.5       9.1      10.8       0.5
 2 C  py              1.0       4.0       0.9       1.5       3.6       5.5
 2 C  dz2             0.6       0.0       0.1       0.4       0.6       0.5
 2 C  dxz             0.0       0.4       0.0       0.1       0.2       0.3
 2 C  dyz             0.3       0.1       0.1       0.8       1.0       0.2
 2 C  dx2y2           0.2       0.5       0.1       0.0       0.1       0.4
 2 C  dxy             0.0       0.2       0.2       1.0       0.3       0.2
 3 O  s               0.2       0.5       1.0       0.2       0.3       0.9
 3 O  pz              0.6       1.4       0.0       2.1       0.2       1.8
 3 O  px              1.3       1.0       0.2       2.0       0.1       2.3
 3 O  py              0.4       0.9       2.7       0.7       0.1       3.0
 3 O  dz2             0.0       0.1       0.0       0.5       0.2       0.5
 3 O  dxz             1.1       0.2       0.1       0.0       0.0       0.0
 3 O  dyz             0.1       0.0       0.0       1.3       0.2       0.9
 3 O  dx2y2           0.3       0.3       0.0       0.0       0.0       0.0
 4 O  s               0.0       0.2       0.1       0.4       1.0       0.1
 4 O  pz              0.2       0.6       0.4       2.8       0.2       0.9
 4 O  px              0.9       0.9       3.3       0.6       0.9       2.0
 4 O  py              0.0       0.0       0.0       0.5       1.7       0.0
 4 O  dz2             0.0       0.0       0.0       0.4       0.0       0.0
 4 O  dxz             0.1       0.1       0.1       0.7       0.1       0.0
 4 O  dyz             0.2       0.1       0.1       0.8       0.0       0.0
 4 O  dx2y2           0.1       0.2       0.1       0.0       0.2       0.0
 4 O  dxy             0.0       0.2       0.0       0.1       0.0       0.0
 5 O  s               0.0       1.6       0.0       0.1       1.3       1.3
 5 O  pz              0.2       0.1       0.5       0.0       1.6       2.5
 5 O  px              1.4       0.6       1.0       0.1       1.7       2.4
 5 O  py              0.7       1.5       0.7       0.9       0.0       2.4
 5 O  dz2             0.0       0.1       0.4       0.4       0.0       0.1
 5 O  dxz             0.2       0.0       0.2       0.0       0.1       0.0
 5 O  dyz             0.1       0.1       0.0       0.1       0.0       0.3
 5 O  dx2y2           0.2       1.1       0.5       0.3       0.1       0.6
 5 O  dxy             0.5       0.0       0.2       0.0       0.1       0.1
 6 H  s               0.3      12.9       0.8       1.5       1.4       0.1
 7 H  s               0.4       0.5       3.7       4.0       0.3       0.2
 8 H  s               2.9       0.2       0.8       4.4       6.8       3.2
 9 H  s               3.7       0.8       0.8       1.4       7.2       1.0
10 H  s               0.2       5.2       0.6       6.7       1.3       1.1
11 H  s               1.6       0.7       0.1      16.0       2.2      18.0
12 H  s               2.5       2.4       2.6      17.4       1.2       0.2
13 H  s               0.4       9.3       8.7       6.0       0.4      15.0

                     48        49        50        51        52        53   
                   0.60556   0.62593   0.63858   0.65215   0.66008   0.66969
                   0.00000   0.00000   0.00000   0.00000   0.00000   0.00000
                  --------  --------  --------  --------  --------  --------
 0 C  s              10.6       3.8       2.0       2.3      11.3       3.1
 0 C  pz              0.1      11.6       5.3       2.6       4.4       1.7
 0 C  px              0.1       0.7       1.4       0.1       1.1       0.0
 0 C  py              3.7       0.7      10.3      16.4       2.2       2.1
 0 C  dz2             0.0       0.5       0.0       0.0       0.0       1.2
 0 C  dxz             0.2       0.0       0.0       0.3       0.4       0.0
 0 C  dx2y2           0.0       0.0       0.7       0.0       0.3       0.1
 0 C  dxy             0.3       0.1       0.6       0.0       0.0       0.0
 1 C  s               0.9       2.4      16.6       3.9       0.1       1.5
 1 C  pz              3.7       5.0       1.4       2.4       0.9      13.2
 1 C  px              6.6       4.7       1.3       2.7       2.6       0.1
 1 C  py             11.3       0.5       3.6       2.1       1.5       0.8
 1 C  dz2             0.0       0.4       0.0       0.2       0.6       0.1
 1 C  dyz             0.5       0.1       0.0       0.0       0.0       0.0
 1 C  dx2y2           0.0       0.2       0.0       0.3       0.0       0.0
 1 C  dxy             0.1       0.0       0.0       0.0       0.0       0.1
 2 C  s              10.3       1.4       2.0       3.4      10.7       2.7
 2 C  pz             12.6       0.4       1.0       4.3      13.6       5.6
 2 C  px              0.0       0.1       0.1       1.5       0.6       2.1
 2 C  py              0.6      13.2       0.3      13.7       0.2      25.9
 2 C  dz2             0.1       0.3       0.2       0.4       0.0       0.0
 2 C  dxz             0.2       0.0       0.0       0.2       0.0       0.0
 2 C  dyz             0.3       0.0       0.1       0.0       0.3       0.0
 2 C  dx2y2           0.2       0.1       0.3       0.0       0.7       0.1
 2 C  dxy             0.6       0.0       0.0       0.1       0.0       0.0
 3 O  s               0.7       0.1       1.6       0.1       0.1       1.1
 3 O  pz              0.1       0.5       0.3       3.2       0.1       1.1
 3 O  px              0.1       2.0       1.2       0.9       0.9       0.6
 3 O  py              2.3       0.9       0.1       0.4       0.8       1.6
 3 O  dz2             0.0       0.0       0.1       0.2       0.0       0.0
 3 O  dxz             0.0       0.1       0.0       0.0       0.0       0.0
 3 O  dyz             0.1       0.0       0.0       0.4       0.0       0.0
 3 O  dxy             0.2       0.0       0.0       0.0       0.0       0.0
 4 O  s               0.1       0.3       2.6       0.1       0.6       0.2
 4 O  pz              0.6       6.8       0.0       1.5       2.0       0.8
 4 O  px              0.1       1.6       0.0       0.8       0.1       2.1
 4 O  py              0.2       0.7       0.1       0.3       0.1       0.0
 4 O  dz2             0.0       0.6       0.0       0.0       0.1       0.0
 4 O  dxz             0.1       0.4       0.0       0.1       0.1       0.0
 4 O  dyz             0.1       0.3       0.0       0.1       0.1       0.0
 4 O  dxy             0.1       0.1       0.0       0.1       0.1       0.1
 5 O  s               0.1       0.2       0.5       1.6       0.1       0.6
 5 O  pz              0.1       0.1       0.1       0.4       0.9       1.8
 5 O  px              2.6       0.5       0.1       0.4       0.7       0.0
 5 O  py              1.8       0.1       2.2       0.3       0.0       0.2
 5 O  dz2             0.4       0.0       0.1       0.2       0.1       0.0
 5 O  dx2y2           0.5       0.0       0.1       0.2       0.0       0.1
 6 H  s               2.5       1.3      21.4       1.3       4.1       0.8
 7 H  s               1.5       5.7       5.4       4.0       4.3      11.2
 8 H  s               2.2       9.9       0.9       0.3       3.1       4.0
 9 H  s               1.8       0.0       4.4       8.6      15.5       2.4
10 H  s               3.9       1.7       6.6       2.1       7.2       8.4
11 H  s               1.9       1.5       1.8       6.8       0.2       0.1
12 H  s               1.7      18.0       0.3       4.4       6.5       0.1
13 H  s              10.8       0.3       2.6       4.1       0.5       1.9

                     54        55        56        57        58        59   
                   0.67540   0.72027   0.84734   0.90371   0.93967   0.95307
                   0.00000   0.00000   0.00000   0.00000   0.00000   0.00000
                  --------  --------  --------  --------  --------  --------
 0 C  s               0.9       0.1       1.4      16.5       0.1       0.2
 0 C  pz             20.9       2.7       0.0       0.1       0.2       0.2
 0 C  px              0.4       0.6       0.2       4.6       1.0       0.4
 0 C  py              8.0       7.0       2.8       3.7       1.1       0.0
 0 C  dz2             0.0       0.9       0.1       0.0       0.5       0.2
 0 C  dxz             0.1       1.4       0.4       0.4       0.4       0.2
 0 C  dyz             0.1       0.1       0.0       0.9       0.5       0.0
 0 C  dx2y2           0.1       0.7       0.0       0.0       0.0       0.1
 0 C  dxy             0.0       0.3       0.1       0.0       0.5       0.4
 1 C  s               0.2       2.3      35.7       1.1       4.2       2.8
 1 C  pz             23.9      13.0       1.2       0.2       0.1       3.1
 1 C  px              0.9       2.5       0.4       0.2       0.8       0.4
 1 C  py              0.1       3.0       1.4       1.2       0.0       2.8
 1 C  dz2             0.0       1.4       0.6       0.0       0.5       0.3
 1 C  dxz             0.0       0.1       0.2       0.6       0.0       0.5
 1 C  dyz             0.0       0.1       0.0       0.0       1.2       0.5
 1 C  dx2y2           0.0       0.1       0.3       0.0       0.8       0.0
 1 C  dxy             0.0       0.1       0.2       0.1       0.0       0.1
 2 C  s               3.6       0.1       7.9      13.3       3.6       1.5
 2 C  pz              2.2       0.6       2.3       2.0       0.9       0.0
 2 C  px              0.4       0.4       0.3       7.0       0.3       0.5
 2 C  py              4.8       1.6       0.2       0.2       0.3       0.5
 2 C  dz2             0.1       0.0       0.1       0.1       0.8       0.0
 2 C  dxz             0.1       0.1       0.2       0.7       0.1       0.0
 2 C  dyz             0.1       1.8       0.0       0.2       0.9       0.0
 2 C  dx2y2           0.0       0.0       0.0       0.0       0.2       0.0
 2 C  dxy             0.0       1.0       0.0       0.3       0.1       0.0
 3 O  s               0.0       0.1       3.6       0.1       0.8       0.0
 3 O  pz              2.3       1.4       2.2       0.0       0.2       0.9
 3 O  px              0.4       3.8       0.3       2.9      14.3       0.0
 3 O  py              0.2       7.8       0.0       0.1       0.1       4.6
 3 O  dz2             0.0       0.0       0.4       0.0       0.0       0.1
 3 O  dxz             0.0       0.0       0.1       0.0       0.1       0.0
 3 O  dx2y2           0.0       0.0       0.0       0.0       0.1       0.0
 3 O  dxy             0.0       0.1       0.1       0.0       0.0       0.0
 4 O  s               0.3       0.3       6.9       0.7       0.0      12.4
 4 O  pz              1.4       2.3       1.8       0.2      16.1       0.4
 4 O  px              1.7       2.6       0.0      12.2       7.5       8.7
 4 O  py              0.0       1.3       0.2       5.5       2.2      34.3
 4 O  dz2             0.0       0.0       0.2       0.0       0.0       0.2
 4 O  dxz             0.0       0.1       0.1       0.3       0.3       0.0
[...]
 0 C  pz              0.0       0.2       0.0       0.1       0.1       0.0
 0 C  px              0.0       0.1       0.0       0.1       0.0       0.1
 0 C  py              0.1       0.1       0.0       0.1       0.0       0.0
 0 C  dz2             0.0       3.8       0.0       0.0       1.7       0.2
 0 C  dxz             0.1       0.2       0.1       1.4       0.7       1.5
 0 C  dyz             0.0       1.4       0.1       0.0       1.9       0.0
 0 C  dx2y2           0.4       0.8       0.0       0.1       7.7       0.7
 0 C  dxy             0.7       0.0       0.1       0.3       0.1       0.0
 1 C  pz              0.4       0.1       0.1       0.0       0.0       0.0
 1 C  px              0.1       0.7       0.4       0.1       0.1       0.1
 1 C  py              0.0       0.1       0.2       0.0       0.1       0.0
 1 C  dz2             0.2       0.2       0.8       0.0       0.2       0.5
 1 C  dxz             0.2       0.7       1.0       0.6       1.8       0.8
 1 C  dyz             5.2       0.2       2.8       0.1       1.5       0.1
 1 C  dx2y2           0.3       1.0       0.1       0.0       0.1       1.2
 1 C  dxy             0.4       3.5       0.3       0.9       8.7       3.5
 2 C  s               0.0       0.1       0.0       0.1       0.1       0.3
 2 C  px              0.1       0.0       0.1       0.0       0.1       0.0
 2 C  py              0.3       0.1       0.2       0.0       0.1       0.0
 2 C  dz2             0.4       0.1       2.8       1.0       0.3       1.4
 2 C  dxz             1.6       0.1       2.0       0.1       0.4       1.3
 2 C  dyz             1.6       0.6       0.6       0.0       0.0       0.3
 2 C  dx2y2           0.7       0.2       1.9       0.3       0.0       2.2
 2 C  dxy             2.0       0.0       5.6       0.1       0.6       0.1
 3 O  s               0.1       0.0       0.6       0.2       0.1       1.3
 3 O  pz              0.4       0.0       0.6       0.0       0.1       0.2
 3 O  px              0.0       0.0       0.3       0.0       0.0       0.1
 3 O  py              0.6       0.0       0.1       0.2       0.1       0.3
 3 O  dz2             0.1       0.0       3.0       7.5       2.5      24.5
 3 O  dxz             1.2       0.4       5.1       3.7       0.1       5.1
 3 O  dyz             2.4       2.5      28.1       3.6       6.2      17.5
 3 O  dx2y2           1.8       0.0       7.2       0.4       0.2       0.8
 3 O  dxy            32.3       0.0      16.4       1.9       0.0       2.5
 4 O  s               0.0       0.2       0.2       0.2       0.0       0.1
 4 O  pz              1.2       0.0       0.0       0.2       0.0       0.0
 4 O  px              0.1       0.6       0.2       0.1       0.2       0.3
 4 O  dz2             4.4       1.8       0.5       1.3       0.5       0.9
 4 O  dxz            15.1       2.7       1.9       3.4       0.1       2.1
 4 O  dyz            15.3       7.7      11.9       0.7       4.3       1.3
 4 O  dx2y2           1.6       0.8       1.8       2.4       0.0       0.1
 4 O  dxy             0.3      24.8       0.0       5.4      18.5       7.1
 5 O  s               0.0       0.2       0.0       1.4       0.2       0.3
 5 O  pz              0.0       0.2       0.0       0.1       0.3       0.0
 5 O  px              0.0       0.3       0.0       0.1       0.1       0.1
 5 O  py              0.2       0.1       0.0       0.4       0.0       0.3
 5 O  dz2             0.0      19.5       0.1      17.5       3.0       7.2
 5 O  dxz             2.3       4.5       0.1       3.5       3.2       0.2
 5 O  dyz             1.6      11.8       0.1       5.0       3.3       4.8
 5 O  dx2y2           0.2       5.9       0.4      26.2      28.8       3.4
 5 O  dxy             2.4       0.8       0.0       3.1       0.0       0.1
11 H  s               0.5       0.1       0.8       0.9       0.8       3.6
12 H  s               0.5       0.4       0.9       0.7       0.0       0.3
13 H  s               0.1       0.2       0.0       4.3       0.7       1.3

                     96        97        98        99   
                   2.94920   3.26851   3.28268   3.28936
                   0.00000   0.00000   0.00000   0.00000
                  --------  --------  --------  --------
 0 C  s               0.0       1.5       0.5       0.7
 0 C  pz              0.0       0.4       0.1       0.1
 0 C  px              0.1       1.3       0.8       0.3
 0 C  py              0.0       0.6       0.1       0.2
 0 C  dz2             0.4       0.2       0.2       0.2
 0 C  dxz             0.2       1.8       1.1       0.8
 0 C  dyz             0.1       1.3       0.0       0.2
 0 C  dx2y2           0.0       0.3       0.3       0.4
 0 C  dxy             0.0       2.3       2.3       0.8
 1 C  s               0.1       0.4       1.2       0.1
 1 C  px              0.5       0.1       0.1       0.0
 1 C  py              0.1       0.9       2.9       0.1
 1 C  dz2             0.4       0.6       1.3       0.6
 1 C  dxz             1.3       0.2       0.0       0.0
 1 C  dyz             1.1       0.1       0.0       0.3
 1 C  dx2y2           0.0       1.5       8.4       0.0
 1 C  dxy             1.2       0.2       0.7       0.0
 2 C  s               0.0       0.3       0.2       2.4
 2 C  pz              0.0       0.1       0.1       0.7
 2 C  px              0.0       1.0       0.0       2.3
 2 C  py              0.1       0.0       0.1       0.0
 2 C  dz2             0.3       0.0       0.0       0.3
 2 C  dxz             0.1       1.7       0.0       4.2
 2 C  dyz             0.0       0.0       0.3       0.0
 2 C  dx2y2           0.2       0.8       0.0       4.5
 2 C  dxy             1.8       0.1       0.1       0.0
 3 O  s               0.5       0.7       0.2       3.6
 3 O  pz              0.2       0.4       0.0       1.5
 3 O  px              0.1       0.5       0.0       2.1
 3 O  py              0.0       0.0       0.0       0.1
 3 O  dz2             1.5       0.8       0.3       2.5
 3 O  dxz             0.1       7.2       0.1      27.9
 3 O  dyz            10.0       0.2       0.0       0.3
 3 O  dx2y2           0.4       7.1       0.3      24.3
 3 O  dxy             2.7       0.0       0.2       0.0
 4 O  s               2.5       0.8       3.4       0.2
 4 O  pz              0.5       0.1       0.2       0.0
 4 O  py              0.0       1.0       3.5       0.1
 4 O  dz2             4.5       4.8      14.1       1.4
 4 O  dxz            14.9       0.3       0.0       0.0
 4 O  dyz            20.9       0.2       1.0       0.0
 4 O  dx2y2           7.3       8.5      34.5       0.9
 4 O  dxy            10.8       1.5       2.1       0.0
 5 O  s               0.4       2.5       0.9       0.7
 5 O  pz              0.0       0.2       0.2       0.1
 5 O  px              0.1       1.2       0.4       0.3
 5 O  py              0.2       1.4       0.4       0.4
 5 O  dz2             2.6       1.9       0.1       0.5
 5 O  dxz             0.3       9.8       6.2       3.6
 5 O  dyz             1.8       5.9       2.7       2.0
 5 O  dx2y2           3.0       7.6       0.8       1.3
 5 O  dxy             0.0      16.6       7.1       5.6
11 H  s               0.9       0.2       0.0       0.5
12 H  s               4.7       0.3       0.5       0.0
13 H  s               0.8       0.6       0.1       0.1


                      *****************************
                      * MAYER POPULATION ANALYSIS *
                      *****************************

  NA   - Mulliken gross atomic population
  ZA   - Total nuclear charge
  QA   - Mulliken gross atomic charge
  VA   - Mayer's total valence
  BVA  - Mayer's bonded valence
  FA   - Mayer's free valence

  ATOM       NA         ZA         QA         VA         BVA        FA
  0 C      5.9746     6.0000     0.0254     3.9433     3.9433    -0.0000
  1 C      6.0365     6.0000    -0.0365     4.0851     4.0851     0.0000
  2 C      5.9567     6.0000     0.0433     3.9432     3.9432    -0.0000
  3 O      8.4289     8.0000    -0.4289     2.0032     2.0032    -0.0000
  4 O      8.4228     8.0000    -0.4228     1.9977     1.9977    -0.0000
  5 O      8.4377     8.0000    -0.4377     2.0013     2.0013     0.0000
  6 H      0.9163     1.0000     0.0837     0.9554     0.9554     0.0000
  7 H      0.9239     1.0000     0.0761     0.9590     0.9590    -0.0000
  8 H      0.9476     1.0000     0.0524     0.9691     0.9691    -0.0000
  9 H      0.9058     1.0000     0.0942     0.9708     0.9708    -0.0000
 10 H      0.9257     1.0000     0.0743     0.9525     0.9525    -0.0000
 11 H      0.7083     1.0000     0.2917     0.8862     0.8862    -0.0000
 12 H      0.7012     1.0000     0.2988     0.8928     0.8928    -0.0000
 13 H      0.7141     1.0000     0.2859     0.9114     0.9114    -0.0000

  Mayer bond orders larger than 0.100000
B(  0-C ,  1-C ) :   1.0071 B(  0-C ,  5-O ) :   1.0759 B(  0-C ,  6-H ) :   0.9160 
B(  0-C ,  7-H ) :   0.9188 B(  1-C ,  2-C ) :   1.0197 B(  1-C ,  4-O ) :   1.0689 
B(  1-C ,  8-H ) :   0.9016 B(  2-C ,  3-O ) :   1.0808 B(  2-C ,  9-H ) :   0.9047 
B(  2-C , 10-H ) :   0.9269 B(  3-O , 11-H ) :   0.8552 B(  4-O , 12-H ) :   0.8450 
B(  5-O , 13-H ) :   0.8441 

-------
TIMINGS
-------

Total SCF time: 0 days 0 hours 0 min 4 sec 

Total time                  ....       4.642 sec
Sum of individual times     ....       4.223 sec  ( 91.0%)

SCF preparation             ....       0.173 sec  (  3.7%)
Fock matrix formation       ....       3.421 sec  ( 73.7%)
  Startup                   ....       0.051 sec  (  1.5% of F)
  Split-RI-J                ....       0.960 sec  ( 28.1% of F)
  XC integration            ....       1.950 sec  ( 57.0% of F)
    Basis function eval.    ....       0.682 sec  ( 35.0% of XC)
    Density eval.           ....       0.214 sec  ( 11.0% of XC)
    XC-Functional eval.     ....       0.214 sec  ( 11.0% of XC)
    XC-Potential eval.      ....       0.379 sec  ( 19.4% of XC)
Diagonalization             ....       0.000 sec  (  0.0%)
Density matrix formation    ....       0.158 sec  (  3.4%)
Total Energy calculation    ....       0.031 sec  (  0.7%)
Population analysis         ....       0.073 sec  (  1.6%)
Orbital Transformation      ....       0.050 sec  (  1.1%)
Orbital Orthonormalization  ....       0.000 sec  (  0.0%)
DIIS solution               ....       0.248 sec  (  5.3%)
  MO trafo                  ....       0.000 sec  (  0.0 % of DIIS)
  Orb grad                  ....       0.000 sec  (  0.0 % of DIIS)
  Energy W gradient         ....       0.000 sec  (  0.0 % of DIIS)
  DIIS error                ....       0.001 sec  (  0.6 % of DIIS)
  DIIS work                 ....       0.202 sec  ( 81.4 % of DIIS)
  Form Q                    ....       0.000 sec  (  0.0 % of DIIS)
  Form QpQm                 ....       0.000 sec  (  0.0 % of DIIS)
  Exp/Cayley                ....       0.000 sec  (  0.0 % of DIIS)
  Orb update                ....       0.000 sec  (  0.0 % of DIIS)
  Wake-sleep                ....       0.014 sec  (  5.5 % of DIIS)
SOSCF solution              ....       0.068 sec  (  1.5%)
  MO trafo                  ....       0.039 sec  ( 56.8 % of SOSCF)
  Orb grad                  ....       0.001 sec  (  2.0 % of SOSCF)
  Rot update                ....       0.010 sec  ( 15.1 % of SOSCF)
  Step                      ....       0.018 sec  ( 26.0 % of SOSCF)
Finished LeanSCF after   4.7 sec

Maximum memory used throughout the entire LEANSCF-calculation: 9.3 MB


-------------------------------------------------------------------------------
                          DFT DISPERSION CORRECTION                            
                                                                               
                                DFTD4 V3.4.0                                   
-------------------------------------------------------------------------------
The PBE functional is recognized
Active option DFTDOPT                   ...         5   

-------------------------   ----------------
Dispersion correction           -0.008954148
-------------------------   ----------------

------------------   -----------------
gCP correction             0.081793590
------------------   -----------------

-------------------------   --------------------
FINAL SINGLE POINT ENERGY      -344.004118927328
-------------------------   --------------------


------------------------------------------------------------------------------
                              ORCA PROPERTY CALCULATIONS
------------------------------------------------------------------------------

GBWName                                 ... sp.gbw
Number of atoms                         ...     14
Number of basis functions               ...    100
Max core memory                         ...   1024 MB

Electric properties:
Dipole moment                           ... YES
Quadrupole moment                       ...  NO
Static polarizability (Dipole/Dipole)   ...  NO
Static polarizability (Dipole/Quad.)    ...  NO
Static polarizability (Quad./Quad.)     ...  NO
Static polarizability (Velocity)        ...  NO

Atomic electric properties:
Dipole moment                           ...  NO
Quadrupole moment                       ...  NO
Static polarizability                   ...  NO

Choice of electric origin               ... Center of mass
Position of electric origin             ...    -0.000003    -0.000017    -0.000009

General magnetic properties:
Magnetizability                         ...  NO

EPR properties:
g-Tensor (aka g-matrix)                 ...  NO
Zero-Field splitting spin-orbit         ...  NO
Zero-field splitting spin-spin          ...  NO
Hyperfine couplings                     ...  NO (   0 nuclei)
Quadrupole couplings                    ...  NO (   0 nuclei)
Contact density                         ...  NO (   0 nuclei)

NMR properties:
Chemical shifts                         ...  NO (   0 nuclei)
Spin-rotation constants                 ...  NO (   0 nuclei)
Spin-spin couplings                     ...  NO (   0 nuclei,    0 pairs)

Choice of magnetic origin               ... GIAO
Position of magnetic origin             ...     0.000000     0.000000     0.000000

Properties with geometric perturbations:
SCF Hessian                             ...  NO
IR spectrum                             ...  NO
VCD spectrum                            ...  NO
X-ray spectroscopy properties:
SCF XES/XAS/RIXS spectra                ...  NO


-------------
DIPOLE MOMENT
-------------

Method             : SCF
Type of density    : Electron Density
Multiplicity       :   1
Irrep              :   0
Energy             :  -344.0769583691377989 Eh
Relativity type    : 
Basis              : AO
                                X                 Y                 Z
Electronic contribution:      0.468420068       1.833939836       1.078717178
Nuclear contribution   :     -0.761709366      -1.980659202      -0.647572583
                        -----------------------------------------
Total Dipole Moment    :     -0.293289299      -0.146719366       0.431144594
                        -----------------------------------------
Magnitude (a.u.)       :      0.541692576
Magnitude (Debye)      :      1.376873105



--------------------
Rotational spectrum 
--------------------
 
Rotational constants in cm-1:             0.257100             0.064512             0.055775 
Rotational constants in MHz :          7707.659496          1934.009786          1672.087008 

Dipole components along the rotational axes: 
x,y,z [a.u.] :    -0.268014    -0.070971     0.465363 
x,y,z [Debye]:    -0.681238    -0.180394     1.182858 

 

Dipole moment calculation done in   0.0 sec 

Maximum memory used throughout the entire PROP-calculation: 6.0 MB

--------------------------------
SUGGESTED CITATIONS FOR THIS RUN
--------------------------------

Below you find a list of papers that are relevant to this ORCA run
We neither can nor want to force you to cite these papers, but we appreciate if you do
You receive ORCA, which is the product of decades of hard work by many enthusiastic individuals, for free
The only thing we kindly ask in return is that you cite our papers,
We deeply appreciate it, if you show your appreciation for ORCA by not just citing the generic ORCA reference.

Please note that relegating all ORCA citations to the supporting information does *not* help us.
SI sections are not indexed - citations you put there will not count into any citation statistics
But we need these citations in order to attract the funding resources that allow us to do what we are doing

Therefore, if you are a happy ORCA user, please consider citing a few of the papers listed below in the main body of your paper

In addition to the list printed below, the program has created the file sp.bibtex that contains the list in bibtex format
You can import this file easily into all common literature databanks and citation aid programs


List of essential papers. We consider these as the minimum necessary citations

  1. Neese,F.
     Software update: the ORCA program system, version 5.0
     WIRES Comput. Molec. Sci., 2022 12(1)e1606
     doi.org/10.1002/wcms.1606

List of papers to cite with high priority. The work reported in these papers was absolutely
necessary for this run to complete.
Our perspective: the developers of density functionals and basis sets usually get cited in chemistry papers
Good! But without the algorithms to do something with them, the functionals or basis sets would not do anything.
Hence, in our opinion, the algorithm design and method developments papers are equally worthy of getting cited

  1. Neese,F.
     An improvement of the resolution of the identity approximation for the formation of the Coulomb matrix
     J. Comp. Chem., 2003 24(14)1740-1747
     doi.org/10.1002/jcc.10318
  2. Neese,F.
     The SHARK Integral Generation and Digestion System
     J. Comp. Chem., 2022  1-16
     doi.org/10.1002/jcc.26942
  3. Caldeweyher,E.; Bannwarth,C.; Grimme,S.
     Extension of the D3 dispersion coefficient model
     J. Chem. Phys., 2017 147 034112-XXXX
     doi.org/10.1063/1.4993215
  4. Caldeweyher,E.; Ehlert,S.; Hansen,A.; Neugebauer,H.; Spicher,S.; Bannwarth,C.; Grimme,S.
     A generally applicable atomic-charge dependent London dispersion correction
     J. Chem. Phys., 2019 150 154122-XXXX
     doi.org/10.1063/1.5090222
  5. Caldeweyher,E.; Mewes,J.; Ehlert,S.; Grimme,S.
     Extension and evaluation of the D4 London-dispersion model for periodic systems
     Phys. Chem. Chem. Phys., 2020 22(16)8499-8512
     doi.org/10.1039/D0CP00502A

List of suggested additional citations. These are papers that are important in the 'surrounding' of 
of this run, or papers that preceded the highly important papers. If you like your results we are grateful for a citation.

  1. Neese,F.
     The ORCA program system
     WIRES Comput. Molec. Sci., 2012 2(1)73-78
     doi.org/10.1002/wcms.81
  2. Neese,F.
     Software update: the ORCA program system, version 4.0
     WIRES Comput. Molec. Sci., 2018 8(1)1-6
     doi.org/10.1002/wcms.1327
  3. Neese,F.; Wennmohs,F.; Becker,U.; Riplinger,C.
     The ORCA quantum chemistry program package
     J. Chem. Phys., 2020 152 Art. No. L224108
     doi.org/10.1063/5.0004608

List of optional additional citations

  1. Neese,F.
     Approximate second-order SCF convergence for spin unrestricted wavefunctions
     Chem. Phys. Lett., 2000 325(1-3)93-98
     doi.org/10.1016/s0009-2614(00)00662-x

Timings for individual modules:

Sum of individual times          ...        5.980 sec (=   0.100 min)
Startup calculation              ...        0.573 sec (=   0.010 min)   9.6 %
SCF iterations                   ...        5.306 sec (=   0.088 min)  88.7 %
Property calculations            ...        0.102 sec (=   0.002 min)   1.7 %
                             ****ORCA TERMINATED NORMALLY****
TOTAL RUN TIME: 0 days 0 hours 0 minutes 6 seconds 693 msec
