24
 energy: -314.375363782954 gnorm: 0.020480164379 xtb: 6.7.1 (edcfbbe)
C           -2.18561809116851       -0.24083772890672       -1.19901425813132
C           -2.20419139847674        0.32175296734258        0.21735718489632
C           -1.21903205364019       -0.33320302554765        1.19036330552748
C            0.28374083482573       -0.19188913718503        0.90372867950047
C            0.85193098287751       -1.19918067863139       -0.12271607505438
C            1.81548974520449       -0.40557976967972       -1.01818884795119
C            2.09509737672839        0.88038704489012       -0.24168294590710
C            0.74625410443068        1.18152396262356        0.40263903237842
H           -2.98616363882325        0.20600572189129       -1.78529378519111
H           -1.24425319715136       -0.02621502481162       -1.69617602365162
H           -2.33681184173550       -1.31820991428413       -1.18444776462486
H           -2.02505772029736        1.39778934191940        0.18398556398153
H           -3.20601665172067        0.17913223917938        0.63161161097988
H           -1.41200099742570        0.10202599804521        2.17482657306372
H           -1.44833787044180       -1.39957683982019        1.26002690615835
H            0.79353710175164       -0.37650520696684        1.85650795862267
H            1.38147350011217       -1.99844653948556        0.39679470497583
H            0.06238263282764       -1.66260649123674       -0.70882388341410
H            2.72510417150757       -0.96196737612627       -1.23996879484946
H            1.33401850009114       -0.15902172347047       -1.96608286247122
H            2.84546228156090        0.69794591690928        0.52956017423466
H            2.44731889128447        1.68789414154795       -0.88233722449099
H            0.81278299996017        1.91145955124702        1.20852656163553
H            0.06777486173003        1.56569125429380       -0.35752730775843
24
 energy: -314.376209601401 gnorm: 0.006118455694 xtb: 6.7.1 (edcfbbe)
C           -2.18428484220187       -0.23942623148876       -1.20041913875918
C           -2.20627114736072        0.31745032456121        0.22202269687414
C           -1.22528463282688       -0.32996618840930        1.20676003001982
C            0.27744181119343       -0.19333385392327        0.90364974962231
C            0.85327968207371       -1.20450471443617       -0.12689825652968
C            1.82276430780490       -0.40711548994540       -1.02443080685645
C            2.09991772342039        0.88377972304189       -0.24430117390695
C            0.74817164605148        1.18275036965205        0.40533231903071
H           -2.98324091781040        0.20707856917235       -1.79963083719294
H           -1.23713853421173       -0.03160548507677       -1.70378405911208
H           -2.33564140047674       -1.32283192996993       -1.19489805706270
H           -2.03149020022167        1.39842509834083        0.19041738635440
H           -3.21364981947689        0.18484218019221        0.63363729693467
H           -1.42026101669756        0.10266137060952        2.19527978480586
H           -1.45994488856962       -1.39915385497653        1.28577234944983
H            0.79531452013375       -0.37490037414585        1.85413079122180
H            1.37891405809892       -2.00960681789320        0.39496291370066
H            0.06064069133476       -1.67317520320837       -0.71301115506512
H            2.73413512570783       -0.96351473306565       -1.25928492221780
H            1.33728482826459       -0.15608880748745       -1.97362325141006
H            2.85190899076680        0.70061338839599        0.53161962247578
H            2.46125034585952        1.69610479157503       -0.88138016016468
H            0.80502723620361        1.92137300517167        1.21061419997009
H            0.06604078469272        1.56851405126705       -0.35886921936793
24
 energy: -314.376305021840 gnorm: 0.001711955929 xtb: 6.7.1 (edcfbbe)
C           -2.18200608235932       -0.24052729514128       -1.19808803637898
C           -2.20999021881539        0.31651412693993        0.22466670189214
C           -1.22541093292847       -0.32826893917436        1.20845198053203
C            0.27814023304435       -0.19388740645372        0.90526756298654
C            0.85202869302131       -1.20827786370504       -0.12965679643456
C            1.82307431335518       -0.40642493555312       -1.02651530085521
C            2.10258960131542        0.88411385510993       -0.24160796516388
C            0.74725425550525        1.18404696052793        0.40397038627346
H           -2.97852564427185        0.20764921945855       -1.80292771498412
H           -1.23195128700633       -0.03502535914726       -1.70213423970169
H           -2.33387621435421       -1.32632601432430       -1.19992292832222
H           -2.03889590614003        1.39999592740473        0.19398722864406
H           -3.22044300752289        0.18606683062217        0.63299713823336
H           -1.41910215223200        0.10792110155491        2.19709039892383
H           -1.46253943624451       -1.39819212127727        1.29963105729292
H            0.80130639984073       -0.37636648760374        1.85344406627003
H            1.37635276980948       -2.01575408221000        0.39259426984297
H            0.05949601463496       -1.67838119742617       -0.71794294003955
H            2.73423846754527       -0.96284922208974       -1.26887593270550
H            1.33527623448745       -0.15150320092616       -1.97537799610372
H            2.85442598581214        0.69849826420917        0.53660558962345
H            2.46996750987027        1.69817160066320       -0.87564891219441
H            0.79821372348296        1.92738894544666        1.20755635504494
H            0.06526063527655        1.56978687510974       -0.36389605578043
24
 energy: -314.376325590681 gnorm: 0.001122510030 xtb: 6.7.1 (edcfbbe)
C           -2.18048877995219       -0.24108539162971       -1.19751172384666
C           -2.20998703894570        0.31399862200996        0.22513990199372
C           -1.22635283775429       -0.32699098017129        1.21186782002409
C            0.27578846541725       -0.19360122223152        0.90407921884013
C            0.85141847370307       -1.20782846802310       -0.13202923060512
C            1.82293310147066       -0.40529882733672       -1.02823733836942
C            2.10356713182549        0.88290046658829       -0.23967205834071
C            0.74668055620794        1.18362910370080        0.40201992324667
H           -2.97459360648292        0.20857337792226       -1.80428233896879
H           -1.22880469093125       -0.03602580415012       -1.69836372051998
H           -2.33314946837260       -1.32671404882359       -1.20133725831838
H           -2.04222740388221        1.39818534266591        0.19473241510133
H           -3.22068406679076        0.18111531167155        0.63217299385396
H           -1.41740193642802        0.11512765233828        2.19877619625354
H           -1.46399161120518       -1.39626591151771        1.31038011839106
H            0.80145871183809       -0.37695659120470        1.85056545015586
H            1.37569128157217       -2.01524378706845        0.39030295171606
H            0.05963640915356       -1.67730796756815       -0.72136011018654
H            2.73296017688031       -0.96180782795938       -1.27404848393228
H            1.33336669089209       -0.14663272718266       -1.97521080127607
H            2.85251320029396        0.69356735348948        0.54051240361443
H            2.47540614906817        1.69698374512506       -0.87088962003102
H            0.79441875109522        1.92825391364938        1.20447408360282
H            0.06672589646679        1.56779461682053       -0.36841298578614
24
 energy: -314.376341134336 gnorm: 0.001000108726 xtb: 6.7.1 (edcfbbe)
C           -2.17698077357798       -0.24286549114684       -1.19641632745024
C           -2.21210509270193        0.31041186616548        0.22599171857974
C           -1.22544853223611       -0.32340091474162        1.21374185010475
C            0.27498102761025       -0.19323122620702        0.90136873363817
C            0.84936177808605       -1.20815070026577       -0.13610552118773
C            1.82084645919121       -0.40332891207834       -1.02982483455681
C            2.10442478441519        0.88055722272066       -0.23598494309367
C            0.74595413924662        1.18369898583198        0.39964470929632
H           -2.96770750907027        0.20913413187013       -1.80502553054789
H           -1.22326488796992       -0.03762034743721       -1.69232004017544
H           -2.33102595667225       -1.32785170914242       -1.20277818819072
H           -2.04992293870344        1.39529221964859        0.19629515193091
H           -3.22234636854266        0.17158007022291        0.63196911157819
H           -1.41232933953148        0.12894304849260        2.19701990809584
H           -1.46337246269850       -1.39117669618194        1.32395189897389
H            0.80362675485501       -0.37724522586499        1.84589977873369
H            1.37417460926976       -2.01495393652686        0.38604799989396
H            0.05827522212683       -1.67658818248433       -0.72637601312198
H            2.72869598045669       -0.96033235325442       -1.28090015327855
H            1.32904826922607       -0.13758011245448       -1.97345520378778
H            2.84738869518831        0.68368621403437        0.54776633901659
H            2.48372690492332        1.69497198378075       -0.86180937690410
H            0.78918444387154        1.93004980990143        1.20028806840019
H            0.06969751498443        1.56437075068635       -0.37532163103956
24
 energy: -314.376343180841 gnorm: 0.000372607076 xtb: 6.7.1 (edcfbbe)
C           -2.17647841530078       -0.24351401091080       -1.19670514269559
C           -2.21248315183941        0.31028579759256        0.22598156794261
C           -1.22508171234068       -0.32293621588410        1.21384347373749
C            0.27527232697583       -0.19274776708494        0.90151004142602
C            0.84877167382044       -1.20681716247447       -0.13612335154028
C            1.81996589843052       -0.40271830539701       -1.03048538005378
C            2.10508010959978        0.87993304320535       -0.23564983624320
C            0.74644946084129        1.18369389633846        0.39943961915561
H           -2.96738050674581        0.20804423719564       -1.80556058937181
H           -1.22273946943547       -0.03748615723987       -1.69222500537709
H           -2.33000733941415       -1.32862664020453       -1.20295045353185
H           -2.05226331503190        1.39536235940128        0.19639571113069
H           -3.22236606892427        0.16927853886575        0.63194215749176
H           -1.41184009562672        0.13040018905638        2.19634705414041
H           -1.46278169192649       -1.39046788487165        1.32476282735789
H            0.80354955168155       -0.37702295339689        1.84626972859995
H            1.37377498639245       -2.01371108867406        0.38565589207174
H            0.05734291945675       -1.67579147524044       -0.72560494842752
H            2.72728066690012       -0.96033750422311       -1.28246125043635
H            1.32779572357331       -0.13624655235758       -1.97368275510627
H            2.84689017205748        0.68117441642007        0.54868887547269
H            2.48599287468089        1.69436435191269       -0.86044672249275
H            0.78988148228768        1.92974772333213        1.20033408140011
H            0.07025635774171        1.56450965703714       -0.37560827225201
24
 energy: -314.376343180841 gnorm: 0.000372607076 xtb: 6.7.1 (edcfbbe)
C           -2.17647841530078       -0.24351401091080       -1.19670514269559
C           -2.21248315183941        0.31028579759256        0.22598156794261
C           -1.22508171234068       -0.32293621588410        1.21384347373749
C            0.27527232697583       -0.19274776708494        0.90151004142602
C            0.84877167382044       -1.20681716247447       -0.13612335154028
C            1.81996589843052       -0.40271830539701       -1.03048538005378
C            2.10508010959978        0.87993304320535       -0.23564983624320
C            0.74644946084129        1.18369389633846        0.39943961915561
H           -2.96738050674581        0.20804423719564       -1.80556058937181
H           -1.22273946943547       -0.03748615723987       -1.69222500537709
H           -2.33000733941415       -1.32862664020453       -1.20295045353185
H           -2.05226331503190        1.39536235940128        0.19639571113069
H           -3.22236606892427        0.16927853886575        0.63194215749176
H           -1.41184009562672        0.13040018905638        2.19634705414041
H           -1.46278169192649       -1.39046788487165        1.32476282735789
H            0.80354955168155       -0.37702295339689        1.84626972859995
H            1.37377498639245       -2.01371108867406        0.38565589207174
H            0.05734291945675       -1.67579147524044       -0.72560494842752
H            2.72728066690012       -0.96033750422311       -1.28246125043635
H            1.32779572357331       -0.13624655235758       -1.97368275510627
H            2.84689017205748        0.68117441642007        0.54868887547269
H            2.48599287468089        1.69436435191269       -0.86044672249275
H            0.78988148228768        1.92974772333213        1.20033408140011
H            0.07025635774171        1.56450965703714       -0.37560827225201
