      -----------------------------------------------------------      
     |                   =====================                   |     
     |                           x T B                           |     
     |                   =====================                   |     
     |                         S. Grimme                         |     
     |          Mulliken Center for Theoretical Chemistry        |     
     |                    University of Bonn                     |     
      -----------------------------------------------------------      

   * xtb version 6.7.1 (edcfbbe) compiled by 'albert@albert-system' on 2024-07-22

   xtb is free software: you can redistribute it and/or modify it under
   the terms of the GNU Lesser General Public License as published by
   the Free Software Foundation, either version 3 of the License, or
   (at your option) any later version.
   
   xtb is distributed in the hope that it will be useful,
   but WITHOUT ANY WARRANTY; without even the implied warranty of
   MERCHANTABILITY or FITNESS FOR A PARTICULAR PURPOSE.  See the
   GNU Lesser General Public License for more details.
   
   Cite this work as:
   * C. Bannwarth, E. Caldeweyher, S. Ehlert, A. Hansen, P. Pracht,
     J. Seibert, S. Spicher, S. Grimme, WIREs Comput. Mol. Sci., 2020, 11,
     e01493. DOI: 10.1002/wcms.1493
   
   for GFN2-xTB:
   * C. Bannwarth, S. Ehlert and S. Grimme., J. Chem. Theory Comput., 2019,
     15, 1652-1671. DOI: 10.1021/acs.jctc.8b01176
   for GFN1-xTB:
   * S. Grimme, C. Bannwarth, P. Shushkov, J. Chem. Theory Comput., 2017,
     13, 1989-2009. DOI: 10.1021/acs.jctc.7b00118
   for GFN0-xTB:
   * P. Pracht, E. Caldeweyher, S. Ehlert, S. Grimme, ChemRxiv, 2019, preprint.
     DOI: 10.26434/chemrxiv.8326202.v1
   for GFN-FF:
   * S. Spicher and S. Grimme, Angew. Chem. Int. Ed., 2020, 59, 15665-15673.
     DOI: 10.1002/anie.202004239
   
   for ALPB and GBSA implicit solvation:
   * S. Ehlert, M. Stahn, S. Spicher, S. Grimme, J. Chem. Theory Comput.,
     2021, 17, 4250-4261. DOI: 10.1021/acs.jctc.1c00471
   
   for ddCOSMO and CPCM-X implicit solvation:
   * M. Stahn, S. Ehlert, S. Grimme, J. Phys. Chem. A,
     2023, XX, XXXX-XXXX. DOI: 10.1021/acs.jpca.3c04382
   
   for DFT-D4:
   * E. Caldeweyher, C. Bannwarth and S. Grimme, J. Chem. Phys., 2017,
     147, 034112. DOI: 10.1063/1.4993215
   * E. Caldeweyher, S. Ehlert, A. Hansen, H. Neugebauer, S. Spicher,
     C. Bannwarth and S. Grimme, J. Chem. Phys., 2019, 150, 154122.
     DOI: 10.1063/1.5090222
   * E. Caldeweyher, J.-M. Mewes, S. Ehlert and S. Grimme, Phys. Chem. Chem. Phys.
     2020, 22, 8499-8512. DOI: 10.1039/D0CP00502A
   
   for sTDA-xTB:
   * S. Grimme and C. Bannwarth, J. Chem. Phys., 2016, 145, 054103.
     DOI: 10.1063/1.4959605
   
   in the mass-spec context:
   * V. Asgeirsson, C. Bauer and S. Grimme, Chem. Sci., 2017, 8, 4879.
     DOI: 10.1039/c7sc00601b
   * J. Koopman and S. Grimme, ACS Omega 2019, 4, 12, 15120-15133.
     DOI: 10.1021/acsomega.9b02011
   
   for metadynamics refer to:
   * S. Grimme, J. Chem. Theory Comput., 2019, 155, 2847-2862
     DOI: 10.1021/acs.jctc.9b00143
   
   for SPH calculations refer to:
   * S. Spicher and S. Grimme, J. Chem. Theory Comput., 2021, 17, 1701-1714
     DOI: 10.1021/acs.jctc.0c01306
   
   for ONIOM refer to:
   * C. Plett, A. Katbashev, S. Ehlert, S. Grimme, M. Bursch,
     Phys. Chem. Chem. Phys., 2023, 25, 17860-17868. DOI: 10.1039/D3CP02178E
   
   for DIPRO refer to:
   * J. Kohn, N. Gildemeister, S. Grimme, D. Fazzi, A. Hansen,
     J. Chem. Phys., 2023, just accepted.
   
   for PTB refer to:
   * S. Grimme, M. Mueller, A. Hansen, J. Chem. Phys., 2023, 158, 124111.
     DOI: 10.1063/5.0137838
   
   with help from (in alphabetical order)
   P. Atkinson, C. Bannwarth, F. Bohle, G. Brandenburg, E. Caldeweyher
   M. Checinski, S. Dohm, S. Ehlert, S. Ehrlich, I. Gerasimov, C. Hölzer
   A. Katbashev, J. Kohn, J. Koopman, C. Lavigne, S. Lehtola, F. März, M. Müller,
   F. Musil, H. Neugebauer, J. Pisarek, C. Plett, P. Pracht, F. Pultar,
   J. Seibert, P. Shushkov, S. Spicher, M. Stahn, M. Steiner, T. Strunk,
   J. Stückrath, T. Rose, and J. Unsleber
   
 * started run on 2025/04/11 at 12:01:04.113     
   ID    Z sym.   atoms
    1    6 C      1, 3, 4
    2    8 O      2
    3    7 N      5
    4    1 H      6-14

           -------------------------------------------------
          |                Calculation Setup                |
           -------------------------------------------------

          program call               : /srv/scratch/z5358697/.xtb/bin/xtb xtb_opt.coord --opt normal --orca -I xtb_opt-xcontrol-inp
          hostname                   : k071
          coordinate file            : xtb_opt.coord
          omp threads                :                    15

           -------------------------------------------------
          |                   Orca driver                   |
           -------------------------------------------------
orca executable           : /apps/z_install_tree/linux-rocky8-ivybridge/gcc-12.2.0/orca-6.0.0-srtngmq3qlimg2qxbl6avaaiffipurdx/bin/orca
orca input file           : xtb_opt.inp
orca input line           : 
orca parallel             : true
orca number of threads    : 15
                         * ORCA takes the control...
  ------------------------------------------------------------------------

                                 *****************
                                 * O   R   C   A *
                                 *****************

                                            #,                                       
                                            ###                                      
                                            ####                                     
                                            #####                                    
                                            ######                                   
                                           ########,                                 
                                     ,,################,,,,,                         
                               ,,#################################,,                 
                          ,,##########################################,,             
                       ,#########################################, ''#####,          
                    ,#############################################,,   '####,        
                  ,##################################################,,,,####,       
                ,###########''''           ''''###############################       
              ,#####''   ,,,,##########,,,,          '''####'''          '####       
            ,##' ,,,,###########################,,,                        '##       
           ' ,,###''''                  '''############,,,                           
         ,,##''                                '''############,,,,        ,,,,,,###''
      ,#''                                            '''#######################'''  
     '                                                          ''''####''''         
             ,#######,   #######,   ,#######,      ##                                
            ,#'     '#,  ##    ##  ,#'     '#,    #''#        ,####,   ,####,        
            ##       ##  ##   ,#'  ##            #'  '#       #'       #'  '#        
            ##       ##  #######   ##           ,######,      #####,   #    #        
            '#,     ,#'  ##    ##  '#,     ,#' ,#      #,     #,   #   #,  ,#        
             '#######'   ##     ##  '#######'  #'      '#     '####' # '####'        



                #########################################################
                #                        -***-                          #
                #          Department of theory and spectroscopy        #
                #                                                       #
                #                      Frank Neese                      #
                #                                                       #
                #     Directorship, Architecture, Infrastructure        #
                #                    SHARK, DRIVERS                     #
                #        Core code/Algorithms in most modules           #
                #                                                       #
                #        Max Planck Institute fuer Kohlenforschung      #
                #                Kaiser Wilhelm Platz 1                 #
                #                 D-45470 Muelheim/Ruhr                 #
                #                      Germany                          #
                #                                                       #
                #                  All rights reserved                  #
                #                        -***-                          #
                #########################################################


                         Program Version 6.0.0  -   RELEASE  -


 With contributions from (in alphabetic order):
   Daniel Aravena         : Magnetic Suceptibility
   Michael Atanasov       : Ab Initio Ligand Field Theory (pilot matlab implementation)
   Alexander A. Auer      : GIAO ZORA, VPT2 properties, NMR spectrum
   Ute Becker             : All parallelization in ORCA, NUMFREQ, NUMCALC
   Giovanni Bistoni       : ED, misc. LED, open-shell LED, HFLD
   Martin Brehm           : Molecular dynamics
   Dmytro Bykov           : pre 5.0 version of the SCF Hessian
   Marcos Casanova-Páez   : Triplet and SCS-CIS(D). UHF-(DLPNO)-IP/EA/STEOM-CCSD. UHF-CVS-IP/STEOM-CCSD
   Vijay G. Chilkuri      : MRCI spin determinant printing, contributions to CSF-ICE
   Pauline Colinet        : FMM embedding
   Dipayan Datta          : RHF DLPNO-CCSD density
   Achintya Kumar Dutta   : EOM-CC, STEOM-CC
   Nicolas Foglia         : Exact transition moments, OPA infrastructure, MCD improvements
   Dmitry Ganyushin       : Spin-Orbit,Spin-Spin,Magnetic field MRCI
   Miquel Garcia          : C-PCM and meta-GGA Hessian, CCSD/C-PCM, Gaussian charge scheme
   Tiago L. C. Gouveia    : GS-ROHF, GS-ROCIS
   Yang Guo               : DLPNO-NEVPT2, F12-NEVPT2, CIM, IAO-localization
   Andreas Hansen         : Spin unrestricted coupled pair/coupled cluster methods
   Ingolf Harden          : AUTO-CI MPn and infrastructure 
   Benjamin Helmich-Paris : MC-RPA, TRAH-(SCF,CASSCF), AVAS, COSX integrals, SCF dyn. polar.
   Lee Huntington         : MR-EOM, pCC
   Robert Izsak           : Overlap fitted RIJCOSX, COSX-SCS-MP3, EOM
   Riya Kayal             : Wick's Theorem for AUTO-CI, AUTO-CI UHF-CCSDT
   Emily Kempfer          : AUTO-CI, RHF CISDT and CCSDT
   Christian Kollmar      : KDIIS, OOCD, Brueckner-CCSD(T), CCSD density, CASPT2, CASPT2-K, improved NEVPT2
   Axel Koslowski         : Symmetry handling
   Simone Kossmann        : Meta GGA functionals, TD-DFT gradient, OOMP2, (MP2 Hessian; deprecated post 5.0)
   Lucas Lang             : DCDCAS
   Marvin Lechner         : AUTO-CI (C++ implementation), FIC-MRCC
   Spencer Leger          : CASSCF response
   Dagmar Lenk            : GEPOL surface, SMD, ORCA-2-JSON
   Dimitrios Liakos       : Extrapolation schemes; Compound Job, initial MDCI parallelization
   Dimitrios Manganas     : Further ROCIS development; embedding schemes. LFT, Crystal Embedding
   Dimitrios Pantazis     : SARC Basis sets
   Anastasios Papadopoulos: AUTO-CI, single reference methods and gradients
   Taras Petrenko         : pre 6.0 DFT Hessian and TD-DFT gradient, (ASA, deprecated), ECA, 1-Electron XAS/XES, NRVS
   Peter Pinski           : DLPNO-MP2, DLPNO-MP2 Gradient
   Christoph Reimann      : Effective Core Potentials
   Marius Retegan         : Local ZFS, SOC
   Christoph Riplinger    : Optimizer, TS searches, QM/MM, DLPNO-CCSD(T), (RO)-DLPNO pert. Triples
   Michael Roemelt        : Original ROCIS implementation
   Masaaki Saitow         : Open-shell DLPNO-CCSD energy and density
   Barbara Sandhoefer     : DKH picture change effects
   Kantharuban Sivalingam : CASSCF convergence/infrastructure, NEVPT2 and variants, FIC-MRCI
   Bernardo de Souza      : ESD, SOC TD-DFT
   Georgi Stoychev        : AutoAux, RI-MP2 NMR, DLPNO-MP2 response, X2C
   Van Anh Tran           : RI-MP2 g-tensors
   Willem Van den Heuvel  : Paramagnetic NMR
   Zikuan Wang            : NOTCH, Electric field optimization 
   Frank Wennmohs         : Technical directorship and infrastructure
   Hang Xu                : AUTO-CI-Response properties 


 We gratefully acknowledge several colleagues who have allowed us to
 interface, adapt or use parts of their codes:
   Stefan Grimme, W. Hujo, H. Kruse, P. Pracht,  : VdW corrections, initial TS optimization,
                  C. Bannwarth, S. Ehlert,         DFT functionals, gCP, sTDA/sTD-DF
                  L. Wittmann, M. Mueller
   Ed Valeev, F. Pavosevic, A. Kumar             : LibInt (2-el integral package), F12 methods
   Garnet Chan, S. Sharma, J. Yang, R. Olivares  : DMRG
   Ulf Ekstrom                                   : XCFun DFT Library
   Mihaly Kallay                                 : mrcc  (arbitrary order and MRCC methods)
   Frank Weinhold                                : gennbo (NPA and NBO analysis)
   Simon Mueller                                 : openCOSMO-RS
   Christopher J. Cramer and Donald G. Truhlar   : smd solvation model
   Lars Goerigk                                  : TD-DFT with DH, B97 family of functionals
   V. Asgeirsson, H. Jonsson                     : NEB implementation
   FAccTs GmbH                                   : IRC, NEB, NEB-TS, DLPNO-Multilevel, CI-OPT
                                                   MM, QMMM, 2- and 3-layer-ONIOM, Crystal-QMMM,
                                                   LR-CPCM, SF, NACMEs, symmetry and pop. for TD-DFT,
                                                   nearIR, NL-DFT gradient (VV10), updates on ESD,
                                                   ML-optimized integration grids, MBIS, APM,
                                                   GOAT, DOCKER, SOLVATOR, interface openCOSMO-RS
   S Lehtola, MJT Oliveira, MAL Marques          : LibXC Library
   Liviu Ungur et al                             : ANISO software


 Your calculation uses the libint2 library for the computation of 2-el integrals
 For citations please refer to: http://libint.valeyev.net

 Your ORCA version has been built with support for libXC version: 6.2.2
 For citations please refer to: https://libxc.gitlab.io

 This ORCA versions uses:
   CBLAS   interface :  Fast vector & matrix operations
   LAPACKE interface :  Fast linear algebra routines
   SCALAPACK package :  Parallel linear algebra routines
   Shared memory     :  Shared parallel matrices
   BLAS/LAPACK       :  OpenBLAS 0.3.27  USE64BITINT DYNAMIC_ARCH NO_AFFINITY SkylakeX SINGLE_THREADED
        Core in use  :  SkylakeX
   Copyright (c) 2011-2014, The OpenBLAS Project




***************************************
The coordinates will be read from file: xtb_opt.xyz
***************************************


Your calculation utilizes the geometrical counterpoise correction gCP
Please cite in your paper:
H.Kruse, S. Grimme J.Chem.Phys., 136, (2012), 154101 
   

Your calculation utilizes the atom-pairwise dispersion correction
based on EEQ partial charges (D4)


Your calculation utilizes the SMD solvation module
Please cite in your paper:
A.V. Marenich, C.J. Cramer, D.G. Truhlar J. Phys. Chem. B, 113, (2009), 6378 

================================================================================

----- Orbital basis set information -----
Your calculation utilizes the basis: def2-mTZVPP
   Stefan Grimme, Andreas Hansen, Sebastian Ehlert, and Jan-Michael Mewes 
   J. Chem. Phys. 154, 064103 (2021). DOI: 10.1063/5.0040021

----- AuxJ basis set information -----
Your calculation utilizes the auxiliary basis: def2/J
   F. Weigend, Phys. Chem. Chem. Phys. 8, 1057 (2006).

================================================================================
                                        WARNINGS
                       Please study these warnings very carefully!
================================================================================

WARNING: Old DensityContainer found on disk!
         Will remove this file - 
         If you want to keep old densities, please start your calculation with a different basename. 

Using LibXC functional ID 497 : Re-regularized SCAN exchange by Furness et al
[ 1]  J. W. Furness, A. D. Kaplan, J. Ning, J. P. Perdew, and J. Sun.,  J. Phys. Chem. Lett. 11, 8208-8215 (2020)
[ 2]  J. W. Furness, A. D. Kaplan, J. Ning, J. P. Perdew, and J. Sun.,  J. Phys. Chem. Lett. 11, 9248-9248 (2020)
Using LibXC functional ID 498 : Re-regularized SCAN correlation by Furness et al
[ 1]  J. W. Furness, A. D. Kaplan, J. Ning, J. P. Perdew, and J. Sun.,  J. Phys. Chem. Lett. 11, 8208-8215 (2020)
[ 2]  J. W. Furness, A. D. Kaplan, J. Ning, J. P. Perdew, and J. Sun.,  J. Phys. Chem. Lett. 11, 9248-9248 (2020)
Using LibXC functional ID 497 : Re-regularized SCAN exchange by Furness et al
[ 1]  J. W. Furness, A. D. Kaplan, J. Ning, J. P. Perdew, and J. Sun.,  J. Phys. Chem. Lett. 11, 8208-8215 (2020)
[ 2]  J. W. Furness, A. D. Kaplan, J. Ning, J. P. Perdew, and J. Sun.,  J. Phys. Chem. Lett. 11, 9248-9248 (2020)
Using LibXC functional ID 498 : Re-regularized SCAN correlation by Furness et al
[ 1]  J. W. Furness, A. D. Kaplan, J. Ning, J. P. Perdew, and J. Sun.,  J. Phys. Chem. Lett. 11, 8208-8215 (2020)
[ 2]  J. W. Furness, A. D. Kaplan, J. Ning, J. P. Perdew, and J. Sun.,  J. Phys. Chem. Lett. 11, 9248-9248 (2020)

================================================================================
                                       INPUT FILE
================================================================================
NAME = xtb_opt.inp
|  1> ! r2scan-3c def2/J RI DEFGRID2 scfconv7 ENGRAD tightSCF miniprint
|  2> %cpcm
|  3>     smd true
|  4>     smdsolvent "water"
|  5> end
|  6> * xyzfile 0 1 xtb_opt.xyz
|  7> 
|  8>                          ****END OF INPUT****
================================================================================

                     *******************************
                     * Energy+Gradient Calculation *
                     *******************************

---------------------------------
CARTESIAN COORDINATES (ANGSTROEM)
---------------------------------
  C      2.035043   -0.564231   -0.041706
  O      1.287673    0.596806    0.328909
  C     -0.014808    0.645760   -0.263122
  C     -0.987339   -0.361741    0.332596
  N     -2.313087   -0.172007   -0.287676
  H      1.648087   -1.474024    0.434391
  H      3.062419   -0.403257    0.295026
  H      2.032082   -0.701488   -1.132562
  H     -0.384772    1.661312   -0.087232
  H      0.067190    0.493212   -1.352276
  H     -0.596669   -1.381453    0.199947
  H     -1.070945   -0.178908    1.409727
  H     -2.950606   -0.847648    0.121947
  H     -2.239713   -0.436754   -1.267007

----------------------------
CARTESIAN COORDINATES (A.U.)
----------------------------
  NO LB      ZA    FRAG     MASS         X           Y           Z
   0 C     6.0000    0    12.011    3.845675   -1.066243   -0.078813
   1 O     8.0000    0    15.999    2.433350    1.127800    0.621548
   2 C     6.0000    0    12.011   -0.027982    1.220310   -0.497229
   3 C     6.0000    0    12.011   -1.865801   -0.683591    0.628515
   4 N     7.0000    0    14.007   -4.371102   -0.325047   -0.543629
   5 H     1.0000    0     1.008    3.114432   -2.785502    0.820880
   6 H     1.0000    0     1.008    5.787134   -0.762045    0.557519
   7 H     1.0000    0     1.008    3.840079   -1.325619   -2.140232
   8 H     1.0000    0     1.008   -0.727113    3.139424   -0.164844
   9 H     1.0000    0     1.008    0.126972    0.932036   -2.555432
  10 H     1.0000    0     1.008   -1.127541   -2.610568    0.377846
  11 H     1.0000    0     1.008   -2.023793   -0.338087    2.663998
  12 H     1.0000    0     1.008   -5.575837   -1.601823    0.230447
  13 H     1.0000    0     1.008   -4.232445   -0.825345   -2.394295

------------------------------------------------------------------------------
                   ___                                                        
                  /   \      - P O W E R E D   B Y -                         
                 /     \                                                     
                 |  |  |   _    _      __       _____    __    __             
                 |  |  |  | |  | |    /  \     |  _  \  |  |  /  |          
                  \  \/   | |  | |   /    \    | | | |  |  | /  /          
                 / \  \   | |__| |  /  /\  \   | |_| |  |  |/  /          
                |  |  |   |  __  | /  /__\  \  |    /   |      \           
                |  |  |   | |  | | |   __   |  |    \   |  |\   \          
                \     /   | |  | | |  |  |  |  | |\  \  |  | \   \       
                 \___/    |_|  |_| |__|  |__|  |_| \__\ |__|  \__/        
                                                                              
                      - O R C A' S   B I G   F R I E N D -                    
                                      &                                       
                       - I N T E G R A L  F E E D E R -                       
                                                                              
 v1 FN, 2020, v2 2021, v3 2022-2024                                           
------------------------------------------------------------------------------


----------------------
SHARK INTEGRAL PACKAGE
----------------------

Number of atoms                             ...     14
Number of basis functions                   ...    150
Number of shells                            ...     74
Maximum angular momentum                    ...      2
Integral batch strategy                     ... SHARK/LIBINT Hybrid
RI-J (if used) integral strategy            ... SPLIT-RIJ (Revised 2003 algorithm where possible)
Printlevel                                  ...      1
Contraction scheme used                     ... SEGMENTED contraction
Prescreening option                         ... SCHWARTZ
   Thresh                                   ... 3.000e-11
   Tcut                                     ... 1.000e-12
   Tpresel                                  ... 1.000e-12 
Coulomb Range Separation                    ... NOT USED
Exchange Range Separation                   ... NOT USED
Multipole approximations                    ... NOT USED
Finite Nucleus Model                        ... NOT USED
CABS basis                                  ... NOT available
Auxiliary Coulomb fitting basis             ... AVAILABLE
   # of basis functions in Aux-J            ...    344
   # of shells in Aux-J                     ...    120
   Maximum angular momentum in Aux-J        ...      4
Auxiliary J/K fitting basis                 ... NOT available
Auxiliary Correlation fitting basis         ... NOT available
Auxiliary 'external' fitting basis          ... NOT available

Checking pre-screening integrals            ... done (  0.0 sec) Dimension = 74
Check shell pair data                       ... done (  0.0 sec)
Shell pair information
Shell pair cut-off parameter TPreSel        ...   1.0e-12
Total number of shell pairs                 ...      2775
Shell pairs after pre-screening             ...      2636
Total number of primitive shell pairs       ...      9590
Primitive shell pairs kept                  ...      6973
          la=0 lb=0:    887 shell pairs
          la=1 lb=0:    983 shell pairs
          la=1 lb=1:    284 shell pairs
          la=2 lb=0:    291 shell pairs
          la=2 lb=1:    163 shell pairs
          la=2 lb=2:     28 shell pairs

Calculating one electron integrals          ... done (  0.0 sec)
Calculating RI/J V-Matrix + Cholesky decomp.... done (  0.0 sec)
Calculating Nuclear repulsion               ... done (  0.0 sec) ENN=    190.867078544886 Eh

Diagonalization of the overlap matrix:
Smallest eigenvalue                        ... 2.772e-04
Time for diagonalization                   ...    0.002 sec
Threshold for overlap eigenvalues          ... 1.000e-07
Number of eigenvalues below threshold      ... 0
Time for construction of square roots      ...    0.015 sec
Total time needed                          ...    0.032 sec

-------------------
DFT GRID GENERATION
-------------------

General Integration Accuracy     IntAcc      ... 4.388
Radial Grid Type                 RadialGrid  ... OptM3 with GC (2021)
Angular Grid (max. ang.)         AngularGrid ... 4 (Lebedev-302)
Angular grid pruning method      GridPruning ... 4 (adaptive)
Weight generation scheme         WeightScheme... mBecke (2022)
Basis function cutoff            BFCut       ... 1.0000e-11
Integration weight cutoff        WCut        ... 1.0000e-14
Partially contracted basis set               ... off
Rotationally invariant grid construction     ... off
Angular grids for H and He will be reduced by one unit
Diffuse basis detected: some atoms will have their outermost
                        angular grid increased by 1.

Total number of grid points                  ...    59579
Total number of batches                      ...      938
Average number of points per batch           ...       63
Average number of grid points per atom       ...     4256
Initializing property integral containers    ... done (  0.1 sec)

SHARK setup successfully completed in   0.9 seconds

Maximum memory used throughout the entire STARTUP-calculation: 26.4 MB
Occupation numbers will be reassigned to an Aufbau configuration
             **** ENERGY FILE WAS UPDATED (xtb_opt.en.tmp) ****
Finished Guess after   0.4 sec
Maximum memory used throughout the entire GUESS-calculation: 10.2 MB
--------------------
CPCM SOLVATION MODEL
--------------------
CPCM parameters:
  Epsilon                                         ...      78.3550
  Refrac                                          ...       1.3328
  Rsolv                                           ...       1.3000
  Surface type                                    ... GAUSSIAN VDW
  Discretization scheme                           ... Constant charge density
    Threshold for H atoms                         ...       5.0000 (charges/Ang^2)
    Threshold for non-H atoms                     ...       5.0000 (charges/Ang^2)
  Epsilon function type                           ...         CPCM
Solvent:                                          ... WATER
SMD-CDS solvent descriptors:
  Soln                                            ...       1.3328
  Soln25                                          ...       1.3323
  Sola                                            ...       0.0000
  Solb                                            ...       0.0000
  Solg                                            ...       0.0000
  Solc                                            ...       0.0000
  Solh                                            ...       0.0000
Radii:
  Scheme                                          ... Element-dependent radii
  Radius for C  used is    3.4960 Bohr (=   1.8500 Ang.)
  Radius for O  used is    2.8724 Bohr (=   1.5200 Ang.)
  Radius for N  used is    3.5716 Bohr (=   1.8900 Ang.)
  Radius for H  used is    2.2677 Bohr (=   1.2000 Ang.)
Calculating surface                               ...        done! (  0.0s)
Cavity surface points                             ...         1050
Cavity Volume                                     ...     620.1557
Cavity Surface-area                               ...     425.1491
Calculating surface distance matrix               ...        done! (  0.0s)
Performing Cholesky decomposition & store         ...        done! (  0.1s)
Overall time for CPCM initialization              ...                 0.1s

----------------------------------------D-I-I-S--------------------------------------------
Iteration    Energy (Eh)           Delta-E    RMSDP     MaxDP     DIISErr   Damp  Time(sec)
-------------------------------------------------------------------------------------------
               ***  Starting incremental Fock matrix formation  ***
                              *** Initializing SOSCF ***
---------------------------------------S-O-S-C-F--------------------------------------
Iteration    Energy (Eh)           Delta-E    RMSDP     MaxDP     MaxGrad    Time(sec)
--------------------------------------------------------------------------------------
    1    -249.6388415311745064     0.00e+00  2.93e-06  7.00e-05  5.90e-06     1.9
               *** Restarting incremental Fock matrix formation ***
    2    -249.6388415267200855     4.45e-09  4.54e-06  1.08e-04  3.32e-05     1.8
    3    -249.6388414698120357     5.69e-08  3.31e-06  6.89e-05  6.02e-05     1.5
                 **** Energy Check signals convergence ****

               *****************************************************
               *                     SUCCESS                       *
               *           SCF CONVERGED AFTER   3 CYCLES          *
               *****************************************************


SMD CDS free energy correction energy :                 2.14875     Kcal/mol
Total Energy after SMD CDS correction =              -249.635417218 Eh
             **** ENERGY FILE WAS UPDATED (xtb_opt.en.tmp) ****

----------------
TOTAL SCF ENERGY
----------------

Total Energy       :       -249.63541721755271 Eh           -6792.92505 eV

Components:
Nuclear Repulsion  :        190.86707854488597 Eh            5193.75725 eV
Electronic Energy  :       -440.48855013705031 Eh          -11986.30282 eV
One Electron Energy:       -716.37957871469825 Eh          -19493.67938 eV
Two Electron Energy:        275.89102857764794 Eh            7507.37656 eV
CPCM Dielectric    :         -0.01736987764772 Eh              -0.47266 eV
SMD CDS (Gcds)     :          0.00342425225934 Eh               0.09318 eV

Virial components:
Potential Energy   :       -498.07829331529712 Eh          -13553.39940 eV
Kinetic Energy     :        248.44287609774440 Eh            6760.47435 eV
Virial Ratio       :          2.00480006164209

DFT components:
N(Alpha)           :       20.999985069976 electrons
N(Beta)            :       20.999985069976 electrons
N(Total)           :       41.999970139952 electrons
E(X)               :      -33.714075367708 Eh       
E(C)               :       -1.325015054608 Eh       
E(XC)              :      -35.039090422316 Eh       

CPCM Solvation Model Properties:
Surface-charge          :         -0.03591470303815
Corrected charge        :          0.00000000000000
Outlying charge corr.   :          0.00011298839096 Eh               0.00307 eV
Free-energy (cav+disp)  :          0.00342425225934 Eh               0.09318 eV

---------------
SCF CONVERGENCE
---------------

  Last Energy change         ...   -5.6908e-08  Tolerance :   1.0000e-07
  Last MAX-Density change    ...    6.8922e-05  Tolerance :   1.0000e-07
  Last RMS-Density change    ...    3.3103e-06  Tolerance :   5.0000e-09
  Last DIIS Error            ...    1.0654e-04  Tolerance :   1.0000e-07
  Last Orbital Gradient      ...    6.0233e-05  Tolerance :   1.0000e-04
  Last Orbital Rotation      ...    2.7096e-05  Tolerance :   1.0000e-04


----------------
ORBITAL ENERGIES
----------------

  NO   OCC          E(Eh)            E(eV) 
   0   2.0000     -18.958010      -515.8737 
   1   2.0000     -14.137106      -384.6902 
   2   2.0000     -10.069605      -274.0079 
   3   2.0000     -10.064259      -273.8624 
   4   2.0000     -10.045844      -273.3613 
   5   2.0000      -0.991858       -26.9898 
   6   2.0000      -0.841815       -22.9070 
   7   2.0000      -0.696574       -18.9548 
   8   2.0000      -0.632647       -17.2152 
   9   2.0000      -0.556317       -15.1381 
  10   2.0000      -0.461483       -12.5576 
  11   2.0000      -0.452362       -12.3094 
  12   2.0000      -0.429183       -11.6787 
  13   2.0000      -0.400982       -10.9113 
  14   2.0000      -0.389290       -10.5931 
  15   2.0000      -0.368950       -10.0396 
  16   2.0000      -0.337442        -9.1823 
  17   2.0000      -0.315914        -8.5965 
  18   2.0000      -0.284618        -7.7448 
  19   2.0000      -0.230988        -6.2855 
  20   2.0000      -0.211309        -5.7500 
  21   0.0000       0.059680         1.6240 
  22   0.0000       0.089566         2.4372 
  23   0.0000       0.116111         3.1595 
  24   0.0000       0.132040         3.5930 
  25   0.0000       0.147946         4.0258 
  26   0.0000       0.148775         4.0484 
  27   0.0000       0.163013         4.4358 
  28   0.0000       0.179335         4.8799 
  29   0.0000       0.193134         5.2555 
  30   0.0000       0.197731         5.3805 
  31   0.0000       0.203744         5.5442 
*Only the first 10 virtual orbitals were printed.
Total SCF time: 0 days 0 hours 0 min 5 sec 
Finished LeanSCF after   5.8 sec

Maximum memory used throughout the entire LEANSCF-calculation: 16.8 MB


-------------------------------------------------------------------------------
                          DFT DISPERSION CORRECTION                            
                                                                               
                                DFTD4 V3.4.0                                   
-------------------------------------------------------------------------------
-------------------------   ----------------
Dispersion correction           -0.002776053
-------------------------   ----------------

------------------   -----------------
gCP correction             0.012460996
------------------   -----------------

-------------------------   --------------------
FINAL SINGLE POINT ENERGY      -249.625732275080
-------------------------   --------------------

------------------------------------------------------------------------------
                         ORCA SCF GRADIENT CALCULATION
------------------------------------------------------------------------------

Nuc. rep. gradient        (SHARK) ... done (  0.0 sec)
HCore & Overlap gradient  (SHARK) ... done (  0.1 sec)
Split-RIJ-J gradient      (SHARK) ... done (  0.7 sec)
XC gradient                       ... done (  3.5 sec)
CPCM gradient                     ... done (  0.4 sec)
SMD gradient                      ... done (  0.0 sec)
Dispersion correction             ... done (  0.0 sec)

-------------------
DISPERSION GRADIENT
-------------------

   1   C   :    0.000055685   -0.000016734   -0.000006634
   2   O   :    0.000040004    0.000015542    0.000004438
   3   C   :    0.000006377    0.000014261   -0.000008076
   4   C   :   -0.000026778   -0.000006521    0.000012709
   5   N   :   -0.000077520   -0.000016318   -0.000014255
   6   H   :    0.000030913   -0.000008410    0.000003605
   7   H   :    0.000025972   -0.000003912    0.000002075
   8   H   :    0.000030876   -0.000004151   -0.000003454
   9   H   :   -0.000002377    0.000020120    0.000001452
  10   H   :    0.000002332    0.000011910   -0.000005996
  11   H   :   -0.000016666   -0.000006081    0.000003704
  12   H   :   -0.000020498    0.000002235    0.000010995
  13   H   :   -0.000021382   -0.000001943   -0.000000946
  14   H   :   -0.000026939    0.000000003    0.000000383

Difference to translation invariance:
           :    0.0000000000    0.0000000000    0.0000000000

Difference to rotation invariance:
           :   -0.0000000000    0.0000000000    0.0000000000

Norm of the Dispersion gradient    ...    0.0001355348
RMS gradient                       ...    0.0000209135
MAX gradient                       ...    0.0000775201
gCP correction                   ... done

------------------
CARTESIAN GRADIENT
------------------

   1   C   :   -0.000261851    0.000297412    0.000206837
   2   O   :   -0.000011509   -0.000157631   -0.000311966
   3   C   :    0.000276312    0.000142834    0.000051096
   4   C   :    0.000073388   -0.000113513    0.000150063
   5   N   :   -0.000493783   -0.000126044    0.000007676
   6   H   :   -0.000032536   -0.000009562    0.000049269
   7   H   :   -0.000011995   -0.000080594    0.000013742
   8   H   :    0.000012488   -0.000066905   -0.000050024
   9   H   :    0.000053726   -0.000100876    0.000050136
  10   H   :   -0.000049629    0.000067570   -0.000021484
  11   H   :    0.000046808   -0.000021009   -0.000029306
  12   H   :   -0.000011938    0.000008493   -0.000060248
  13   H   :    0.000227726   -0.000017688    0.000242453
  14   H   :    0.000182794    0.000177513   -0.000298243

Difference to translation invariance:
           :   -0.0000000000   -0.0000000000    0.0000000000

Difference to rotation invariance:
           :    0.0000708378    0.0000607754   -0.0000840122

Norm of the Cartesian gradient     ...    0.0010172483
RMS gradient                       ...    0.0001569648
MAX gradient                       ...    0.0004937832

-------
TIMINGS
-------

Total SCF gradient time     ....        5.220 sec

Densities                   ....       0.000 sec  (  0.0%)
One electron gradient       ....       0.129 sec  (  2.5%)
RI-J Coulomb gradient       ....       0.699 sec  ( 13.4%)
XC gradient                 ....       3.454 sec  ( 66.2%)
CPCM gradient               ....       0.406 sec  (  7.8%)
   A-Matrix (El+Nuc)        ....       0.038 sec  (  0.7%)
   Potential                ....       0.368 sec  (  7.0%)
SMD gradient                ....       0.016 sec  (  0.3%)

Maximum memory used throughout the entire SCFGRAD-calculation: 30.3 MB

------------------------------------------------------------------------------
                              ORCA PROPERTY CALCULATIONS
------------------------------------------------------------------------------

GBWName                                 ... xtb_opt.gbw
Number of atoms                         ...     14
Number of basis functions               ...    150
Max core memory                         ...   1024 MB

Electric properties:
Dipole moment                           ... YES
Quadrupole moment                       ...  NO
Static polarizability (Dipole/Dipole)   ...  NO
Static polarizability (Dipole/Quad.)    ...  NO
Static polarizability (Quad./Quad.)     ...  NO
Static polarizability (Velocity)        ...  NO

Atomic electric properties:
Dipole moment                           ...  NO
Quadrupole moment                       ...  NO
Static polarizability                   ...  NO

Choice of electric origin               ... Center of mass
Position of electric origin             ...     0.004322     0.012031     0.004458

General magnetic properties:
Magnetizability                         ...  NO

EPR properties:
g-Tensor (aka g-matrix)                 ...  NO
Zero-Field splitting spin-orbit         ...  NO
Zero-field splitting spin-spin          ...  NO
Hyperfine couplings                     ...  NO (   0 nuclei)
Quadrupole couplings                    ...  NO (   0 nuclei)
Contact density                         ...  NO (   0 nuclei)

NMR properties:
Chemical shifts                         ...  NO (   0 nuclei)
Spin-rotation constants                 ...  NO (   0 nuclei)
Spin-spin couplings                     ...  NO (   0 nuclei,    0 pairs)

Choice of magnetic origin               ... GIAO
Position of magnetic origin             ...     0.000000     0.000000     0.000000

Properties with geometric perturbations:
SCF Hessian                             ...  NO
IR spectrum                             ...  NO
VCD spectrum                            ...  NO
X-ray spectroscopy properties:
SCF XES/XAS/RIXS spectra                ...  NO


-------------
DIPOLE MOMENT
-------------

Method             : SCF
Type of density    : Electron Density
Multiplicity       :   1
Irrep              :   0
Energy             :  -249.6354172175527140 Eh
Relativity type    : 
Basis              : AO
                                X                 Y                 Z
Electronic contribution:      0.311426408       1.820008699       0.745132168
Nuclear contribution   :     -0.419213891      -3.112914036      -1.309529127
                        -----------------------------------------
Total Dipole Moment    :     -0.107787483      -1.292905336      -0.564396959
                        -----------------------------------------
Magnitude (a.u.)       :      1.414837898
Magnitude (Debye)      :      3.596232139



--------------------
Rotational spectrum 
--------------------
 
Rotational constants in cm-1:             0.462497             0.081358             0.076358 
Rotational constants in MHz :         13865.297481          2439.046455          2289.162181 

Dipole components along the rotational axes: 
x,y,z [a.u.] :    -0.195209    -1.257117     0.619126 
x,y,z [Debye]:    -0.496182    -3.195337     1.573692 

 

Dipole moment calculation done in   0.0 sec 

Maximum memory used throughout the entire PROP-calculation: 8.5 MB

--------------------------------
SUGGESTED CITATIONS FOR THIS RUN
--------------------------------

Below you find a list of papers that are relevant to this ORCA run
We neither can nor want to force you to cite these papers, but we appreciate if you do
You receive ORCA, which is the product of decades of hard work by many enthusiastic individuals, for free
The only thing we kindly ask in return is that you cite our papers,
We deeply appreciate it, if you show your appreciation for ORCA by not just citing the generic ORCA reference.

Please note that relegating all ORCA citations to the supporting information does *not* help us.
SI sections are not indexed - citations you put there will not count into any citation statistics
But we need these citations in order to attract the funding resources that allow us to do what we are doing

Therefore, if you are a happy ORCA user, please consider citing a few of the papers listed below in the main body of your paper

In addition to the list printed below, the program has created the file xtb_opt.bibtex that contains the list in bibtex format
You can import this file easily into all common literature databanks and citation aid programs


List of essential papers. We consider these as the minimum necessary citations

  1. Neese,F.
     Software update: the ORCA program system, version 5.0
     WIRES Comput. Molec. Sci., 2022 12(1)e1606
     doi.org/10.1002/wcms.1606
  2. Grimme,S.; Hansen,A.; Ehlert,S.; Mewes,J.
     r2SCAN-3c: A 'Swiss army knife' composite electronic-structure method
     J. Chem. Phys., 2021 154 064103
     doi.org/10.1063/5.0040021

List of papers to cite with high priority. The work reported in these papers was absolutely
necessary for this run to complete.
Our perspective: the developers of density functionals and basis sets usually get cited in chemistry papers
Good! But without the algorithms to do something with them, the functionals or basis sets would not do anything.
Hence, in our opinion, the algorithm design and method developments papers are equally worthy of getting cited

  1. Neese,F.
     An improvement of the resolution of the identity approximation for the formation of the Coulomb matrix
     J. Comp. Chem., 2003 24(14)1740-1747
     doi.org/10.1002/jcc.10318
  2. Garcia-Rates,M.; Neese,F.
     Effect of the Solute Cavity on the Solvation Energy and its Derivatives within the Framework of the Gaussian Charge Scheme
     J. Comput. Chem., 2020 41 922-939
     doi.org/10.1002/jcc.26139
  3. Neese,F.
     The SHARK Integral Generation and Digestion System
     J. Comp. Chem., 2022  1-16
     doi.org/10.1002/jcc.26942
  4. Lehtola,S.; Steigemann,C.; Oliveira,M.; Marques,M.
     Recent developments in Libxc - A comprehensive library of functionals for density functional theory
     Software X, 2018 7 
     doi.org/10.1016/j.softx.2017.11.002
  5. Caldeweyher,E.; Bannwarth,C.; Grimme,S.
     Extension of the D3 dispersion coefficient model
     J. Chem. Phys., 2017 147 034112-XXXX
     doi.org/10.1063/1.4993215
  6. Caldeweyher,E.; Ehlert,S.; Hansen,A.; Neugebauer,H.; Spicher,S.; Bannwarth,C.; Grimme,S.
     A generally applicable atomic-charge dependent London dispersion correction
     J. Chem. Phys., 2019 150 154122-XXXX
     doi.org/10.1063/1.5090222
  7. Caldeweyher,E.; Mewes,J.; Ehlert,S.; Grimme,S.
     Extension and evaluation of the D4 London-dispersion model for periodic systems
     Phys. Chem. Chem. Phys., 2020 22(16)8499-8512
     doi.org/10.1039/D0CP00502A

List of suggested additional citations. These are papers that are important in the 'surrounding' of 
of this run, or papers that preceded the highly important papers. If you like your results we are grateful for a citation.

  1. Neese,F.
     The ORCA program system
     WIRES Comput. Molec. Sci., 2012 2(1)73-78
     doi.org/10.1002/wcms.81
  2. Neese,F.
     Software update: the ORCA program system, version 4.0
     WIRES Comput. Molec. Sci., 2018 8(1)1-6
     doi.org/10.1002/wcms.1327
  3. Neese,F.; Wennmohs,F.; Becker,U.; Riplinger,C.
     The ORCA quantum chemistry program package
     J. Chem. Phys., 2020 152 Art. No. L224108
     doi.org/10.1063/5.0004608

List of optional additional citations

  1. Neese,F.
     Approximate second-order SCF convergence for spin unrestricted wavefunctions
     Chem. Phys. Lett., 2000 325(1-3)93-98
     doi.org/10.1016/s0009-2614(00)00662-x

Timings for individual modules:

Sum of individual times          ...       12.529 sec (=   0.209 min)
Startup calculation              ...        0.917 sec (=   0.015 min)   7.3 %
SCF iterations                   ...        6.186 sec (=   0.103 min)  49.4 %
Property calculations            ...        0.104 sec (=   0.002 min)   0.8 %
SCF Gradient evaluation          ...        5.322 sec (=   0.089 min)  42.5 %
                             ****ORCA TERMINATED NORMALLY****
TOTAL RUN TIME: 0 days 0 hours 0 minutes 13 seconds 760 msec
  ------------------------------------------------------------------------
          * successful ORCA run, taking over control again...

         :::::::::::::::::::::::::::::::::::::::::::::::::::::
         ::                  ORCA SUMMARY                   ::
         :::::::::::::::::::::::::::::::::::::::::::::::::::::
         :: total energy            -249.625732275080 Eh    ::
         :: gradient norm              0.001017248251 Eh/a0 ::
         :: HOMO-LUMO gap              0.000000000000 eV    ::
         :::::::::::::::::::::::::::::::::::::::::::::::::::::

      ----------------------------------------------------------- 
     |                       L-ANC optimizer                     |
      ----------------------------------------------------------- 
          low memory version by Sebastian Ehlert

          ...................................................
          :                      SETUP                      :
          :.................................................:
          :   energy convergence        0.5000000E-05 Eh    :
          :   grad. convergence         0.1000000E-02 Eh/a0 :
          :   optimization log               true           :
          :   writing optlog all                1     steps :
          :   Hessian reset                     8     steps :
          :   maximium step len.        1.0000000     a0    :
          :   LBFGS images                      8           :
          ...................................................
 * calculating model hessian...
Using Lindh-Hessian (1995)
 Shifting diagonal of input Hessian by   1.000000000000000E-002
 Lowest  eigenvalues of input Hessian
    0.000000    0.000000    0.000000    0.000000    0.000000    0.000000
    0.013870    0.014280    0.016598    0.024757    0.031104    0.033458
    0.051750    0.056835    0.066628    0.074426    0.078875    0.085076
 Highest eigenvalues
    1.151033    1.181107    1.266277    1.317941    1.374185    1.492441
 

........................................................................
.............................. CYCLE    1 ..............................
........................................................................
                         * ORCA takes the control...
  ------------------------------------------------------------------------

                                 *****************
                                 * O   R   C   A *
                                 *****************

                                            #,                                       
                                            ###                                      
                                            ####                                     
                                            #####                                    
                                            ######                                   
                                           ########,                                 
                                     ,,################,,,,,                         
                               ,,#################################,,                 
                          ,,##########################################,,             
                       ,#########################################, ''#####,          
                    ,#############################################,,   '####,        
                  ,##################################################,,,,####,       
                ,###########''''           ''''###############################       
              ,#####''   ,,,,##########,,,,          '''####'''          '####       
            ,##' ,,,,###########################,,,                        '##       
           ' ,,###''''                  '''############,,,                           
         ,,##''                                '''############,,,,        ,,,,,,###''
      ,#''                                            '''#######################'''  
     '                                                          ''''####''''         
             ,#######,   #######,   ,#######,      ##                                
            ,#'     '#,  ##    ##  ,#'     '#,    #''#        ,####,   ,####,        
            ##       ##  ##   ,#'  ##            #'  '#       #'       #'  '#        
            ##       ##  #######   ##           ,######,      #####,   #    #        
            '#,     ,#'  ##    ##  '#,     ,#' ,#      #,     #,   #   #,  ,#        
             '#######'   ##     ##  '#######'  #'      '#     '####' # '####'        



                #########################################################
                #                        -***-                          #
                #          Department of theory and spectroscopy        #
                #                                                       #
                #                      Frank Neese                      #
                #                                                       #
                #     Directorship, Architecture, Infrastructure        #
                #                    SHARK, DRIVERS                     #
                #        Core code/Algorithms in most modules           #
                #                                                       #
                #        Max Planck Institute fuer Kohlenforschung      #
                #                Kaiser Wilhelm Platz 1                 #
                #                 D-45470 Muelheim/Ruhr                 #
                #                      Germany                          #
                #                                                       #
                #                  All rights reserved                  #
                #                        -***-                          #
                #########################################################


                         Program Version 6.0.0  -   RELEASE  -


 With contributions from (in alphabetic order):
   Daniel Aravena         : Magnetic Suceptibility
   Michael Atanasov       : Ab Initio Ligand Field Theory (pilot matlab implementation)
   Alexander A. Auer      : GIAO ZORA, VPT2 properties, NMR spectrum
   Ute Becker             : All parallelization in ORCA, NUMFREQ, NUMCALC
   Giovanni Bistoni       : ED, misc. LED, open-shell LED, HFLD
   Martin Brehm           : Molecular dynamics
   Dmytro Bykov           : pre 5.0 version of the SCF Hessian
   Marcos Casanova-Páez   : Triplet and SCS-CIS(D). UHF-(DLPNO)-IP/EA/STEOM-CCSD. UHF-CVS-IP/STEOM-CCSD
   Vijay G. Chilkuri      : MRCI spin determinant printing, contributions to CSF-ICE
   Pauline Colinet        : FMM embedding
   Dipayan Datta          : RHF DLPNO-CCSD density
   Achintya Kumar Dutta   : EOM-CC, STEOM-CC
   Nicolas Foglia         : Exact transition moments, OPA infrastructure, MCD improvements
   Dmitry Ganyushin       : Spin-Orbit,Spin-Spin,Magnetic field MRCI
   Miquel Garcia          : C-PCM and meta-GGA Hessian, CCSD/C-PCM, Gaussian charge scheme
   Tiago L. C. Gouveia    : GS-ROHF, GS-ROCIS
   Yang Guo               : DLPNO-NEVPT2, F12-NEVPT2, CIM, IAO-localization
   Andreas Hansen         : Spin unrestricted coupled pair/coupled cluster methods
   Ingolf Harden          : AUTO-CI MPn and infrastructure 
   Benjamin Helmich-Paris : MC-RPA, TRAH-(SCF,CASSCF), AVAS, COSX integrals, SCF dyn. polar.
   Lee Huntington         : MR-EOM, pCC
   Robert Izsak           : Overlap fitted RIJCOSX, COSX-SCS-MP3, EOM
   Riya Kayal             : Wick's Theorem for AUTO-CI, AUTO-CI UHF-CCSDT
   Emily Kempfer          : AUTO-CI, RHF CISDT and CCSDT
   Christian Kollmar      : KDIIS, OOCD, Brueckner-CCSD(T), CCSD density, CASPT2, CASPT2-K, improved NEVPT2
   Axel Koslowski         : Symmetry handling
   Simone Kossmann        : Meta GGA functionals, TD-DFT gradient, OOMP2, (MP2 Hessian; deprecated post 5.0)
   Lucas Lang             : DCDCAS
   Marvin Lechner         : AUTO-CI (C++ implementation), FIC-MRCC
   Spencer Leger          : CASSCF response
   Dagmar Lenk            : GEPOL surface, SMD, ORCA-2-JSON
   Dimitrios Liakos       : Extrapolation schemes; Compound Job, initial MDCI parallelization
   Dimitrios Manganas     : Further ROCIS development; embedding schemes. LFT, Crystal Embedding
   Dimitrios Pantazis     : SARC Basis sets
   Anastasios Papadopoulos: AUTO-CI, single reference methods and gradients
   Taras Petrenko         : pre 6.0 DFT Hessian and TD-DFT gradient, (ASA, deprecated), ECA, 1-Electron XAS/XES, NRVS
   Peter Pinski           : DLPNO-MP2, DLPNO-MP2 Gradient
   Christoph Reimann      : Effective Core Potentials
   Marius Retegan         : Local ZFS, SOC
   Christoph Riplinger    : Optimizer, TS searches, QM/MM, DLPNO-CCSD(T), (RO)-DLPNO pert. Triples
   Michael Roemelt        : Original ROCIS implementation
   Masaaki Saitow         : Open-shell DLPNO-CCSD energy and density
   Barbara Sandhoefer     : DKH picture change effects
   Kantharuban Sivalingam : CASSCF convergence/infrastructure, NEVPT2 and variants, FIC-MRCI
   Bernardo de Souza      : ESD, SOC TD-DFT
   Georgi Stoychev        : AutoAux, RI-MP2 NMR, DLPNO-MP2 response, X2C
   Van Anh Tran           : RI-MP2 g-tensors
   Willem Van den Heuvel  : Paramagnetic NMR
   Zikuan Wang            : NOTCH, Electric field optimization 
   Frank Wennmohs         : Technical directorship and infrastructure
   Hang Xu                : AUTO-CI-Response properties 


 We gratefully acknowledge several colleagues who have allowed us to
 interface, adapt or use parts of their codes:
   Stefan Grimme, W. Hujo, H. Kruse, P. Pracht,  : VdW corrections, initial TS optimization,
                  C. Bannwarth, S. Ehlert,         DFT functionals, gCP, sTDA/sTD-DF
                  L. Wittmann, M. Mueller
   Ed Valeev, F. Pavosevic, A. Kumar             : LibInt (2-el integral package), F12 methods
   Garnet Chan, S. Sharma, J. Yang, R. Olivares  : DMRG
   Ulf Ekstrom                                   : XCFun DFT Library
   Mihaly Kallay                                 : mrcc  (arbitrary order and MRCC methods)
   Frank Weinhold                                : gennbo (NPA and NBO analysis)
   Simon Mueller                                 : openCOSMO-RS
   Christopher J. Cramer and Donald G. Truhlar   : smd solvation model
   Lars Goerigk                                  : TD-DFT with DH, B97 family of functionals
   V. Asgeirsson, H. Jonsson                     : NEB implementation
   FAccTs GmbH                                   : IRC, NEB, NEB-TS, DLPNO-Multilevel, CI-OPT
                                                   MM, QMMM, 2- and 3-layer-ONIOM, Crystal-QMMM,
                                                   LR-CPCM, SF, NACMEs, symmetry and pop. for TD-DFT,
                                                   nearIR, NL-DFT gradient (VV10), updates on ESD,
                                                   ML-optimized integration grids, MBIS, APM,
                                                   GOAT, DOCKER, SOLVATOR, interface openCOSMO-RS
   S Lehtola, MJT Oliveira, MAL Marques          : LibXC Library
   Liviu Ungur et al                             : ANISO software


 Your calculation uses the libint2 library for the computation of 2-el integrals
 For citations please refer to: http://libint.valeyev.net

 Your ORCA version has been built with support for libXC version: 6.2.2
 For citations please refer to: https://libxc.gitlab.io

 This ORCA versions uses:
   CBLAS   interface :  Fast vector & matrix operations
   LAPACKE interface :  Fast linear algebra routines
   SCALAPACK package :  Parallel linear algebra routines
   Shared memory     :  Shared parallel matrices
   BLAS/LAPACK       :  OpenBLAS 0.3.27  USE64BITINT DYNAMIC_ARCH NO_AFFINITY SkylakeX SINGLE_THREADED
        Core in use  :  SkylakeX
   Copyright (c) 2011-2014, The OpenBLAS Project




***************************************
The coordinates will be read from file: xtb_opt.xyz
***************************************


Your calculation utilizes the geometrical counterpoise correction gCP
Please cite in your paper:
H.Kruse, S. Grimme J.Chem.Phys., 136, (2012), 154101 
   

Your calculation utilizes the atom-pairwise dispersion correction
based on EEQ partial charges (D4)


Your calculation utilizes the SMD solvation module
Please cite in your paper:
A.V. Marenich, C.J. Cramer, D.G. Truhlar J. Phys. Chem. B, 113, (2009), 6378 

================================================================================

----- Orbital basis set information -----
Your calculation utilizes the basis: def2-mTZVPP
   Stefan Grimme, Andreas Hansen, Sebastian Ehlert, and Jan-Michael Mewes 
   J. Chem. Phys. 154, 064103 (2021). DOI: 10.1063/5.0040021

----- AuxJ basis set information -----
Your calculation utilizes the auxiliary basis: def2/J
   F. Weigend, Phys. Chem. Chem. Phys. 8, 1057 (2006).

================================================================================
                                        WARNINGS
                       Please study these warnings very carefully!
================================================================================

WARNING: Old DensityContainer found on disk!
         Will remove this file - 
         If you want to keep old densities, please start your calculation with a different basename. 

Using LibXC functional ID 497 : Re-regularized SCAN exchange by Furness et al
[ 1]  J. W. Furness, A. D. Kaplan, J. Ning, J. P. Perdew, and J. Sun.,  J. Phys. Chem. Lett. 11, 8208-8215 (2020)
[ 2]  J. W. Furness, A. D. Kaplan, J. Ning, J. P. Perdew, and J. Sun.,  J. Phys. Chem. Lett. 11, 9248-9248 (2020)
Using LibXC functional ID 498 : Re-regularized SCAN correlation by Furness et al
[ 1]  J. W. Furness, A. D. Kaplan, J. Ning, J. P. Perdew, and J. Sun.,  J. Phys. Chem. Lett. 11, 8208-8215 (2020)
[ 2]  J. W. Furness, A. D. Kaplan, J. Ning, J. P. Perdew, and J. Sun.,  J. Phys. Chem. Lett. 11, 9248-9248 (2020)
Using LibXC functional ID 497 : Re-regularized SCAN exchange by Furness et al
[ 1]  J. W. Furness, A. D. Kaplan, J. Ning, J. P. Perdew, and J. Sun.,  J. Phys. Chem. Lett. 11, 8208-8215 (2020)
[ 2]  J. W. Furness, A. D. Kaplan, J. Ning, J. P. Perdew, and J. Sun.,  J. Phys. Chem. Lett. 11, 9248-9248 (2020)
Using LibXC functional ID 498 : Re-regularized SCAN correlation by Furness et al
[ 1]  J. W. Furness, A. D. Kaplan, J. Ning, J. P. Perdew, and J. Sun.,  J. Phys. Chem. Lett. 11, 8208-8215 (2020)
[ 2]  J. W. Furness, A. D. Kaplan, J. Ning, J. P. Perdew, and J. Sun.,  J. Phys. Chem. Lett. 11, 9248-9248 (2020)

================================================================================
                                       INPUT FILE
================================================================================
NAME = xtb_opt.inp
|  1> ! r2scan-3c def2/J RI DEFGRID2 scfconv7 ENGRAD tightSCF miniprint
|  2> %cpcm
|  3>     smd true
|  4>     smdsolvent "water"
|  5> end
|  6> * xyzfile 0 1 xtb_opt.xyz
|  7> 
|  8>                          ****END OF INPUT****
================================================================================

                     *******************************
                     * Energy+Gradient Calculation *
                     *******************************

---------------------------------
CARTESIAN COORDINATES (ANGSTROEM)
---------------------------------
  C      2.036832   -0.563792   -0.042521
  O      1.287150    0.595184    0.331597
  C     -0.014885    0.644170   -0.262216
  C     -0.988559   -0.361956    0.333376
  N     -2.312961   -0.170810   -0.288706
  H      1.651315   -1.475423    0.431144
  H      3.063928   -0.401371    0.294381
  H      2.033590   -0.697927   -1.133644
  H     -0.384768    1.660313   -0.088238
  H      0.068639    0.490230   -1.351059
  H     -0.598920   -1.382177    0.202133
  H     -1.072717   -0.178059    1.410367
  H     -2.954146   -0.843099    0.120902
  H     -2.239942   -0.439705   -1.266552

----------------------------
CARTESIAN COORDINATES (A.U.)
----------------------------
  NO LB      ZA    FRAG     MASS         X           Y           Z
   0 C     6.0000    0    12.011    3.849055   -1.065413   -0.080353
   1 O     8.0000    0    15.999    2.432362    1.124734    0.626627
   2 C     6.0000    0    12.011   -0.028129    1.217306   -0.495517
   3 C     6.0000    0    12.011   -1.868106   -0.683998    0.629989
   4 N     7.0000    0    14.007   -4.370863   -0.322784   -0.545575
   5 H     1.0000    0     1.008    3.120534   -2.788145    0.814744
   6 H     1.0000    0     1.008    5.789984   -0.758481    0.556300
   7 H     1.0000    0     1.008    3.842928   -1.318891   -2.142276
   8 H     1.0000    0     1.008   -0.727107    3.137538   -0.166745
   9 H     1.0000    0     1.008    0.129709    0.926401   -2.553132
  10 H     1.0000    0     1.008   -1.131794   -2.611936    0.381976
  11 H     1.0000    0     1.008   -2.027142   -0.336483    2.665207
  12 H     1.0000    0     1.008   -5.582527   -1.593226    0.228472
  13 H     1.0000    0     1.008   -4.232877   -0.830922   -2.393437

------------------------------------------------------------------------------
                   ___                                                        
                  /   \      - P O W E R E D   B Y -                         
                 /     \                                                     
                 |  |  |   _    _      __       _____    __    __             
                 |  |  |  | |  | |    /  \     |  _  \  |  |  /  |          
                  \  \/   | |  | |   /    \    | | | |  |  | /  /          
                 / \  \   | |__| |  /  /\  \   | |_| |  |  |/  /          
                |  |  |   |  __  | /  /__\  \  |    /   |      \           
                |  |  |   | |  | | |   __   |  |    \   |  |\   \          
                \     /   | |  | | |  |  |  |  | |\  \  |  | \   \       
                 \___/    |_|  |_| |__|  |__|  |_| \__\ |__|  \__/        
                                                                              
                      - O R C A' S   B I G   F R I E N D -                    
                                      &                                       
                       - I N T E G R A L  F E E D E R -                       
                                                                              
 v1 FN, 2020, v2 2021, v3 2022-2024                                           
------------------------------------------------------------------------------


----------------------
SHARK INTEGRAL PACKAGE
----------------------

Number of atoms                             ...     14
Number of basis functions                   ...    150
Number of shells                            ...     74
Maximum angular momentum                    ...      2
Integral batch strategy                     ... SHARK/LIBINT Hybrid
RI-J (if used) integral strategy            ... SPLIT-RIJ (Revised 2003 algorithm where possible)
Printlevel                                  ...      1
Contraction scheme used                     ... SEGMENTED contraction
Prescreening option                         ... SCHWARTZ
   Thresh                                   ... 3.000e-11
   Tcut                                     ... 1.000e-12
   Tpresel                                  ... 1.000e-12 
Coulomb Range Separation                    ... NOT USED
Exchange Range Separation                   ... NOT USED
Multipole approximations                    ... NOT USED
Finite Nucleus Model                        ... NOT USED
CABS basis                                  ... NOT available
Auxiliary Coulomb fitting basis             ... AVAILABLE
   # of basis functions in Aux-J            ...    344
   # of shells in Aux-J                     ...    120
   Maximum angular momentum in Aux-J        ...      4
Auxiliary J/K fitting basis                 ... NOT available
Auxiliary Correlation fitting basis         ... NOT available
Auxiliary 'external' fitting basis          ... NOT available

Checking pre-screening integrals            ... done (  0.0 sec) Dimension = 74
Check shell pair data                       ... done (  0.0 sec)
Shell pair information
Shell pair cut-off parameter TPreSel        ...   1.0e-12
Total number of shell pairs                 ...      2775
Shell pairs after pre-screening             ...      2636
Total number of primitive shell pairs       ...      9590
Primitive shell pairs kept                  ...      6973
          la=0 lb=0:    887 shell pairs
          la=1 lb=0:    983 shell pairs
          la=1 lb=1:    284 shell pairs
          la=2 lb=0:    291 shell pairs
          la=2 lb=1:    163 shell pairs
          la=2 lb=2:     28 shell pairs

Calculating one electron integrals          ... done (  0.0 sec)
Calculating RI/J V-Matrix + Cholesky decomp.... done (  0.0 sec)
Calculating Nuclear repulsion               ... done (  0.0 sec) ENN=    190.848004272714 Eh

Diagonalization of the overlap matrix:
Smallest eigenvalue                        ... 2.768e-04
Time for diagonalization                   ...    0.002 sec
Threshold for overlap eigenvalues          ... 1.000e-07
Number of eigenvalues below threshold      ... 0
Time for construction of square roots      ...    0.018 sec
Total time needed                          ...    0.031 sec

-------------------
DFT GRID GENERATION
-------------------

General Integration Accuracy     IntAcc      ... 4.388
Radial Grid Type                 RadialGrid  ... OptM3 with GC (2021)
Angular Grid (max. ang.)         AngularGrid ... 4 (Lebedev-302)
Angular grid pruning method      GridPruning ... 4 (adaptive)
Weight generation scheme         WeightScheme... mBecke (2022)
Basis function cutoff            BFCut       ... 1.0000e-11
Integration weight cutoff        WCut        ... 1.0000e-14
Partially contracted basis set               ... off
Rotationally invariant grid construction     ... off
Angular grids for H and He will be reduced by one unit
Diffuse basis detected: some atoms will have their outermost
                        angular grid increased by 1.

Total number of grid points                  ...    59578
Total number of batches                      ...      939
Average number of points per batch           ...       63
Average number of grid points per atom       ...     4256
Initializing property integral containers    ... done (  0.0 sec)

SHARK setup successfully completed in   0.8 seconds

Maximum memory used throughout the entire STARTUP-calculation: 26.4 MB
Occupation numbers will be reassigned to an Aufbau configuration
             **** ENERGY FILE WAS UPDATED (xtb_opt.en.tmp) ****
Finished Guess after   0.3 sec
Maximum memory used throughout the entire GUESS-calculation: 10.2 MB
--------------------
CPCM SOLVATION MODEL
--------------------
CPCM parameters:
  Epsilon                                         ...      78.3550
  Refrac                                          ...       1.3328
  Rsolv                                           ...       1.3000
  Surface type                                    ... GAUSSIAN VDW
  Discretization scheme                           ... Constant charge density
    Threshold for H atoms                         ...       5.0000 (charges/Ang^2)
    Threshold for non-H atoms                     ...       5.0000 (charges/Ang^2)
  Epsilon function type                           ...         CPCM
Solvent:                                          ... WATER
SMD-CDS solvent descriptors:
  Soln                                            ...       1.3328
  Soln25                                          ...       1.3323
  Sola                                            ...       0.0000
  Solb                                            ...       0.0000
  Solg                                            ...       0.0000
  Solc                                            ...       0.0000
  Solh                                            ...       0.0000
Radii:
  Scheme                                          ... Element-dependent radii
  Radius for C  used is    3.4960 Bohr (=   1.8500 Ang.)
  Radius for O  used is    2.8724 Bohr (=   1.5200 Ang.)
  Radius for N  used is    3.5716 Bohr (=   1.8900 Ang.)
  Radius for H  used is    2.2677 Bohr (=   1.2000 Ang.)
Calculating surface                               ...        done! (  0.0s)
Cavity surface points                             ...         1052
Cavity Volume                                     ...     620.1614
Cavity Surface-area                               ...     425.1963
Calculating surface distance matrix               ...        done! (  0.0s)
Performing Cholesky decomposition & store         ...        done! (  0.1s)
Overall time for CPCM initialization              ...                 0.1s

----------------------------------------D-I-I-S--------------------------------------------
Iteration    Energy (Eh)           Delta-E    RMSDP     MaxDP     DIISErr   Damp  Time(sec)
-------------------------------------------------------------------------------------------
               ***  Starting incremental Fock matrix formation  ***
                              *** Initializing SOSCF ***
---------------------------------------S-O-S-C-F--------------------------------------
Iteration    Energy (Eh)           Delta-E    RMSDP     MaxDP     MaxGrad    Time(sec)
--------------------------------------------------------------------------------------
    1    -249.6388408844587445     0.00e+00  3.97e-05  8.46e-04  8.20e-05     1.8
               *** Restarting incremental Fock matrix formation ***
    2    -249.6388525271646870    -1.16e-05  1.89e-05  2.22e-04  8.17e-05     1.8
    3    -249.6388531915855822    -6.64e-07  6.09e-06  1.14e-04  4.00e-05     1.5
    4    -249.6388531477088293     4.39e-08  3.61e-06  7.35e-05  5.83e-05     1.5
                 **** Energy Check signals convergence ****

               *****************************************************
               *                     SUCCESS                       *
               *           SCF CONVERGED AFTER   4 CYCLES          *
               *****************************************************


SMD CDS free energy correction energy :                 2.15335     Kcal/mol
Total Energy after SMD CDS correction =              -249.635421563 Eh
             **** ENERGY FILE WAS UPDATED (xtb_opt.en.tmp) ****

----------------
TOTAL SCF ENERGY
----------------

Total Energy       :       -249.63542156254678 Eh           -6792.92517 eV

Components:
Nuclear Repulsion  :        190.84800427271384 Eh            5193.23822 eV
Electronic Energy  :       -440.46949004770721 Eh          -11985.78417 eV
One Electron Energy:       -716.34079855110974 Eh          -19492.62411 eV
Two Electron Energy:        275.87130850340253 Eh            7506.83994 eV
CPCM Dielectric    :         -0.01736737271547 Eh              -0.47259 eV
SMD CDS (Gcds)     :          0.00343158516204 Eh               0.09338 eV

Virial components:
Potential Energy   :       -498.07811567935539 Eh          -13553.39457 eV
Kinetic Energy     :        248.44269411680864 Eh            6760.46940 eV
Virial Ratio       :          2.00480081513356

DFT components:
N(Alpha)           :       20.999984442187 electrons
N(Beta)            :       20.999984442187 electrons
N(Total)           :       41.999968884373 electrons
E(X)               :      -33.713722287847 Eh       
E(C)               :       -1.324998481091 Eh       
E(XC)              :      -35.038720768938 Eh       

CPCM Solvation Model Properties:
Surface-charge          :         -0.03592036782156
Corrected charge        :          0.00000000000000
Outlying charge corr.   :          0.00011301704960 Eh               0.00308 eV
Free-energy (cav+disp)  :          0.00343158516204 Eh               0.09338 eV

---------------
SCF CONVERGENCE
---------------

  Last Energy change         ...   -4.3877e-08  Tolerance :   1.0000e-07
  Last MAX-Density change    ...    7.3469e-05  Tolerance :   1.0000e-07
  Last RMS-Density change    ...    3.6143e-06  Tolerance :   5.0000e-09
  Last DIIS Error            ...    1.1469e-03  Tolerance :   1.0000e-07
  Last Orbital Gradient      ...    5.8312e-05  Tolerance :   1.0000e-04
  Last Orbital Rotation      ...    2.7555e-05  Tolerance :   1.0000e-04


----------------
ORBITAL ENERGIES
----------------

  NO   OCC          E(Eh)            E(eV) 
   0   2.0000     -18.958813      -515.8955 
   1   2.0000     -14.136779      -384.6813 
   2   2.0000     -10.069656      -274.0093 
   3   2.0000     -10.064215      -273.8612 
   4   2.0000     -10.045754      -273.3589 
   5   2.0000      -0.991941       -26.9921 
   6   2.0000      -0.841797       -22.9065 
   7   2.0000      -0.696598       -18.9554 
   8   2.0000      -0.632651       -17.2153 
   9   2.0000      -0.556374       -15.1397 
  10   2.0000      -0.461419       -12.5558 
  11   2.0000      -0.452389       -12.3101 
  12   2.0000      -0.429110       -11.6767 
  13   2.0000      -0.401013       -10.9121 
  14   2.0000      -0.389371       -10.5953 
  15   2.0000      -0.368924       -10.0389 
  16   2.0000      -0.337516        -9.1843 
  17   2.0000      -0.315763        -8.5923 
  18   2.0000      -0.284817        -7.7503 
  19   2.0000      -0.231168        -6.2904 
  20   2.0000      -0.211310        -5.7500 
  21   0.0000       0.059608         1.6220 
  22   0.0000       0.089524         2.4361 
  23   0.0000       0.116088         3.1589 
  24   0.0000       0.132021         3.5925 
  25   0.0000       0.147886         4.0242 
  26   0.0000       0.148739         4.0474 
  27   0.0000       0.162981         4.4349 
  28   0.0000       0.179298         4.8789 
  29   0.0000       0.193110         5.2548 
  30   0.0000       0.197888         5.3848 
  31   0.0000       0.203737         5.5440 
*Only the first 10 virtual orbitals were printed.
Total SCF time: 0 days 0 hours 0 min 7 sec 
Finished LeanSCF after   7.2 sec

Maximum memory used throughout the entire LEANSCF-calculation: 16.9 MB


-------------------------------------------------------------------------------
                          DFT DISPERSION CORRECTION                            
                                                                               
                                DFTD4 V3.4.0                                   
-------------------------------------------------------------------------------
-------------------------   ----------------
Dispersion correction           -0.002775416
-------------------------   ----------------

------------------   -----------------
gCP correction             0.012458251
------------------   -----------------

-------------------------   --------------------
FINAL SINGLE POINT ENERGY      -249.625738727788
-------------------------   --------------------

------------------------------------------------------------------------------
                         ORCA SCF GRADIENT CALCULATION
------------------------------------------------------------------------------

Nuc. rep. gradient        (SHARK) ... done (  0.0 sec)
HCore & Overlap gradient  (SHARK) ... done (  0.1 sec)
Split-RIJ-J gradient      (SHARK) ... done (  0.7 sec)
XC gradient                       ... done (  3.5 sec)
CPCM gradient                     ... done (  0.4 sec)
SMD gradient                      ... done (  0.0 sec)
Dispersion correction             ... done (  0.0 sec)

-------------------
DISPERSION GRADIENT
-------------------

   1   C   :    0.000055756   -0.000016682   -0.000006674
   2   O   :    0.000040003    0.000015482    0.000004459
   3   C   :    0.000006350    0.000014271   -0.000008072
   4   C   :   -0.000026859   -0.000006519    0.000012752
   5   N   :   -0.000077479   -0.000016276   -0.000014274
   6   H   :    0.000030924   -0.000008414    0.000003579
   7   H   :    0.000025944   -0.000003905    0.000002068
   8   H   :    0.000030880   -0.000004133   -0.000003466
   9   H   :   -0.000002392    0.000020079    0.000001458
  10   H   :    0.000002337    0.000011872   -0.000005962
  11   H   :   -0.000016707   -0.000006106    0.000003725
  12   H   :   -0.000020500    0.000002241    0.000011000
  13   H   :   -0.000021339   -0.000001937   -0.000000955
  14   H   :   -0.000026918    0.000000025    0.000000361

Difference to translation invariance:
           :   -0.0000000000    0.0000000000   -0.0000000000

Difference to rotation invariance:
           :   -0.0000000000    0.0000000000   -0.0000000000

Norm of the Dispersion gradient    ...    0.0001355292
RMS gradient                       ...    0.0000209126
MAX gradient                       ...    0.0000774791
gCP correction                   ... done

------------------
CARTESIAN GRADIENT
------------------

   1   C   :   -0.000157913    0.000152086    0.000113633
   2   O   :    0.000017490   -0.000048932   -0.000160609
   3   C   :    0.000151146    0.000002131    0.000094081
   4   C   :    0.000118407   -0.000070228    0.000001191
   5   N   :   -0.000120208   -0.000049776   -0.000083098
   6   H   :   -0.000037837   -0.000005135    0.000025625
   7   H   :   -0.000000870   -0.000032470    0.000003643
   8   H   :   -0.000005151   -0.000085049   -0.000008929
   9   H   :   -0.000019326    0.000020830    0.000028492
  10   H   :   -0.000051280    0.000038623   -0.000047572
  11   H   :   -0.000005115    0.000020791   -0.000017892
  12   H   :    0.000038413    0.000011103   -0.000002214
  13   H   :    0.000048228   -0.000068794    0.000012274
  14   H   :    0.000024016    0.000114823    0.000041373

Difference to translation invariance:
[...]
One Electron Energy:       -716.14799681507679 Eh          -19487.37771 eV
Two Electron Energy:        275.77919410456690 Eh            7504.33338 eV
CPCM Dielectric    :         -0.01738558733560 Eh              -0.47309 eV
SMD CDS (Gcds)     :          0.00345585550504 Eh               0.09404 eV

Virial components:
Potential Energy   :       -498.07556728412231 Eh          -13553.32522 eV
Kinetic Energy     :        248.44013832504115 Eh            6760.39986 eV
Virial Ratio       :          2.00481118164761

DFT components:
N(Alpha)           :       20.999984009114 electrons
N(Beta)            :       20.999984009114 electrons
N(Total)           :       41.999968018228 electrons
E(X)               :      -33.713197477062 Eh       
E(C)               :       -1.324903763655 Eh       
E(XC)              :      -35.038101240717 Eh       

CPCM Solvation Model Properties:
Surface-charge          :         -0.03594286331088
Corrected charge        :         -0.00000000000000
Outlying charge corr.   :          0.00011311713687 Eh               0.00308 eV
Free-energy (cav+disp)  :          0.00345585550504 Eh               0.09404 eV

---------------
SCF CONVERGENCE
---------------

  Last Energy change         ...    4.2979e-10  Tolerance :   1.0000e-07
  Last MAX-Density change    ...    1.5455e-05  Tolerance :   1.0000e-07
  Last RMS-Density change    ...    6.3794e-07  Tolerance :   5.0000e-09
  Last DIIS Error            ...    1.6806e-05  Tolerance :   1.0000e-07
  Last Orbital Gradient      ...    4.6962e-06  Tolerance :   1.0000e-04
  Last Orbital Rotation      ...    4.4690e-06  Tolerance :   1.0000e-04


----------------
ORBITAL ENERGIES
----------------

  NO   OCC          E(Eh)            E(eV) 
   0   2.0000     -18.958273      -515.8808 
   1   2.0000     -14.136917      -384.6851 
   2   2.0000     -10.069478      -274.0044 
   3   2.0000     -10.064299      -273.8635 
   4   2.0000     -10.045784      -273.3597 
   5   2.0000      -0.991257       -26.9735 
   6   2.0000      -0.841876       -22.9086 
   7   2.0000      -0.696520       -18.9533 
   8   2.0000      -0.632371       -17.2077 
   9   2.0000      -0.556484       -15.1427 
  10   2.0000      -0.461249       -12.5512 
  11   2.0000      -0.452154       -12.3037 
  12   2.0000      -0.428953       -11.6724 
  13   2.0000      -0.401027       -10.9125 
  14   2.0000      -0.389418       -10.5966 
  15   2.0000      -0.368681       -10.0323 
  16   2.0000      -0.337757        -9.1908 
  17   2.0000      -0.315189        -8.5767 
  18   2.0000      -0.284834        -7.7507 
  19   2.0000      -0.231157        -6.2901 
  20   2.0000      -0.211323        -5.7504 
  21   0.0000       0.059568         1.6209 
  22   0.0000       0.089229         2.4280 
  23   0.0000       0.116082         3.1587 
  24   0.0000       0.131966         3.5910 
  25   0.0000       0.147734         4.0200 
  26   0.0000       0.148744         4.0475 
  27   0.0000       0.162805         4.4302 
  28   0.0000       0.179190         4.8760 
  29   0.0000       0.193207         5.2574 
  30   0.0000       0.198321         5.3966 
  31   0.0000       0.203479         5.5369 
*Only the first 10 virtual orbitals were printed.
Total SCF time: 0 days 0 hours 0 min 4 sec 
Finished LeanSCF after   4.2 sec

Maximum memory used throughout the entire LEANSCF-calculation: 16.9 MB


-------------------------------------------------------------------------------
                          DFT DISPERSION CORRECTION                            
                                                                               
                                DFTD4 V3.4.0                                   
-------------------------------------------------------------------------------
-------------------------   ----------------
Dispersion correction           -0.002772202
-------------------------   ----------------

------------------   -----------------
gCP correction             0.012450630
------------------   -----------------

-------------------------   --------------------
FINAL SINGLE POINT ENERGY      -249.625750530713
-------------------------   --------------------

------------------------------------------------------------------------------
                         ORCA SCF GRADIENT CALCULATION
------------------------------------------------------------------------------

Nuc. rep. gradient        (SHARK) ... done (  0.0 sec)
HCore & Overlap gradient  (SHARK) ... done (  0.1 sec)
Split-RIJ-J gradient      (SHARK) ... done (  0.7 sec)
XC gradient                       ... done (  3.2 sec)
CPCM gradient                     ... done (  0.4 sec)
SMD gradient                      ... done (  0.0 sec)
Dispersion correction             ... done (  0.0 sec)

-------------------
DISPERSION GRADIENT
-------------------

   1   C   :    0.000056046   -0.000016481   -0.000006907
   2   O   :    0.000040011    0.000015279    0.000004572
   3   C   :    0.000006342    0.000014270   -0.000008036
   4   C   :   -0.000027261   -0.000006475    0.000012940
   5   N   :   -0.000077319   -0.000016229   -0.000014251
   6   H   :    0.000030991   -0.000008452    0.000003443
   7   H   :    0.000025836   -0.000003888    0.000002052
   8   H   :    0.000030862   -0.000004042   -0.000003495
   9   H   :   -0.000002414    0.000019988    0.000001499
  10   H   :    0.000002384    0.000011719   -0.000005848
  11   H   :   -0.000016888   -0.000006163    0.000003833
  12   H   :   -0.000020544    0.000002285    0.000011008
  13   H   :   -0.000021162   -0.000001896   -0.000001039
  14   H   :   -0.000026884    0.000000084    0.000000229

Difference to translation invariance:
           :   -0.0000000000   -0.0000000000   -0.0000000000

Difference to rotation invariance:
           :    0.0000000000   -0.0000000000   -0.0000000000

Norm of the Dispersion gradient    ...    0.0001355706
RMS gradient                       ...    0.0000209190
MAX gradient                       ...    0.0000773193
gCP correction                   ... done

------------------
CARTESIAN GRADIENT
------------------

   1   C   :    0.000235864   -0.000342806   -0.000133923
   2   O   :    0.000058961    0.000323289    0.000250865
   3   C   :   -0.000299245   -0.000084138   -0.000057337
   4   C   :   -0.000041132    0.000081705   -0.000200499
   5   N   :    0.000315174    0.000200778    0.000183552
   6   H   :    0.000001294    0.000004274    0.000067117
   7   H   :   -0.000006044    0.000058319   -0.000043601
   8   H   :   -0.000052866   -0.000027916    0.000018124
   9   H   :   -0.000033805    0.000050923   -0.000003987
  10   H   :    0.000025319   -0.000028627    0.000014515
  11   H   :   -0.000028982   -0.000032709   -0.000016743
  12   H   :    0.000074344   -0.000018728    0.000043951
  13   H   :   -0.000169930   -0.000121487   -0.000156936
  14   H   :   -0.000078951   -0.000062876    0.000034902

Difference to translation invariance:
           :    0.0000000000    0.0000000000    0.0000000000

Difference to rotation invariance:
           :    0.0000562232   -0.0000101981   -0.0000954260

Norm of the Cartesian gradient     ...    0.0008903291
RMS gradient                       ...    0.0001373808
MAX gradient                       ...    0.0003428065

-------
TIMINGS
-------

Total SCF gradient time     ....        4.798 sec

Densities                   ....       0.000 sec  (  0.0%)
One electron gradient       ....       0.112 sec  (  2.3%)
RI-J Coulomb gradient       ....       0.696 sec  ( 14.5%)
XC gradient                 ....       3.190 sec  ( 66.5%)
CPCM gradient               ....       0.392 sec  (  8.2%)
   A-Matrix (El+Nuc)        ....       0.036 sec  (  0.8%)
   Potential                ....       0.355 sec  (  7.4%)
SMD gradient                ....       0.016 sec  (  0.3%)

Maximum memory used throughout the entire SCFGRAD-calculation: 30.3 MB

------------------------------------------------------------------------------
                              ORCA PROPERTY CALCULATIONS
------------------------------------------------------------------------------

GBWName                                 ... xtb_opt.gbw
Number of atoms                         ...     14
Number of basis functions               ...    150
Max core memory                         ...   1024 MB

Electric properties:
Dipole moment                           ... YES
Quadrupole moment                       ...  NO
Static polarizability (Dipole/Dipole)   ...  NO
Static polarizability (Dipole/Quad.)    ...  NO
Static polarizability (Quad./Quad.)     ...  NO
Static polarizability (Velocity)        ...  NO

Atomic electric properties:
Dipole moment                           ...  NO
Quadrupole moment                       ...  NO
Static polarizability                   ...  NO

Choice of electric origin               ... Center of mass
Position of electric origin             ...     0.003210     0.008426     0.008415

General magnetic properties:
Magnetizability                         ...  NO

EPR properties:
g-Tensor (aka g-matrix)                 ...  NO
Zero-Field splitting spin-orbit         ...  NO
Zero-field splitting spin-spin          ...  NO
Hyperfine couplings                     ...  NO (   0 nuclei)
Quadrupole couplings                    ...  NO (   0 nuclei)
Contact density                         ...  NO (   0 nuclei)

NMR properties:
Chemical shifts                         ...  NO (   0 nuclei)
Spin-rotation constants                 ...  NO (   0 nuclei)
Spin-spin couplings                     ...  NO (   0 nuclei,    0 pairs)

Choice of magnetic origin               ... GIAO
Position of magnetic origin             ...     0.000000     0.000000     0.000000

Properties with geometric perturbations:
SCF Hessian                             ...  NO
IR spectrum                             ...  NO
VCD spectrum                            ...  NO
X-ray spectroscopy properties:
SCF XES/XAS/RIXS spectra                ...  NO


-------------
DIPOLE MOMENT
-------------

Method             : SCF
Type of density    : Electron Density
Multiplicity       :   1
Irrep              :   0
Energy             :  -249.6354289590811675 Eh
Relativity type    : 
Basis              : AO
                                X                 Y                 Z
Electronic contribution:      0.299491817       1.795953050       0.770890428
Nuclear contribution   :     -0.411750666      -3.087248914      -1.336928884
                        -----------------------------------------
Total Dipole Moment    :     -0.112258849      -1.291295864      -0.566038456
                        -----------------------------------------
Magnitude (a.u.)       :      1.414371448
Magnitude (Debye)      :      3.595046517



--------------------
Rotational spectrum 
--------------------
 
Rotational constants in cm-1:             0.465113             0.080944             0.076202 
Rotational constants in MHz :         13943.743257          2426.631005          2284.481529 

Dipole components along the rotational axes: 
x,y,z [a.u.] :    -0.197558    -1.264055     0.602979 
x,y,z [Debye]:    -0.502152    -3.212971     1.532651 

 

Dipole moment calculation done in   0.0 sec 

Maximum memory used throughout the entire PROP-calculation: 8.5 MB

--------------------------------
SUGGESTED CITATIONS FOR THIS RUN
--------------------------------

Below you find a list of papers that are relevant to this ORCA run
We neither can nor want to force you to cite these papers, but we appreciate if you do
You receive ORCA, which is the product of decades of hard work by many enthusiastic individuals, for free
The only thing we kindly ask in return is that you cite our papers,
We deeply appreciate it, if you show your appreciation for ORCA by not just citing the generic ORCA reference.

Please note that relegating all ORCA citations to the supporting information does *not* help us.
SI sections are not indexed - citations you put there will not count into any citation statistics
But we need these citations in order to attract the funding resources that allow us to do what we are doing

Therefore, if you are a happy ORCA user, please consider citing a few of the papers listed below in the main body of your paper

In addition to the list printed below, the program has created the file xtb_opt.bibtex that contains the list in bibtex format
You can import this file easily into all common literature databanks and citation aid programs


List of essential papers. We consider these as the minimum necessary citations

  1. Neese,F.
     Software update: the ORCA program system, version 5.0
     WIRES Comput. Molec. Sci., 2022 12(1)e1606
     doi.org/10.1002/wcms.1606
  2. Grimme,S.; Hansen,A.; Ehlert,S.; Mewes,J.
     r2SCAN-3c: A 'Swiss army knife' composite electronic-structure method
     J. Chem. Phys., 2021 154 064103
     doi.org/10.1063/5.0040021

List of papers to cite with high priority. The work reported in these papers was absolutely
necessary for this run to complete.
Our perspective: the developers of density functionals and basis sets usually get cited in chemistry papers
Good! But without the algorithms to do something with them, the functionals or basis sets would not do anything.
Hence, in our opinion, the algorithm design and method developments papers are equally worthy of getting cited

  1. Neese,F.
     An improvement of the resolution of the identity approximation for the formation of the Coulomb matrix
     J. Comp. Chem., 2003 24(14)1740-1747
     doi.org/10.1002/jcc.10318
  2. Garcia-Rates,M.; Neese,F.
     Effect of the Solute Cavity on the Solvation Energy and its Derivatives within the Framework of the Gaussian Charge Scheme
     J. Comput. Chem., 2020 41 922-939
     doi.org/10.1002/jcc.26139
  3. Neese,F.
     The SHARK Integral Generation and Digestion System
     J. Comp. Chem., 2022  1-16
     doi.org/10.1002/jcc.26942
  4. Lehtola,S.; Steigemann,C.; Oliveira,M.; Marques,M.
     Recent developments in Libxc - A comprehensive library of functionals for density functional theory
     Software X, 2018 7 
     doi.org/10.1016/j.softx.2017.11.002
  5. Caldeweyher,E.; Bannwarth,C.; Grimme,S.
     Extension of the D3 dispersion coefficient model
     J. Chem. Phys., 2017 147 034112-XXXX
     doi.org/10.1063/1.4993215
  6. Caldeweyher,E.; Ehlert,S.; Hansen,A.; Neugebauer,H.; Spicher,S.; Bannwarth,C.; Grimme,S.
     A generally applicable atomic-charge dependent London dispersion correction
     J. Chem. Phys., 2019 150 154122-XXXX
     doi.org/10.1063/1.5090222
  7. Caldeweyher,E.; Mewes,J.; Ehlert,S.; Grimme,S.
     Extension and evaluation of the D4 London-dispersion model for periodic systems
     Phys. Chem. Chem. Phys., 2020 22(16)8499-8512
     doi.org/10.1039/D0CP00502A

List of suggested additional citations. These are papers that are important in the 'surrounding' of 
of this run, or papers that preceded the highly important papers. If you like your results we are grateful for a citation.

  1. Neese,F.
     The ORCA program system
     WIRES Comput. Molec. Sci., 2012 2(1)73-78
     doi.org/10.1002/wcms.81
  2. Neese,F.
     Software update: the ORCA program system, version 4.0
     WIRES Comput. Molec. Sci., 2018 8(1)1-6
     doi.org/10.1002/wcms.1327
  3. Neese,F.; Wennmohs,F.; Becker,U.; Riplinger,C.
     The ORCA quantum chemistry program package
     J. Chem. Phys., 2020 152 Art. No. L224108
     doi.org/10.1063/5.0004608

List of optional additional citations

  1. Neese,F.
     Approximate second-order SCF convergence for spin unrestricted wavefunctions
     Chem. Phys. Lett., 2000 325(1-3)93-98
     doi.org/10.1016/s0009-2614(00)00662-x

Timings for individual modules:

Sum of individual times          ...       10.366 sec (=   0.173 min)
Startup calculation              ...        0.858 sec (=   0.014 min)   8.3 %
SCF iterations                   ...        4.513 sec (=   0.075 min)  43.5 %
Property calculations            ...        0.108 sec (=   0.002 min)   1.0 %
SCF Gradient evaluation          ...        4.887 sec (=   0.081 min)  47.1 %
                             ****ORCA TERMINATED NORMALLY****
TOTAL RUN TIME: 0 days 0 hours 0 minutes 11 seconds 261 msec
  ------------------------------------------------------------------------
          * successful ORCA run, taking over control again...

         :::::::::::::::::::::::::::::::::::::::::::::::::::::
         ::                  ORCA SUMMARY                   ::
         :::::::::::::::::::::::::::::::::::::::::::::::::::::
         :: total energy            -249.625750530713 Eh    ::
         :: gradient norm              0.000890329110 Eh/a0 ::
         :: HOMO-LUMO gap              0.000000000000 eV    ::
         :::::::::::::::::::::::::::::::::::::::::::::::::::::

           -------------------------------------------------
          |                Property Printout                |
           -------------------------------------------------
           -------------------------------------------------
          |                Geometry Summary                 |
           -------------------------------------------------

      molecular mass/u    :       75.1097826
   center of mass at/Å    :        0.0017115       0.0044662       0.0044568
  moments of inertia/u·Å² :        0.3624306E+02   0.2082593E+03   0.2212181E+03
rotational constants/cm⁻¹ :        0.4651272E+00   0.8094540E-01   0.7620367E-01

 * 13 selected distances

     #   Z          #   Z                                           value/Å
     1   6 C        2   8 O                                       1.4311457
     2   8 O        3   6 C                                       1.4325712
     3   6 C        4   6 C                                       1.5213824 (max)
     4   6 C        5   7 N                                       1.4752153
     1   6 C        6   1 H                                       1.0973317
     1   6 C        7   1 H                                       1.0930490
     1   6 C        8   1 H                                       1.0991617
     3   6 C        9   1 H                                       1.0953563
     3   6 C       10   1 H                                       1.1026158
     4   6 C       11   1 H                                       1.1001406
     4   6 C       12   1 H                                       1.0958273
     5   7 N       13   1 H                                       1.0154692 (min)
     5   7 N       14   1 H                                       1.0168315

 * 5 distinct bonds (by element types)

   Z      Z             #   av. dist./Å        max./Å        min./Å
   1 H    6 C           7     1.0976403     1.1026158     1.0930490
   6 C    6 C           1     1.5213824     1.5213824     1.5213824
   1 H    7 N           2     1.0161504     1.0168315     1.0154692
   6 C    7 N           1     1.4752153     1.4752153     1.4752153
   6 C    8 O           2     1.4318585     1.4325712     1.4311457


optimized geometry written to: xtbopt.coord


           -------------------------------------------------
          | TOTAL ENERGY             -249.625750530713 Eh   |
          | GRADIENT NORM               0.000890329110 Eh/α |
           -------------------------------------------------

------------------------------------------------------------------------
 * finished run on 2025/04/11 at 12:02:14.622     
------------------------------------------------------------------------
 total:
 * wall-time:     0 d,  0 h,  1 min, 10.509 sec
 *  cpu-time:     0 d,  0 h,  0 min,  0.979 sec
 * ratio c/w:     0.014 speedup
 SCF:
 * wall-time:     0 d,  0 h,  0 min, 13.905 sec
 *  cpu-time:     0 d,  0 h,  0 min,  0.283 sec
 * ratio c/w:     0.020 speedup
 ANC optimizer:
 * wall-time:     0 d,  0 h,  0 min, 56.568 sec
 *  cpu-time:     0 d,  0 h,  0 min,  0.680 sec
 * ratio c/w:     0.012 speedup

