      -----------------------------------------------------------      
     |                   =====================                   |     
     |                           x T B                           |     
     |                   =====================                   |     
     |                         S. Grimme                         |     
     |          Mulliken Center for Theoretical Chemistry        |     
     |                    University of Bonn                     |     
      -----------------------------------------------------------      

   * xtb version 6.7.1 (edcfbbe) compiled by 'albert@albert-system' on 2024-07-22

   xtb is free software: you can redistribute it and/or modify it under
   the terms of the GNU Lesser General Public License as published by
   the Free Software Foundation, either version 3 of the License, or
   (at your option) any later version.
   
   xtb is distributed in the hope that it will be useful,
   but WITHOUT ANY WARRANTY; without even the implied warranty of
   MERCHANTABILITY or FITNESS FOR A PARTICULAR PURPOSE.  See the
   GNU Lesser General Public License for more details.
   
   Cite this work as:
   * C. Bannwarth, E. Caldeweyher, S. Ehlert, A. Hansen, P. Pracht,
     J. Seibert, S. Spicher, S. Grimme, WIREs Comput. Mol. Sci., 2020, 11,
     e01493. DOI: 10.1002/wcms.1493
   
   for GFN2-xTB:
   * C. Bannwarth, S. Ehlert and S. Grimme., J. Chem. Theory Comput., 2019,
     15, 1652-1671. DOI: 10.1021/acs.jctc.8b01176
   for GFN1-xTB:
   * S. Grimme, C. Bannwarth, P. Shushkov, J. Chem. Theory Comput., 2017,
     13, 1989-2009. DOI: 10.1021/acs.jctc.7b00118
   for GFN0-xTB:
   * P. Pracht, E. Caldeweyher, S. Ehlert, S. Grimme, ChemRxiv, 2019, preprint.
     DOI: 10.26434/chemrxiv.8326202.v1
   for GFN-FF:
   * S. Spicher and S. Grimme, Angew. Chem. Int. Ed., 2020, 59, 15665-15673.
     DOI: 10.1002/anie.202004239
   
   for ALPB and GBSA implicit solvation:
   * S. Ehlert, M. Stahn, S. Spicher, S. Grimme, J. Chem. Theory Comput.,
     2021, 17, 4250-4261. DOI: 10.1021/acs.jctc.1c00471
   
   for ddCOSMO and CPCM-X implicit solvation:
   * M. Stahn, S. Ehlert, S. Grimme, J. Phys. Chem. A,
     2023, XX, XXXX-XXXX. DOI: 10.1021/acs.jpca.3c04382
   
   for DFT-D4:
   * E. Caldeweyher, C. Bannwarth and S. Grimme, J. Chem. Phys., 2017,
     147, 034112. DOI: 10.1063/1.4993215
   * E. Caldeweyher, S. Ehlert, A. Hansen, H. Neugebauer, S. Spicher,
     C. Bannwarth and S. Grimme, J. Chem. Phys., 2019, 150, 154122.
     DOI: 10.1063/1.5090222
   * E. Caldeweyher, J.-M. Mewes, S. Ehlert and S. Grimme, Phys. Chem. Chem. Phys.
     2020, 22, 8499-8512. DOI: 10.1039/D0CP00502A
   
   for sTDA-xTB:
   * S. Grimme and C. Bannwarth, J. Chem. Phys., 2016, 145, 054103.
     DOI: 10.1063/1.4959605
   
   in the mass-spec context:
   * V. Asgeirsson, C. Bauer and S. Grimme, Chem. Sci., 2017, 8, 4879.
     DOI: 10.1039/c7sc00601b
   * J. Koopman and S. Grimme, ACS Omega 2019, 4, 12, 15120-15133.
     DOI: 10.1021/acsomega.9b02011
   
   for metadynamics refer to:
   * S. Grimme, J. Chem. Theory Comput., 2019, 155, 2847-2862
     DOI: 10.1021/acs.jctc.9b00143
   
   for SPH calculations refer to:
   * S. Spicher and S. Grimme, J. Chem. Theory Comput., 2021, 17, 1701-1714
     DOI: 10.1021/acs.jctc.0c01306
   
   for ONIOM refer to:
   * C. Plett, A. Katbashev, S. Ehlert, S. Grimme, M. Bursch,
     Phys. Chem. Chem. Phys., 2023, 25, 17860-17868. DOI: 10.1039/D3CP02178E
   
   for DIPRO refer to:
   * J. Kohn, N. Gildemeister, S. Grimme, D. Fazzi, A. Hansen,
     J. Chem. Phys., 2023, just accepted.
   
   for PTB refer to:
   * S. Grimme, M. Mueller, A. Hansen, J. Chem. Phys., 2023, 158, 124111.
     DOI: 10.1063/5.0137838
   
   with help from (in alphabetical order)
   P. Atkinson, C. Bannwarth, F. Bohle, G. Brandenburg, E. Caldeweyher
   M. Checinski, S. Dohm, S. Ehlert, S. Ehrlich, I. Gerasimov, C. Hölzer
   A. Katbashev, J. Kohn, J. Koopman, C. Lavigne, S. Lehtola, F. März, M. Müller,
   F. Musil, H. Neugebauer, J. Pisarek, C. Plett, P. Pracht, F. Pultar,
   J. Seibert, P. Shushkov, S. Spicher, M. Stahn, M. Steiner, T. Strunk,
   J. Stückrath, T. Rose, and J. Unsleber
   
 * started run on 2025/04/11 at 11:58:12.028     
   ID    Z sym.   atoms
    1    6 C      1, 3, 4
    2    8 O      2
    3    7 N      5
    4    1 H      6-14

           -------------------------------------------------
          |                Calculation Setup                |
           -------------------------------------------------

          program call               : /srv/scratch/z5358697/.xtb/bin/xtb xtb_opt.coord --opt normal --orca -I xtb_opt-xcontrol-inp
          hostname                   : k071
          coordinate file            : xtb_opt.coord
          omp threads                :                    15

           -------------------------------------------------
          |                   Orca driver                   |
           -------------------------------------------------
orca executable           : /apps/z_install_tree/linux-rocky8-ivybridge/gcc-12.2.0/orca-6.0.0-srtngmq3qlimg2qxbl6avaaiffipurdx/bin/orca
orca input file           : xtb_opt.inp
orca input line           : 
orca parallel             : true
orca number of threads    : 15
                         * ORCA takes the control...
  ------------------------------------------------------------------------

                                 *****************
                                 * O   R   C   A *
                                 *****************

                                            #,                                       
                                            ###                                      
                                            ####                                     
                                            #####                                    
                                            ######                                   
                                           ########,                                 
                                     ,,################,,,,,                         
                               ,,#################################,,                 
                          ,,##########################################,,             
                       ,#########################################, ''#####,          
                    ,#############################################,,   '####,        
                  ,##################################################,,,,####,       
                ,###########''''           ''''###############################       
              ,#####''   ,,,,##########,,,,          '''####'''          '####       
            ,##' ,,,,###########################,,,                        '##       
           ' ,,###''''                  '''############,,,                           
         ,,##''                                '''############,,,,        ,,,,,,###''
      ,#''                                            '''#######################'''  
     '                                                          ''''####''''         
             ,#######,   #######,   ,#######,      ##                                
            ,#'     '#,  ##    ##  ,#'     '#,    #''#        ,####,   ,####,        
            ##       ##  ##   ,#'  ##            #'  '#       #'       #'  '#        
            ##       ##  #######   ##           ,######,      #####,   #    #        
            '#,     ,#'  ##    ##  '#,     ,#' ,#      #,     #,   #   #,  ,#        
             '#######'   ##     ##  '#######'  #'      '#     '####' # '####'        



                #########################################################
                #                        -***-                          #
                #          Department of theory and spectroscopy        #
                #                                                       #
                #                      Frank Neese                      #
                #                                                       #
                #     Directorship, Architecture, Infrastructure        #
                #                    SHARK, DRIVERS                     #
                #        Core code/Algorithms in most modules           #
                #                                                       #
                #        Max Planck Institute fuer Kohlenforschung      #
                #                Kaiser Wilhelm Platz 1                 #
                #                 D-45470 Muelheim/Ruhr                 #
                #                      Germany                          #
                #                                                       #
                #                  All rights reserved                  #
                #                        -***-                          #
                #########################################################


                         Program Version 6.0.0  -   RELEASE  -


 With contributions from (in alphabetic order):
   Daniel Aravena         : Magnetic Suceptibility
   Michael Atanasov       : Ab Initio Ligand Field Theory (pilot matlab implementation)
   Alexander A. Auer      : GIAO ZORA, VPT2 properties, NMR spectrum
   Ute Becker             : All parallelization in ORCA, NUMFREQ, NUMCALC
   Giovanni Bistoni       : ED, misc. LED, open-shell LED, HFLD
   Martin Brehm           : Molecular dynamics
   Dmytro Bykov           : pre 5.0 version of the SCF Hessian
   Marcos Casanova-Páez   : Triplet and SCS-CIS(D). UHF-(DLPNO)-IP/EA/STEOM-CCSD. UHF-CVS-IP/STEOM-CCSD
   Vijay G. Chilkuri      : MRCI spin determinant printing, contributions to CSF-ICE
   Pauline Colinet        : FMM embedding
   Dipayan Datta          : RHF DLPNO-CCSD density
   Achintya Kumar Dutta   : EOM-CC, STEOM-CC
   Nicolas Foglia         : Exact transition moments, OPA infrastructure, MCD improvements
   Dmitry Ganyushin       : Spin-Orbit,Spin-Spin,Magnetic field MRCI
   Miquel Garcia          : C-PCM and meta-GGA Hessian, CCSD/C-PCM, Gaussian charge scheme
   Tiago L. C. Gouveia    : GS-ROHF, GS-ROCIS
   Yang Guo               : DLPNO-NEVPT2, F12-NEVPT2, CIM, IAO-localization
   Andreas Hansen         : Spin unrestricted coupled pair/coupled cluster methods
   Ingolf Harden          : AUTO-CI MPn and infrastructure 
   Benjamin Helmich-Paris : MC-RPA, TRAH-(SCF,CASSCF), AVAS, COSX integrals, SCF dyn. polar.
   Lee Huntington         : MR-EOM, pCC
   Robert Izsak           : Overlap fitted RIJCOSX, COSX-SCS-MP3, EOM
   Riya Kayal             : Wick's Theorem for AUTO-CI, AUTO-CI UHF-CCSDT
   Emily Kempfer          : AUTO-CI, RHF CISDT and CCSDT
   Christian Kollmar      : KDIIS, OOCD, Brueckner-CCSD(T), CCSD density, CASPT2, CASPT2-K, improved NEVPT2
   Axel Koslowski         : Symmetry handling
   Simone Kossmann        : Meta GGA functionals, TD-DFT gradient, OOMP2, (MP2 Hessian; deprecated post 5.0)
   Lucas Lang             : DCDCAS
   Marvin Lechner         : AUTO-CI (C++ implementation), FIC-MRCC
   Spencer Leger          : CASSCF response
   Dagmar Lenk            : GEPOL surface, SMD, ORCA-2-JSON
   Dimitrios Liakos       : Extrapolation schemes; Compound Job, initial MDCI parallelization
   Dimitrios Manganas     : Further ROCIS development; embedding schemes. LFT, Crystal Embedding
   Dimitrios Pantazis     : SARC Basis sets
   Anastasios Papadopoulos: AUTO-CI, single reference methods and gradients
   Taras Petrenko         : pre 6.0 DFT Hessian and TD-DFT gradient, (ASA, deprecated), ECA, 1-Electron XAS/XES, NRVS
   Peter Pinski           : DLPNO-MP2, DLPNO-MP2 Gradient
   Christoph Reimann      : Effective Core Potentials
   Marius Retegan         : Local ZFS, SOC
   Christoph Riplinger    : Optimizer, TS searches, QM/MM, DLPNO-CCSD(T), (RO)-DLPNO pert. Triples
   Michael Roemelt        : Original ROCIS implementation
   Masaaki Saitow         : Open-shell DLPNO-CCSD energy and density
   Barbara Sandhoefer     : DKH picture change effects
   Kantharuban Sivalingam : CASSCF convergence/infrastructure, NEVPT2 and variants, FIC-MRCI
   Bernardo de Souza      : ESD, SOC TD-DFT
   Georgi Stoychev        : AutoAux, RI-MP2 NMR, DLPNO-MP2 response, X2C
   Van Anh Tran           : RI-MP2 g-tensors
   Willem Van den Heuvel  : Paramagnetic NMR
   Zikuan Wang            : NOTCH, Electric field optimization 
   Frank Wennmohs         : Technical directorship and infrastructure
   Hang Xu                : AUTO-CI-Response properties 


 We gratefully acknowledge several colleagues who have allowed us to
 interface, adapt or use parts of their codes:
   Stefan Grimme, W. Hujo, H. Kruse, P. Pracht,  : VdW corrections, initial TS optimization,
                  C. Bannwarth, S. Ehlert,         DFT functionals, gCP, sTDA/sTD-DF
                  L. Wittmann, M. Mueller
   Ed Valeev, F. Pavosevic, A. Kumar             : LibInt (2-el integral package), F12 methods
   Garnet Chan, S. Sharma, J. Yang, R. Olivares  : DMRG
   Ulf Ekstrom                                   : XCFun DFT Library
   Mihaly Kallay                                 : mrcc  (arbitrary order and MRCC methods)
   Frank Weinhold                                : gennbo (NPA and NBO analysis)
   Simon Mueller                                 : openCOSMO-RS
   Christopher J. Cramer and Donald G. Truhlar   : smd solvation model
   Lars Goerigk                                  : TD-DFT with DH, B97 family of functionals
   V. Asgeirsson, H. Jonsson                     : NEB implementation
   FAccTs GmbH                                   : IRC, NEB, NEB-TS, DLPNO-Multilevel, CI-OPT
                                                   MM, QMMM, 2- and 3-layer-ONIOM, Crystal-QMMM,
                                                   LR-CPCM, SF, NACMEs, symmetry and pop. for TD-DFT,
                                                   nearIR, NL-DFT gradient (VV10), updates on ESD,
                                                   ML-optimized integration grids, MBIS, APM,
                                                   GOAT, DOCKER, SOLVATOR, interface openCOSMO-RS
   S Lehtola, MJT Oliveira, MAL Marques          : LibXC Library
   Liviu Ungur et al                             : ANISO software


 Your calculation uses the libint2 library for the computation of 2-el integrals
 For citations please refer to: http://libint.valeyev.net

 Your ORCA version has been built with support for libXC version: 6.2.2
 For citations please refer to: https://libxc.gitlab.io

 This ORCA versions uses:
   CBLAS   interface :  Fast vector & matrix operations
   LAPACKE interface :  Fast linear algebra routines
   SCALAPACK package :  Parallel linear algebra routines
   Shared memory     :  Shared parallel matrices
   BLAS/LAPACK       :  OpenBLAS 0.3.27  USE64BITINT DYNAMIC_ARCH NO_AFFINITY SkylakeX SINGLE_THREADED
        Core in use  :  SkylakeX
   Copyright (c) 2011-2014, The OpenBLAS Project




***************************************
The coordinates will be read from file: xtb_opt.xyz
***************************************


Your calculation utilizes the geometrical counterpoise correction gCP
Please cite in your paper:
H.Kruse, S. Grimme J.Chem.Phys., 136, (2012), 154101 
   

Your calculation utilizes the atom-pairwise dispersion correction
based on EEQ partial charges (D4)


Your calculation utilizes the SMD solvation module
Please cite in your paper:
A.V. Marenich, C.J. Cramer, D.G. Truhlar J. Phys. Chem. B, 113, (2009), 6378 

================================================================================

----- Orbital basis set information -----
Your calculation utilizes the basis: def2-mTZVPP
   Stefan Grimme, Andreas Hansen, Sebastian Ehlert, and Jan-Michael Mewes 
   J. Chem. Phys. 154, 064103 (2021). DOI: 10.1063/5.0040021

----- AuxJ basis set information -----
Your calculation utilizes the auxiliary basis: def2/J
   F. Weigend, Phys. Chem. Chem. Phys. 8, 1057 (2006).

================================================================================
                                        WARNINGS
                       Please study these warnings very carefully!
================================================================================

Using LibXC functional ID 497 : Re-regularized SCAN exchange by Furness et al
[ 1]  J. W. Furness, A. D. Kaplan, J. Ning, J. P. Perdew, and J. Sun.,  J. Phys. Chem. Lett. 11, 8208-8215 (2020)
[ 2]  J. W. Furness, A. D. Kaplan, J. Ning, J. P. Perdew, and J. Sun.,  J. Phys. Chem. Lett. 11, 9248-9248 (2020)
Using LibXC functional ID 498 : Re-regularized SCAN correlation by Furness et al
[ 1]  J. W. Furness, A. D. Kaplan, J. Ning, J. P. Perdew, and J. Sun.,  J. Phys. Chem. Lett. 11, 8208-8215 (2020)
[ 2]  J. W. Furness, A. D. Kaplan, J. Ning, J. P. Perdew, and J. Sun.,  J. Phys. Chem. Lett. 11, 9248-9248 (2020)
Using LibXC functional ID 497 : Re-regularized SCAN exchange by Furness et al
[ 1]  J. W. Furness, A. D. Kaplan, J. Ning, J. P. Perdew, and J. Sun.,  J. Phys. Chem. Lett. 11, 8208-8215 (2020)
[ 2]  J. W. Furness, A. D. Kaplan, J. Ning, J. P. Perdew, and J. Sun.,  J. Phys. Chem. Lett. 11, 9248-9248 (2020)
Using LibXC functional ID 498 : Re-regularized SCAN correlation by Furness et al
[ 1]  J. W. Furness, A. D. Kaplan, J. Ning, J. P. Perdew, and J. Sun.,  J. Phys. Chem. Lett. 11, 8208-8215 (2020)
[ 2]  J. W. Furness, A. D. Kaplan, J. Ning, J. P. Perdew, and J. Sun.,  J. Phys. Chem. Lett. 11, 9248-9248 (2020)

================================================================================
                                       INPUT FILE
================================================================================
NAME = xtb_opt.inp
|  1> ! r2scan-3c def2/J RI DEFGRID2 scfconv7 ENGRAD tightSCF miniprint
|  2> %cpcm
|  3>     smd true
|  4>     smdsolvent "water"
|  5> end
|  6> * xyzfile 0 1 xtb_opt.xyz
|  7> 
|  8>                          ****END OF INPUT****
================================================================================

                     *******************************
                     * Energy+Gradient Calculation *
                     *******************************

---------------------------------
CARTESIAN COORDINATES (ANGSTROEM)
---------------------------------
  C      2.241870   -0.218680   -0.094580
  O      0.888660   -0.298404    0.290409
  C      0.088604    0.731211   -0.261776
  C     -1.346940    0.559944    0.254415
  N     -1.979098   -0.688375   -0.130166
  H      2.345545   -0.302555   -1.182467
  H      2.746637   -1.050994    0.389262
  H      2.686098    0.727441    0.233863
  H      0.482094    1.714064    0.035138
  H      0.111026    0.666821   -1.361391
  H     -1.329807    0.601390    1.345541
  H     -1.953456    1.387111   -0.120959
  H     -1.415264   -1.457575    0.217460
  H     -1.996548   -0.762876   -1.142625

----------------------------
CARTESIAN COORDINATES (A.U.)
----------------------------
  NO LB      ZA    FRAG     MASS         X           Y           Z
   0 C     6.0000    0    12.011    4.236520   -0.413245   -0.178731
   1 O     8.0000    0    15.999    1.679324   -0.563901    0.548793
   2 C     6.0000    0    12.011    0.167438    1.381789   -0.494686
   3 C     6.0000    0    12.011   -2.545348    1.058141    0.480774
   4 N     7.0000    0    14.007   -3.739953   -1.300839   -0.245977
   5 H     1.0000    0     1.008    4.432437   -0.571746   -2.234538
   6 H     1.0000    0     1.008    5.190392   -1.986090    0.735599
   7 H     1.0000    0     1.008    5.075990    1.374665    0.441936
   8 H     1.0000    0     1.008    0.911025    3.239112    0.066400
   9 H     1.0000    0     1.008    0.209809    1.260109   -2.572656
  10 H     1.0000    0     1.008   -2.512971    1.136463    2.542704
  11 H     1.0000    0     1.008   -3.691497    2.621261   -0.228580
  12 H     1.0000    0     1.008   -2.674462   -2.754418    0.410940
  13 H     1.0000    0     1.008   -3.772929   -1.441627   -2.159249

------------------------------------------------------------------------------
                   ___                                                        
                  /   \      - P O W E R E D   B Y -                         
                 /     \                                                     
                 |  |  |   _    _      __       _____    __    __             
                 |  |  |  | |  | |    /  \     |  _  \  |  |  /  |          
                  \  \/   | |  | |   /    \    | | | |  |  | /  /          
                 / \  \   | |__| |  /  /\  \   | |_| |  |  |/  /          
                |  |  |   |  __  | /  /__\  \  |    /   |      \           
                |  |  |   | |  | | |   __   |  |    \   |  |\   \          
                \     /   | |  | | |  |  |  |  | |\  \  |  | \   \       
                 \___/    |_|  |_| |__|  |__|  |_| \__\ |__|  \__/        
                                                                              
                      - O R C A' S   B I G   F R I E N D -                    
                                      &                                       
                       - I N T E G R A L  F E E D E R -                       
                                                                              
 v1 FN, 2020, v2 2021, v3 2022-2024                                           
------------------------------------------------------------------------------


----------------------
SHARK INTEGRAL PACKAGE
----------------------

Number of atoms                             ...     14
Number of basis functions                   ...    150
Number of shells                            ...     74
Maximum angular momentum                    ...      2
Integral batch strategy                     ... SHARK/LIBINT Hybrid
RI-J (if used) integral strategy            ... SPLIT-RIJ (Revised 2003 algorithm where possible)
Printlevel                                  ...      1
Contraction scheme used                     ... SEGMENTED contraction
Prescreening option                         ... SCHWARTZ
   Thresh                                   ... 3.000e-11
   Tcut                                     ... 1.000e-12
   Tpresel                                  ... 1.000e-12 
Coulomb Range Separation                    ... NOT USED
Exchange Range Separation                   ... NOT USED
Multipole approximations                    ... NOT USED
Finite Nucleus Model                        ... NOT USED
CABS basis                                  ... NOT available
Auxiliary Coulomb fitting basis             ... AVAILABLE
   # of basis functions in Aux-J            ...    344
   # of shells in Aux-J                     ...    120
   Maximum angular momentum in Aux-J        ...      4
Auxiliary J/K fitting basis                 ... NOT available
Auxiliary Correlation fitting basis         ... NOT available
Auxiliary 'external' fitting basis          ... NOT available

Checking pre-screening integrals            ... done (  0.0 sec) Dimension = 74
Check shell pair data                       ... done (  0.0 sec)
Shell pair information
Shell pair cut-off parameter TPreSel        ...   1.0e-12
Total number of shell pairs                 ...      2775
Shell pairs after pre-screening             ...      2629
Total number of primitive shell pairs       ...      9590
Primitive shell pairs kept                  ...      6885
          la=0 lb=0:    883 shell pairs
          la=1 lb=0:    975 shell pairs
          la=1 lb=1:    287 shell pairs
          la=2 lb=0:    291 shell pairs
          la=2 lb=1:    165 shell pairs
          la=2 lb=2:     28 shell pairs

Calculating one electron integrals          ... done (  0.0 sec)
Calculating RI/J V-Matrix + Cholesky decomp.... done (  0.0 sec)
Calculating Nuclear repulsion               ... done (  0.0 sec) ENN=    192.871288418639 Eh

Diagonalization of the overlap matrix:
Smallest eigenvalue                        ... 3.345e-04
Time for diagonalization                   ...    0.002 sec
Threshold for overlap eigenvalues          ... 1.000e-07
Number of eigenvalues below threshold      ... 0
Time for construction of square roots      ...    0.014 sec
Total time needed                          ...    0.026 sec

-------------------
DFT GRID GENERATION
-------------------

General Integration Accuracy     IntAcc      ... 4.388
Radial Grid Type                 RadialGrid  ... OptM3 with GC (2021)
Angular Grid (max. ang.)         AngularGrid ... 4 (Lebedev-302)
Angular grid pruning method      GridPruning ... 4 (adaptive)
Weight generation scheme         WeightScheme... mBecke (2022)
Basis function cutoff            BFCut       ... 1.0000e-11
Integration weight cutoff        WCut        ... 1.0000e-14
Partially contracted basis set               ... off
Rotationally invariant grid construction     ... off
Angular grids for H and He will be reduced by one unit
Diffuse basis detected: some atoms will have their outermost
                        angular grid increased by 1.

Total number of grid points                  ...    59577
Total number of batches                      ...      938
Average number of points per batch           ...       63
Average number of grid points per atom       ...     4256
Initializing property integral containers    ... done (  0.0 sec)

SHARK setup successfully completed in   1.0 seconds

Maximum memory used throughout the entire STARTUP-calculation: 26.2 MB
Occupation numbers will be reassigned to an Aufbau configuration
             **** ENERGY FILE WAS UPDATED (xtb_opt.en.tmp) ****
Finished Guess after   0.2 sec
Maximum memory used throughout the entire GUESS-calculation: 10.2 MB
--------------------
CPCM SOLVATION MODEL
--------------------
CPCM parameters:
  Epsilon                                         ...      78.3550
  Refrac                                          ...       1.3328
  Rsolv                                           ...       1.3000
  Surface type                                    ... GAUSSIAN VDW
  Discretization scheme                           ... Constant charge density
    Threshold for H atoms                         ...       5.0000 (charges/Ang^2)
    Threshold for non-H atoms                     ...       5.0000 (charges/Ang^2)
  Epsilon function type                           ...         CPCM
Solvent:                                          ... WATER
SMD-CDS solvent descriptors:
  Soln                                            ...       1.3328
  Soln25                                          ...       1.3323
  Sola                                            ...       0.0000
  Solb                                            ...       0.0000
  Solg                                            ...       0.0000
  Solc                                            ...       0.0000
  Solh                                            ...       0.0000
Radii:
  Scheme                                          ... Element-dependent radii
  Radius for C  used is    3.4960 Bohr (=   1.8500 Ang.)
  Radius for O  used is    2.8724 Bohr (=   1.5200 Ang.)
  Radius for N  used is    3.5716 Bohr (=   1.8900 Ang.)
  Radius for H  used is    2.2677 Bohr (=   1.2000 Ang.)
Calculating surface                               ...        done! (  0.0s)
Cavity surface points                             ...         1071
Cavity Volume                                     ...     619.1755
Cavity Surface-area                               ...     429.6113
Calculating surface distance matrix               ...        done! (  0.0s)
Performing Cholesky decomposition & store         ...        done! (  0.0s)
Overall time for CPCM initialization              ...                 0.1s

----------------------------------------D-I-I-S--------------------------------------------
Iteration    Energy (Eh)           Delta-E    RMSDP     MaxDP     DIISErr   Damp  Time(sec)
-------------------------------------------------------------------------------------------
               ***  Starting incremental Fock matrix formation  ***
                              *** Initializing SOSCF ***
---------------------------------------S-O-S-C-F--------------------------------------
Iteration    Energy (Eh)           Delta-E    RMSDP     MaxDP     MaxGrad    Time(sec)
--------------------------------------------------------------------------------------
    1    -249.6420204915337706     0.00e+00  6.21e-06  1.96e-04  1.89e-05     1.7
               *** Restarting incremental Fock matrix formation ***
    2    -249.6420205006641311    -9.13e-09  7.77e-06  2.08e-04  5.01e-05     1.6
    3    -249.6420203514572620     1.49e-07  5.43e-06  1.43e-04  8.98e-05     1.4
    4    -249.6420205918150543    -2.40e-07  5.85e-07  1.08e-05  3.40e-06     1.4
                  *** Gradient check signals convergence ***

               *****************************************************
               *                     SUCCESS                       *
               *           SCF CONVERGED AFTER   4 CYCLES          *
               *****************************************************


SMD CDS free energy correction energy :                 2.09627     Kcal/mol
Total Energy after SMD CDS correction =              -249.638679980 Eh
             **** ENERGY FILE WAS UPDATED (xtb_opt.en.tmp) ****

----------------
TOTAL SCF ENERGY
----------------

Total Energy       :       -249.63867998006080 Eh           -6793.01383 eV

Components:
Nuclear Repulsion  :        192.87128841863878 Eh            5248.29458 eV
Electronic Energy  :       -442.49856550668432 Eh          -12040.99812 eV
One Electron Energy:       -720.36252509429801 Eh          -19602.06086 eV
Two Electron Energy:        277.86395958761369 Eh            7561.06274 eV
CPCM Dielectric    :         -0.01474350376953 Eh              -0.40119 eV
SMD CDS (Gcds)     :          0.00334061175427 Eh               0.09090 eV

Virial components:
Potential Energy   :       -498.18556104836352 Eh          -13556.31831 eV
Kinetic Energy     :        248.54688106830272 Eh            6763.30447 eV
Virial Ratio       :          2.00439272827350

DFT components:
N(Alpha)           :       21.000008519291 electrons
N(Beta)            :       21.000008519291 electrons
N(Total)           :       42.000017038582 electrons
E(X)               :      -33.740231208596 Eh       
E(C)               :       -1.326574447639 Eh       
E(XC)              :      -35.066805656235 Eh       

CPCM Solvation Model Properties:
Surface-charge          :         -0.03620665702524
Corrected charge        :          0.00000000000000
Outlying charge corr.   :          0.00011429614481 Eh               0.00311 eV
Free-energy (cav+disp)  :          0.00334061175427 Eh               0.09090 eV

---------------
SCF CONVERGENCE
---------------

  Last Energy change         ...    2.4036e-07  Tolerance :   1.0000e-07
  Last MAX-Density change    ...    1.0794e-05  Tolerance :   1.0000e-07
  Last RMS-Density change    ...    5.8514e-07  Tolerance :   5.0000e-09
  Last DIIS Error            ...    2.5712e-04  Tolerance :   1.0000e-07
  Last Orbital Gradient      ...    3.4036e-06  Tolerance :   1.0000e-04
  Last Orbital Rotation      ...    4.1812e-06  Tolerance :   1.0000e-04


----------------
ORBITAL ENERGIES
----------------

  NO   OCC          E(Eh)            E(eV) 
   0   2.0000     -18.956054      -515.8205 
   1   2.0000     -14.132032      -384.5522 
   2   2.0000     -10.066195      -273.9151 
   3   2.0000     -10.062481      -273.8140 
   4   2.0000     -10.046157      -273.3698 
   5   2.0000      -1.000301       -27.2196 
   6   2.0000      -0.843500       -22.9528 
   7   2.0000      -0.698044       -18.9947 
   8   2.0000      -0.625923       -17.0322 
   9   2.0000      -0.561368       -15.2756 
  10   2.0000      -0.469946       -12.7879 
  11   2.0000      -0.442023       -12.0281 
  12   2.0000      -0.431507       -11.7419 
  13   2.0000      -0.425540       -11.5795 
  14   2.0000      -0.385018       -10.4769 
  15   2.0000      -0.354390        -9.6434 
  16   2.0000      -0.335526        -9.1301 
  17   2.0000      -0.320999        -8.7348 
  18   2.0000      -0.291012        -7.9188 
  19   2.0000      -0.225291        -6.1305 
  20   2.0000      -0.209278        -5.6947 
  21   0.0000       0.069529         1.8920 
  22   0.0000       0.103220         2.8088 
  23   0.0000       0.125077         3.4035 
  24   0.0000       0.130183         3.5425 
  25   0.0000       0.142589         3.8800 
  26   0.0000       0.147355         4.0097 
  27   0.0000       0.160082         4.3561 
  28   0.0000       0.185597         5.0504 
  29   0.0000       0.191297         5.2054 
  30   0.0000       0.193983         5.2785 
  31   0.0000       0.204540         5.5658 
*Only the first 10 virtual orbitals were printed.
Total SCF time: 0 days 0 hours 0 min 6 sec 
Finished LeanSCF after   6.6 sec

Maximum memory used throughout the entire LEANSCF-calculation: 17.2 MB


-------------------------------------------------------------------------------
                          DFT DISPERSION CORRECTION                            
                                                                               
                                DFTD4 V3.4.0                                   
-------------------------------------------------------------------------------
-------------------------   ----------------
Dispersion correction           -0.002738448
-------------------------   ----------------

------------------   -----------------
gCP correction             0.012736321
------------------   -----------------

-------------------------   --------------------
FINAL SINGLE POINT ENERGY      -249.628682107164
-------------------------   --------------------

------------------------------------------------------------------------------
                         ORCA SCF GRADIENT CALCULATION
------------------------------------------------------------------------------

Nuc. rep. gradient        (SHARK) ... done (  0.0 sec)
HCore & Overlap gradient  (SHARK) ... done (  0.1 sec)
Split-RIJ-J gradient      (SHARK) ... done (  0.6 sec)
XC gradient                       ... done (  3.2 sec)
CPCM gradient                     ... done (  0.4 sec)
SMD gradient                      ... done (  0.0 sec)
Dispersion correction             ... done (  0.0 sec)

-------------------
DISPERSION GRADIENT
-------------------

   1   C   :    0.000068854    0.000001314   -0.000007971
   2   O   :    0.000032758   -0.000003011    0.000005111
   3   C   :    0.000009919    0.000019616   -0.000007777
   4   C   :   -0.000041243    0.000020785    0.000009198
   5   N   :   -0.000061956   -0.000037327   -0.000009377
   6   H   :    0.000028972   -0.000006003   -0.000003523
   7   H   :    0.000027268   -0.000009942    0.000003315
   8   H   :    0.000026033   -0.000003333    0.000001766
   9   H   :    0.000005093    0.000015886    0.000002013
  10   H   :    0.000000095    0.000006449   -0.000006367
  11   H   :   -0.000020613    0.000002098    0.000009264
  12   H   :   -0.000020623    0.000006965    0.000001137
  13   H   :   -0.000029713   -0.000005051    0.000000187
  14   H   :   -0.000024845   -0.000008448    0.000003025

Difference to translation invariance:
           :   -0.0000000000   -0.0000000000   -0.0000000000

Difference to rotation invariance:
           :    0.0000000000    0.0000000000    0.0000000000

Norm of the Dispersion gradient    ...    0.0001392466
RMS gradient                       ...    0.0000214862
MAX gradient                       ...    0.0000688544
gCP correction                   ... done

------------------
CARTESIAN GRADIENT
------------------

   1   C   :   -0.003181581   -0.001604376    0.002565740
   2   O   :    0.009100475    0.007331126   -0.008969856
   3   C   :    0.009750677   -0.004674499    0.000314670
   4   C   :   -0.012286509   -0.001432039    0.004274954
   5   N   :    0.008155054    0.009028363    0.000120265
   6   H   :   -0.001727649    0.000401862    0.002682605
   7   H   :   -0.004480368    0.002109240   -0.000385173
   8   H   :   -0.002704831   -0.002091031   -0.000571346
   9   H   :   -0.000698940   -0.002257458   -0.000207337
  10   H   :    0.000731083   -0.000880141    0.001264277
  11   H   :    0.000203060   -0.003923796   -0.002515327
  12   H   :   -0.000782209   -0.003532133   -0.001295663
  13   H   :   -0.000025126    0.000552368    0.002668279
  14   H   :   -0.002053136    0.000972515    0.000053911

Difference to translation invariance:
           :    0.0000000000   -0.0000000000    0.0000000000

Difference to rotation invariance:
           :   -0.0000295302    0.0000266426    0.0001556655

Norm of the Cartesian gradient     ...    0.0278805766
RMS gradient                       ...    0.0043020664
MAX gradient                       ...    0.0122865091

-------
TIMINGS
-------

Total SCF gradient time     ....        4.709 sec

Densities                   ....       0.000 sec  (  0.0%)
One electron gradient       ....       0.120 sec  (  2.5%)
RI-J Coulomb gradient       ....       0.641 sec  ( 13.6%)
XC gradient                 ....       3.189 sec  ( 67.7%)
CPCM gradient               ....       0.379 sec  (  8.1%)
   A-Matrix (El+Nuc)        ....       0.038 sec  (  0.8%)
   Potential                ....       0.341 sec  (  7.2%)
SMD gradient                ....       0.011 sec  (  0.2%)

Maximum memory used throughout the entire SCFGRAD-calculation: 30.2 MB

------------------------------------------------------------------------------
                              ORCA PROPERTY CALCULATIONS
------------------------------------------------------------------------------

GBWName                                 ... xtb_opt.gbw
Number of atoms                         ...     14
Number of basis functions               ...    150
Max core memory                         ...   1024 MB

Electric properties:
Dipole moment                           ... YES
Quadrupole moment                       ...  NO
Static polarizability (Dipole/Dipole)   ...  NO
Static polarizability (Dipole/Quad.)    ...  NO
Static polarizability (Quad./Quad.)     ...  NO
Static polarizability (Velocity)        ...  NO

Atomic electric properties:
Dipole moment                           ...  NO
Quadrupole moment                       ...  NO
Static polarizability                   ...  NO

Choice of electric origin               ... Center of mass
Position of electric origin             ...    -0.000015     0.000007    -0.000007

General magnetic properties:
Magnetizability                         ...  NO

EPR properties:
g-Tensor (aka g-matrix)                 ...  NO
Zero-Field splitting spin-orbit         ...  NO
Zero-field splitting spin-spin          ...  NO
Hyperfine couplings                     ...  NO (   0 nuclei)
Quadrupole couplings                    ...  NO (   0 nuclei)
Contact density                         ...  NO (   0 nuclei)

NMR properties:
Chemical shifts                         ...  NO (   0 nuclei)
Spin-rotation constants                 ...  NO (   0 nuclei)
Spin-spin couplings                     ...  NO (   0 nuclei,    0 pairs)

Choice of magnetic origin               ... GIAO
Position of magnetic origin             ...     0.000000     0.000000     0.000000

Properties with geometric perturbations:
SCF Hessian                             ...  NO
IR spectrum                             ...  NO
VCD spectrum                            ...  NO
X-ray spectroscopy properties:
SCF XES/XAS/RIXS spectra                ...  NO


-------------
DIPOLE MOMENT
-------------

Method             : SCF
Type of density    : Electron Density
Multiplicity       :   1
Irrep              :   0
Energy             :  -249.6386799800608003 Eh
Relativity type    : 
Basis              : AO
                                X                 Y                 Z
Electronic contribution:     -0.710632450      -0.913619871       0.779578680
Nuclear contribution   :      1.574998030       1.420445290      -1.484506039
                        -----------------------------------------
Total Dipole Moment    :      0.864365580       0.506825420      -0.704927359
                        -----------------------------------------
Magnitude (a.u.)       :      1.225121399
Magnitude (Debye)      :      3.114011122



--------------------
Rotational spectrum 
--------------------
 
Rotational constants in cm-1:             0.432359             0.087768             0.079860 
Rotational constants in MHz :         12961.793854          2631.220703          2394.133138 

Dipole components along the rotational axes: 
x,y,z [a.u.] :    -0.864367     0.506821    -0.704928 
x,y,z [Debye]:    -2.197046     1.288238    -1.791786 

 

Dipole moment calculation done in   0.0 sec 

Maximum memory used throughout the entire PROP-calculation: 8.5 MB

--------------------------------
SUGGESTED CITATIONS FOR THIS RUN
--------------------------------

Below you find a list of papers that are relevant to this ORCA run
We neither can nor want to force you to cite these papers, but we appreciate if you do
You receive ORCA, which is the product of decades of hard work by many enthusiastic individuals, for free
The only thing we kindly ask in return is that you cite our papers,
We deeply appreciate it, if you show your appreciation for ORCA by not just citing the generic ORCA reference.

Please note that relegating all ORCA citations to the supporting information does *not* help us.
SI sections are not indexed - citations you put there will not count into any citation statistics
But we need these citations in order to attract the funding resources that allow us to do what we are doing

Therefore, if you are a happy ORCA user, please consider citing a few of the papers listed below in the main body of your paper

In addition to the list printed below, the program has created the file xtb_opt.bibtex that contains the list in bibtex format
You can import this file easily into all common literature databanks and citation aid programs


List of essential papers. We consider these as the minimum necessary citations

  1. Neese,F.
     Software update: the ORCA program system, version 5.0
     WIRES Comput. Molec. Sci., 2022 12(1)e1606
     doi.org/10.1002/wcms.1606
  2. Grimme,S.; Hansen,A.; Ehlert,S.; Mewes,J.
     r2SCAN-3c: A 'Swiss army knife' composite electronic-structure method
     J. Chem. Phys., 2021 154 064103
     doi.org/10.1063/5.0040021

List of papers to cite with high priority. The work reported in these papers was absolutely
necessary for this run to complete.
Our perspective: the developers of density functionals and basis sets usually get cited in chemistry papers
Good! But without the algorithms to do something with them, the functionals or basis sets would not do anything.
Hence, in our opinion, the algorithm design and method developments papers are equally worthy of getting cited

  1. Neese,F.
     An improvement of the resolution of the identity approximation for the formation of the Coulomb matrix
     J. Comp. Chem., 2003 24(14)1740-1747
     doi.org/10.1002/jcc.10318
  2. Garcia-Rates,M.; Neese,F.
     Effect of the Solute Cavity on the Solvation Energy and its Derivatives within the Framework of the Gaussian Charge Scheme
     J. Comput. Chem., 2020 41 922-939
     doi.org/10.1002/jcc.26139
  3. Neese,F.
     The SHARK Integral Generation and Digestion System
     J. Comp. Chem., 2022  1-16
     doi.org/10.1002/jcc.26942
  4. Lehtola,S.; Steigemann,C.; Oliveira,M.; Marques,M.
     Recent developments in Libxc - A comprehensive library of functionals for density functional theory
     Software X, 2018 7 
     doi.org/10.1016/j.softx.2017.11.002
  5. Caldeweyher,E.; Bannwarth,C.; Grimme,S.
     Extension of the D3 dispersion coefficient model
     J. Chem. Phys., 2017 147 034112-XXXX
     doi.org/10.1063/1.4993215
  6. Caldeweyher,E.; Ehlert,S.; Hansen,A.; Neugebauer,H.; Spicher,S.; Bannwarth,C.; Grimme,S.
     A generally applicable atomic-charge dependent London dispersion correction
     J. Chem. Phys., 2019 150 154122-XXXX
     doi.org/10.1063/1.5090222
  7. Caldeweyher,E.; Mewes,J.; Ehlert,S.; Grimme,S.
     Extension and evaluation of the D4 London-dispersion model for periodic systems
     Phys. Chem. Chem. Phys., 2020 22(16)8499-8512
     doi.org/10.1039/D0CP00502A

List of suggested additional citations. These are papers that are important in the 'surrounding' of 
of this run, or papers that preceded the highly important papers. If you like your results we are grateful for a citation.

  1. Neese,F.
     The ORCA program system
     WIRES Comput. Molec. Sci., 2012 2(1)73-78
     doi.org/10.1002/wcms.81
  2. Neese,F.
     Software update: the ORCA program system, version 4.0
     WIRES Comput. Molec. Sci., 2018 8(1)1-6
     doi.org/10.1002/wcms.1327
  3. Neese,F.; Wennmohs,F.; Becker,U.; Riplinger,C.
     The ORCA quantum chemistry program package
     J. Chem. Phys., 2020 152 Art. No. L224108
     doi.org/10.1063/5.0004608

List of optional additional citations

  1. Neese,F.
     Approximate second-order SCF convergence for spin unrestricted wavefunctions
     Chem. Phys. Lett., 2000 325(1-3)93-98
     doi.org/10.1016/s0009-2614(00)00662-x

Timings for individual modules:

Sum of individual times          ...       12.848 sec (=   0.214 min)
Startup calculation              ...        1.082 sec (=   0.018 min)   8.4 %
SCF iterations                   ...        6.878 sec (=   0.115 min)  53.5 %
Property calculations            ...        0.093 sec (=   0.002 min)   0.7 %
SCF Gradient evaluation          ...        4.794 sec (=   0.080 min)  37.3 %
                             ****ORCA TERMINATED NORMALLY****
TOTAL RUN TIME: 0 days 0 hours 0 minutes 13 seconds 561 msec
  ------------------------------------------------------------------------
          * successful ORCA run, taking over control again...

         :::::::::::::::::::::::::::::::::::::::::::::::::::::
         ::                  ORCA SUMMARY                   ::
         :::::::::::::::::::::::::::::::::::::::::::::::::::::
         :: total energy            -249.628682107164 Eh    ::
         :: gradient norm              0.027880576580 Eh/a0 ::
         :: HOMO-LUMO gap              0.000000000000 eV    ::
         :::::::::::::::::::::::::::::::::::::::::::::::::::::

      ----------------------------------------------------------- 
     |                       L-ANC optimizer                     |
      ----------------------------------------------------------- 
          low memory version by Sebastian Ehlert

          ...................................................
          :                      SETUP                      :
          :.................................................:
          :   energy convergence        0.5000000E-05 Eh    :
          :   grad. convergence         0.1000000E-02 Eh/a0 :
          :   optimization log               true           :
          :   writing optlog all                1     steps :
          :   Hessian reset                     8     steps :
          :   maximium step len.        1.0000000     a0    :
          :   LBFGS images                      8           :
          ...................................................
 * calculating model hessian...
Using Lindh-Hessian (1995)
 Shifting diagonal of input Hessian by   1.000000000000000E-002
 Lowest  eigenvalues of input Hessian
    0.000000    0.000000    0.000000    0.000000    0.000000    0.000000
    0.013784    0.014997    0.019246    0.025719    0.028761    0.032810
    0.041056    0.064925    0.067342    0.076589    0.080565    0.088820
 Highest eigenvalues
    1.149094    1.205757    1.286991    1.358791    1.451957    1.551391
 

........................................................................
.............................. CYCLE    1 ..............................
........................................................................
                         * ORCA takes the control...
  ------------------------------------------------------------------------

                                 *****************
                                 * O   R   C   A *
                                 *****************

                                            #,                                       
                                            ###                                      
                                            ####                                     
                                            #####                                    
                                            ######                                   
                                           ########,                                 
                                     ,,################,,,,,                         
                               ,,#################################,,                 
                          ,,##########################################,,             
                       ,#########################################, ''#####,          
                    ,#############################################,,   '####,        
                  ,##################################################,,,,####,       
                ,###########''''           ''''###############################       
              ,#####''   ,,,,##########,,,,          '''####'''          '####       
            ,##' ,,,,###########################,,,                        '##       
           ' ,,###''''                  '''############,,,                           
         ,,##''                                '''############,,,,        ,,,,,,###''
      ,#''                                            '''#######################'''  
     '                                                          ''''####''''         
             ,#######,   #######,   ,#######,      ##                                
            ,#'     '#,  ##    ##  ,#'     '#,    #''#        ,####,   ,####,        
            ##       ##  ##   ,#'  ##            #'  '#       #'       #'  '#        
            ##       ##  #######   ##           ,######,      #####,   #    #        
            '#,     ,#'  ##    ##  '#,     ,#' ,#      #,     #,   #   #,  ,#        
             '#######'   ##     ##  '#######'  #'      '#     '####' # '####'        



                #########################################################
                #                        -***-                          #
                #          Department of theory and spectroscopy        #
                #                                                       #
                #                      Frank Neese                      #
                #                                                       #
                #     Directorship, Architecture, Infrastructure        #
                #                    SHARK, DRIVERS                     #
                #        Core code/Algorithms in most modules           #
                #                                                       #
                #        Max Planck Institute fuer Kohlenforschung      #
                #                Kaiser Wilhelm Platz 1                 #
                #                 D-45470 Muelheim/Ruhr                 #
                #                      Germany                          #
                #                                                       #
                #                  All rights reserved                  #
                #                        -***-                          #
                #########################################################


                         Program Version 6.0.0  -   RELEASE  -


 With contributions from (in alphabetic order):
   Daniel Aravena         : Magnetic Suceptibility
   Michael Atanasov       : Ab Initio Ligand Field Theory (pilot matlab implementation)
   Alexander A. Auer      : GIAO ZORA, VPT2 properties, NMR spectrum
   Ute Becker             : All parallelization in ORCA, NUMFREQ, NUMCALC
   Giovanni Bistoni       : ED, misc. LED, open-shell LED, HFLD
   Martin Brehm           : Molecular dynamics
   Dmytro Bykov           : pre 5.0 version of the SCF Hessian
   Marcos Casanova-Páez   : Triplet and SCS-CIS(D). UHF-(DLPNO)-IP/EA/STEOM-CCSD. UHF-CVS-IP/STEOM-CCSD
   Vijay G. Chilkuri      : MRCI spin determinant printing, contributions to CSF-ICE
   Pauline Colinet        : FMM embedding
   Dipayan Datta          : RHF DLPNO-CCSD density
   Achintya Kumar Dutta   : EOM-CC, STEOM-CC
   Nicolas Foglia         : Exact transition moments, OPA infrastructure, MCD improvements
   Dmitry Ganyushin       : Spin-Orbit,Spin-Spin,Magnetic field MRCI
   Miquel Garcia          : C-PCM and meta-GGA Hessian, CCSD/C-PCM, Gaussian charge scheme
   Tiago L. C. Gouveia    : GS-ROHF, GS-ROCIS
   Yang Guo               : DLPNO-NEVPT2, F12-NEVPT2, CIM, IAO-localization
   Andreas Hansen         : Spin unrestricted coupled pair/coupled cluster methods
   Ingolf Harden          : AUTO-CI MPn and infrastructure 
   Benjamin Helmich-Paris : MC-RPA, TRAH-(SCF,CASSCF), AVAS, COSX integrals, SCF dyn. polar.
   Lee Huntington         : MR-EOM, pCC
   Robert Izsak           : Overlap fitted RIJCOSX, COSX-SCS-MP3, EOM
   Riya Kayal             : Wick's Theorem for AUTO-CI, AUTO-CI UHF-CCSDT
   Emily Kempfer          : AUTO-CI, RHF CISDT and CCSDT
   Christian Kollmar      : KDIIS, OOCD, Brueckner-CCSD(T), CCSD density, CASPT2, CASPT2-K, improved NEVPT2
   Axel Koslowski         : Symmetry handling
   Simone Kossmann        : Meta GGA functionals, TD-DFT gradient, OOMP2, (MP2 Hessian; deprecated post 5.0)
   Lucas Lang             : DCDCAS
   Marvin Lechner         : AUTO-CI (C++ implementation), FIC-MRCC
   Spencer Leger          : CASSCF response
   Dagmar Lenk            : GEPOL surface, SMD, ORCA-2-JSON
   Dimitrios Liakos       : Extrapolation schemes; Compound Job, initial MDCI parallelization
   Dimitrios Manganas     : Further ROCIS development; embedding schemes. LFT, Crystal Embedding
   Dimitrios Pantazis     : SARC Basis sets
   Anastasios Papadopoulos: AUTO-CI, single reference methods and gradients
   Taras Petrenko         : pre 6.0 DFT Hessian and TD-DFT gradient, (ASA, deprecated), ECA, 1-Electron XAS/XES, NRVS
   Peter Pinski           : DLPNO-MP2, DLPNO-MP2 Gradient
   Christoph Reimann      : Effective Core Potentials
   Marius Retegan         : Local ZFS, SOC
   Christoph Riplinger    : Optimizer, TS searches, QM/MM, DLPNO-CCSD(T), (RO)-DLPNO pert. Triples
   Michael Roemelt        : Original ROCIS implementation
   Masaaki Saitow         : Open-shell DLPNO-CCSD energy and density
   Barbara Sandhoefer     : DKH picture change effects
   Kantharuban Sivalingam : CASSCF convergence/infrastructure, NEVPT2 and variants, FIC-MRCI
   Bernardo de Souza      : ESD, SOC TD-DFT
   Georgi Stoychev        : AutoAux, RI-MP2 NMR, DLPNO-MP2 response, X2C
   Van Anh Tran           : RI-MP2 g-tensors
   Willem Van den Heuvel  : Paramagnetic NMR
   Zikuan Wang            : NOTCH, Electric field optimization 
   Frank Wennmohs         : Technical directorship and infrastructure
   Hang Xu                : AUTO-CI-Response properties 


 We gratefully acknowledge several colleagues who have allowed us to
 interface, adapt or use parts of their codes:
   Stefan Grimme, W. Hujo, H. Kruse, P. Pracht,  : VdW corrections, initial TS optimization,
                  C. Bannwarth, S. Ehlert,         DFT functionals, gCP, sTDA/sTD-DF
                  L. Wittmann, M. Mueller
   Ed Valeev, F. Pavosevic, A. Kumar             : LibInt (2-el integral package), F12 methods
   Garnet Chan, S. Sharma, J. Yang, R. Olivares  : DMRG
   Ulf Ekstrom                                   : XCFun DFT Library
   Mihaly Kallay                                 : mrcc  (arbitrary order and MRCC methods)
   Frank Weinhold                                : gennbo (NPA and NBO analysis)
   Simon Mueller                                 : openCOSMO-RS
   Christopher J. Cramer and Donald G. Truhlar   : smd solvation model
   Lars Goerigk                                  : TD-DFT with DH, B97 family of functionals
   V. Asgeirsson, H. Jonsson                     : NEB implementation
   FAccTs GmbH                                   : IRC, NEB, NEB-TS, DLPNO-Multilevel, CI-OPT
                                                   MM, QMMM, 2- and 3-layer-ONIOM, Crystal-QMMM,
                                                   LR-CPCM, SF, NACMEs, symmetry and pop. for TD-DFT,
                                                   nearIR, NL-DFT gradient (VV10), updates on ESD,
                                                   ML-optimized integration grids, MBIS, APM,
                                                   GOAT, DOCKER, SOLVATOR, interface openCOSMO-RS
   S Lehtola, MJT Oliveira, MAL Marques          : LibXC Library
   Liviu Ungur et al                             : ANISO software


 Your calculation uses the libint2 library for the computation of 2-el integrals
 For citations please refer to: http://libint.valeyev.net

 Your ORCA version has been built with support for libXC version: 6.2.2
 For citations please refer to: https://libxc.gitlab.io

 This ORCA versions uses:
   CBLAS   interface :  Fast vector & matrix operations
   LAPACKE interface :  Fast linear algebra routines
   SCALAPACK package :  Parallel linear algebra routines
   Shared memory     :  Shared parallel matrices
   BLAS/LAPACK       :  OpenBLAS 0.3.27  USE64BITINT DYNAMIC_ARCH NO_AFFINITY SkylakeX SINGLE_THREADED
        Core in use  :  SkylakeX
   Copyright (c) 2011-2014, The OpenBLAS Project




***************************************
The coordinates will be read from file: xtb_opt.xyz
***************************************


Your calculation utilizes the geometrical counterpoise correction gCP
Please cite in your paper:
H.Kruse, S. Grimme J.Chem.Phys., 136, (2012), 154101 
   

Your calculation utilizes the atom-pairwise dispersion correction
based on EEQ partial charges (D4)


Your calculation utilizes the SMD solvation module
Please cite in your paper:
A.V. Marenich, C.J. Cramer, D.G. Truhlar J. Phys. Chem. B, 113, (2009), 6378 

================================================================================

----- Orbital basis set information -----
Your calculation utilizes the basis: def2-mTZVPP
   Stefan Grimme, Andreas Hansen, Sebastian Ehlert, and Jan-Michael Mewes 
   J. Chem. Phys. 154, 064103 (2021). DOI: 10.1063/5.0040021

----- AuxJ basis set information -----
Your calculation utilizes the auxiliary basis: def2/J
   F. Weigend, Phys. Chem. Chem. Phys. 8, 1057 (2006).

================================================================================
                                        WARNINGS
                       Please study these warnings very carefully!
================================================================================

WARNING: Old DensityContainer found on disk!
         Will remove this file - 
         If you want to keep old densities, please start your calculation with a different basename. 

Using LibXC functional ID 497 : Re-regularized SCAN exchange by Furness et al
[ 1]  J. W. Furness, A. D. Kaplan, J. Ning, J. P. Perdew, and J. Sun.,  J. Phys. Chem. Lett. 11, 8208-8215 (2020)
[ 2]  J. W. Furness, A. D. Kaplan, J. Ning, J. P. Perdew, and J. Sun.,  J. Phys. Chem. Lett. 11, 9248-9248 (2020)
Using LibXC functional ID 498 : Re-regularized SCAN correlation by Furness et al
[ 1]  J. W. Furness, A. D. Kaplan, J. Ning, J. P. Perdew, and J. Sun.,  J. Phys. Chem. Lett. 11, 8208-8215 (2020)
[ 2]  J. W. Furness, A. D. Kaplan, J. Ning, J. P. Perdew, and J. Sun.,  J. Phys. Chem. Lett. 11, 9248-9248 (2020)
Using LibXC functional ID 497 : Re-regularized SCAN exchange by Furness et al
[ 1]  J. W. Furness, A. D. Kaplan, J. Ning, J. P. Perdew, and J. Sun.,  J. Phys. Chem. Lett. 11, 8208-8215 (2020)
[ 2]  J. W. Furness, A. D. Kaplan, J. Ning, J. P. Perdew, and J. Sun.,  J. Phys. Chem. Lett. 11, 9248-9248 (2020)
Using LibXC functional ID 498 : Re-regularized SCAN correlation by Furness et al
[ 1]  J. W. Furness, A. D. Kaplan, J. Ning, J. P. Perdew, and J. Sun.,  J. Phys. Chem. Lett. 11, 8208-8215 (2020)
[ 2]  J. W. Furness, A. D. Kaplan, J. Ning, J. P. Perdew, and J. Sun.,  J. Phys. Chem. Lett. 11, 9248-9248 (2020)

================================================================================
                                       INPUT FILE
================================================================================
NAME = xtb_opt.inp
|  1> ! r2scan-3c def2/J RI DEFGRID2 scfconv7 ENGRAD tightSCF miniprint
|  2> %cpcm
|  3>     smd true
|  4>     smdsolvent "water"
|  5> end
|  6> * xyzfile 0 1 xtb_opt.xyz
|  7> 
|  8>                          ****END OF INPUT****
================================================================================

                     *******************************
                     * Energy+Gradient Calculation *
                     *******************************

---------------------------------
CARTESIAN COORDINATES (ANGSTROEM)
---------------------------------
  C      2.241281   -0.218807   -0.093230
  O      0.881632   -0.303751    0.308455
  C      0.083980    0.731541   -0.255476
  C     -1.343887    0.554887    0.250804
  N     -1.993945   -0.698115   -0.132593
  H      2.344236   -0.303470   -1.184612
  H      2.769541   -1.047618    0.381723
  H      2.694020    0.729723    0.229035
  H      0.477292    1.718208    0.039492
  H      0.105805    0.668741   -1.356781
  H     -1.330120    0.621425    1.344023
  H     -1.935794    1.397580   -0.120056
  H     -1.429314   -1.469828    0.206738
  H     -1.995307   -0.771991   -1.145399

----------------------------
CARTESIAN COORDINATES (A.U.)
----------------------------
  NO LB      ZA    FRAG     MASS         X           Y           Z
   0 C     6.0000    0    12.011    4.235407   -0.413484   -0.176180
   1 O     8.0000    0    15.999    1.666043   -0.574007    0.582895
   2 C     6.0000    0    12.011    0.158699    1.382412   -0.482780
   3 C     6.0000    0    12.011   -2.539578    1.048584    0.473952
   4 N     7.0000    0    14.007   -3.768009   -1.319246   -0.250565
   5 H     1.0000    0     1.008    4.429964   -0.573476   -2.238593
   6 H     1.0000    0     1.008    5.233674   -1.979712    0.721352
   7 H     1.0000    0     1.008    5.090960    1.378978    0.432814
   8 H     1.0000    0     1.008    0.901951    3.246943    0.074629
   9 H     1.0000    0     1.008    0.199942    1.263737   -2.563944
  10 H     1.0000    0     1.008   -2.513562    1.174323    2.539836
  11 H     1.0000    0     1.008   -3.658121    2.641043   -0.226873
  12 H     1.0000    0     1.008   -2.701012   -2.777572    0.390678
  13 H     1.0000    0     1.008   -3.770583   -1.458851   -2.164491

------------------------------------------------------------------------------
                   ___                                                        
                  /   \      - P O W E R E D   B Y -                         
                 /     \                                                     
                 |  |  |   _    _      __       _____    __    __             
                 |  |  |  | |  | |    /  \     |  _  \  |  |  /  |          
                  \  \/   | |  | |   /    \    | | | |  |  | /  /          
                 / \  \   | |__| |  /  /\  \   | |_| |  |  |/  /          
                |  |  |   |  __  | /  /__\  \  |    /   |      \           
                |  |  |   | |  | | |   __   |  |    \   |  |\   \          
                \     /   | |  | | |  |  |  |  | |\  \  |  | \   \       
                 \___/    |_|  |_| |__|  |__|  |_| \__\ |__|  \__/        
                                                                              
                      - O R C A' S   B I G   F R I E N D -                    
                                      &                                       
                       - I N T E G R A L  F E E D E R -                       
                                                                              
 v1 FN, 2020, v2 2021, v3 2022-2024                                           
------------------------------------------------------------------------------


----------------------
SHARK INTEGRAL PACKAGE
----------------------

Number of atoms                             ...     14
Number of basis functions                   ...    150
Number of shells                            ...     74
Maximum angular momentum                    ...      2
Integral batch strategy                     ... SHARK/LIBINT Hybrid
RI-J (if used) integral strategy            ... SPLIT-RIJ (Revised 2003 algorithm where possible)
Printlevel                                  ...      1
Contraction scheme used                     ... SEGMENTED contraction
Prescreening option                         ... SCHWARTZ
   Thresh                                   ... 3.000e-11
   Tcut                                     ... 1.000e-12
   Tpresel                                  ... 1.000e-12 
Coulomb Range Separation                    ... NOT USED
Exchange Range Separation                   ... NOT USED
Multipole approximations                    ... NOT USED
Finite Nucleus Model                        ... NOT USED
CABS basis                                  ... NOT available
Auxiliary Coulomb fitting basis             ... AVAILABLE
   # of basis functions in Aux-J            ...    344
   # of shells in Aux-J                     ...    120
   Maximum angular momentum in Aux-J        ...      4
Auxiliary J/K fitting basis                 ... NOT available
Auxiliary Correlation fitting basis         ... NOT available
Auxiliary 'external' fitting basis          ... NOT available

Checking pre-screening integrals            ... done (  0.0 sec) Dimension = 74
Check shell pair data                       ... done (  0.0 sec)
Shell pair information
Shell pair cut-off parameter TPreSel        ...   1.0e-12
Total number of shell pairs                 ...      2775
Shell pairs after pre-screening             ...      2627
Total number of primitive shell pairs       ...      9590
Primitive shell pairs kept                  ...      6879
          la=0 lb=0:    883 shell pairs
          la=1 lb=0:    975 shell pairs
          la=1 lb=1:    285 shell pairs
          la=2 lb=0:    291 shell pairs
          la=2 lb=1:    165 shell pairs
          la=2 lb=2:     28 shell pairs

Calculating one electron integrals          ... done (  0.0 sec)
Calculating RI/J V-Matrix + Cholesky decomp.... done (  0.0 sec)
Calculating Nuclear repulsion               ... done (  0.0 sec) ENN=    192.310742022550 Eh

Diagonalization of the overlap matrix:
Smallest eigenvalue                        ... 3.331e-04
Time for diagonalization                   ...    0.002 sec
Threshold for overlap eigenvalues          ... 1.000e-07
Number of eigenvalues below threshold      ... 0
Time for construction of square roots      ...    0.017 sec
Total time needed                          ...    0.026 sec

-------------------
DFT GRID GENERATION
-------------------

General Integration Accuracy     IntAcc      ... 4.388
Radial Grid Type                 RadialGrid  ... OptM3 with GC (2021)
Angular Grid (max. ang.)         AngularGrid ... 4 (Lebedev-302)
Angular grid pruning method      GridPruning ... 4 (adaptive)
Weight generation scheme         WeightScheme... mBecke (2022)
Basis function cutoff            BFCut       ... 1.0000e-11
Integration weight cutoff        WCut        ... 1.0000e-14
Partially contracted basis set               ... off
Rotationally invariant grid construction     ... off
Angular grids for H and He will be reduced by one unit
Diffuse basis detected: some atoms will have their outermost
                        angular grid increased by 1.

Total number of grid points                  ...    59578
Total number of batches                      ...      937
Average number of points per batch           ...       63
Average number of grid points per atom       ...     4256
Initializing property integral containers    ... done (  0.0 sec)

SHARK setup successfully completed in   0.9 seconds

Maximum memory used throughout the entire STARTUP-calculation: 26.2 MB
Occupation numbers will be reassigned to an Aufbau configuration
             **** ENERGY FILE WAS UPDATED (xtb_opt.en.tmp) ****
Finished Guess after   0.3 sec
Maximum memory used throughout the entire GUESS-calculation: 10.2 MB
--------------------
CPCM SOLVATION MODEL
--------------------
CPCM parameters:
  Epsilon                                         ...      78.3550
  Refrac                                          ...       1.3328
  Rsolv                                           ...       1.3000
  Surface type                                    ... GAUSSIAN VDW
  Discretization scheme                           ... Constant charge density
    Threshold for H atoms                         ...       5.0000 (charges/Ang^2)
    Threshold for non-H atoms                     ...       5.0000 (charges/Ang^2)
  Epsilon function type                           ...         CPCM
Solvent:                                          ... WATER
SMD-CDS solvent descriptors:
  Soln                                            ...       1.3328
  Soln25                                          ...       1.3323
  Sola                                            ...       0.0000
  Solb                                            ...       0.0000
  Solg                                            ...       0.0000
  Solc                                            ...       0.0000
  Solh                                            ...       0.0000
Radii:
  Scheme                                          ... Element-dependent radii
  Radius for C  used is    3.4960 Bohr (=   1.8500 Ang.)
  Radius for O  used is    2.8724 Bohr (=   1.5200 Ang.)
  Radius for N  used is    3.5716 Bohr (=   1.8900 Ang.)
  Radius for H  used is    2.2677 Bohr (=   1.2000 Ang.)
Calculating surface                               ...        done! (  0.0s)
Cavity surface points                             ...         1073
Cavity Volume                                     ...     620.7628
Cavity Surface-area                               ...     430.7332
Calculating surface distance matrix               ...        done! (  0.0s)
Performing Cholesky decomposition & store         ...        done! (  0.1s)
Overall time for CPCM initialization              ...                 0.1s

----------------------------------------D-I-I-S--------------------------------------------
Iteration    Energy (Eh)           Delta-E    RMSDP     MaxDP     DIISErr   Damp  Time(sec)
-------------------------------------------------------------------------------------------
               ***  Starting incremental Fock matrix formation  ***
    1    -249.6423814178299381     0.00e+00  7.66e-05  8.83e-04  4.74e-03  0.700   1.7
    2    -249.6424799443717006    -9.85e-05  6.93e-05  7.49e-04  3.63e-03  0.700   1.5
                               ***Turning on AO-DIIS***
                              *** Initializing SOSCF ***
---------------------------------------S-O-S-C-F--------------------------------------
Iteration    Energy (Eh)           Delta-E    RMSDP     MaxDP     MaxGrad    Time(sec)
--------------------------------------------------------------------------------------
    3    -249.6425525304419466    -7.26e-05  1.83e-04  2.36e-03  2.65e-03     1.6
               *** Restarting incremental Fock matrix formation ***
    4    -249.6427209403424285    -1.68e-04  2.77e-05  4.82e-04  1.23e-04     1.7
    5    -249.6427201767044153     7.64e-07  1.66e-05  3.00e-04  1.98e-04     1.5
    6    -249.6427220469091139    -1.87e-06  4.67e-06  8.86e-05  2.96e-05     1.5
    7    -249.6427220052693201     4.16e-08  2.74e-06  5.63e-05  4.03e-05     1.5
                 **** Energy Check signals convergence ****

               *****************************************************
               *                     SUCCESS                       *
               *           SCF CONVERGED AFTER   7 CYCLES          *
               *****************************************************


SMD CDS free energy correction energy :                 2.03217     Kcal/mol
Total Energy after SMD CDS correction =              -249.639483539 Eh
             **** ENERGY FILE WAS UPDATED (xtb_opt.en.tmp) ****

----------------
TOTAL SCF ENERGY
----------------

Total Energy       :       -249.63948353940103 Eh           -6793.03570 eV

Components:
Nuclear Repulsion  :        192.31074202255019 Eh            5233.04133 eV
Electronic Energy  :       -441.93831515723338 Eh          -12025.75293 eV
One Electron Energy:       -719.26619521239707 Eh          -19572.22820 eV
Two Electron Energy:        277.32788005516369 Eh            7546.47527 eV
CPCM Dielectric    :         -0.01514887058611 Eh              -0.41222 eV
SMD CDS (Gcds)     :          0.00323846586830 Eh               0.08812 eV

Virial components:
Potential Energy   :       -498.11818301220842 Eh          -13554.48486 eV
Kinetic Energy     :        248.47869947280736 Eh            6761.44916 eV
Virial Ratio       :          2.00467156367550

DFT components:
N(Alpha)           :       21.000003030328 electrons
N(Beta)            :       21.000003030328 electrons
N(Total)           :       42.000006060657 electrons
E(X)               :      -33.722427295895 Eh       
E(C)               :       -1.325647369673 Eh       
E(XC)              :      -35.048074665568 Eh       

CPCM Solvation Model Properties:
Surface-charge          :         -0.03625462041763
Corrected charge        :          0.00000000000000
Outlying charge corr.   :          0.00011446321255 Eh               0.00311 eV
Free-energy (cav+disp)  :          0.00323846586830 Eh               0.08812 eV

---------------
SCF CONVERGENCE
---------------

  Last Energy change         ...   -4.1640e-08  Tolerance :   1.0000e-07
  Last MAX-Density change    ...    5.6341e-05  Tolerance :   1.0000e-07
  Last RMS-Density change    ...    2.7378e-06  Tolerance :   5.0000e-09
  Last DIIS Error            ...    2.6474e-03  Tolerance :   1.0000e-07
  Last Orbital Gradient      ...    4.0294e-05  Tolerance :   1.0000e-04
  Last Orbital Rotation      ...    2.4431e-05  Tolerance :   1.0000e-04


----------------
ORBITAL ENERGIES
----------------

  NO   OCC          E(Eh)            E(eV) 
   0   2.0000     -18.957747      -515.8665 
   1   2.0000     -14.133768      -384.5994 
   2   2.0000     -10.067148      -273.9410 
   3   2.0000     -10.063922      -273.8532 
   4   2.0000     -10.046870      -273.3892 
   5   2.0000      -0.996499       -27.1161 
   6   2.0000      -0.841622       -22.9017 
   7   2.0000      -0.698357       -19.0033 
   8   2.0000      -0.626671       -17.0526 
   9   2.0000      -0.560831       -15.2610 
  10   2.0000      -0.468064       -12.7367 
  11   2.0000      -0.440836       -11.9958 
  12   2.0000      -0.429164       -11.6782 
  13   2.0000      -0.423941       -11.5360 
  14   2.0000      -0.384424       -10.4607 
  15   2.0000      -0.354251        -9.6396 
  16   2.0000      -0.333749        -9.0818 
  17   2.0000      -0.319610        -8.6970 
  18   2.0000      -0.292806        -7.9676 
  19   2.0000      -0.226574        -6.1654 
  20   2.0000      -0.212250        -5.7756 
  21   0.0000       0.067851         1.8463 
  22   0.0000       0.103326         2.8116 
  23   0.0000       0.123473         3.3599 
  24   0.0000       0.127534         3.4704 
  25   0.0000       0.141732         3.8567 
  26   0.0000       0.147695         4.0190 
  27   0.0000       0.158719         4.3190 
  28   0.0000       0.184200         5.0123 
  29   0.0000       0.191437         5.2093 
  30   0.0000       0.194045         5.2802 
  31   0.0000       0.203537         5.5385 
*Only the first 10 virtual orbitals were printed.
Total SCF time: 0 days 0 hours 0 min 11 sec 
Finished LeanSCF after  11.6 sec

Maximum memory used throughout the entire LEANSCF-calculation: 17.2 MB


-------------------------------------------------------------------------------
                          DFT DISPERSION CORRECTION                            
                                                                               
                                DFTD4 V3.4.0                                   
-------------------------------------------------------------------------------
-------------------------   ----------------
Dispersion correction           -0.002735040
-------------------------   ----------------

------------------   -----------------
gCP correction             0.012519547
------------------   -----------------

-------------------------   --------------------
FINAL SINGLE POINT ENERGY      -249.629699032683
-------------------------   --------------------

------------------------------------------------------------------------------
                         ORCA SCF GRADIENT CALCULATION
------------------------------------------------------------------------------

Nuc. rep. gradient        (SHARK) ... done (  0.0 sec)
HCore & Overlap gradient  (SHARK) ... done (  0.1 sec)
Split-RIJ-J gradient      (SHARK) ... done (  0.7 sec)
XC gradient                       ... done (  3.4 sec)
CPCM gradient                     ... done (  0.4 sec)
SMD gradient                      ... done (  0.0 sec)
Dispersion correction             ... done (  0.0 sec)

-------------------
DISPERSION GRADIENT
-------------------

   1   C   :    0.000068672    0.000001243   -0.000007931
   2   O   :    0.000032984   -0.000002720    0.000005222
   3   C   :    0.000010406    0.000019889   -0.000007808
   4   C   :   -0.000041384    0.000020734    0.000009260
   5   N   :   -0.000061579   -0.000037694   -0.000009838
   6   H   :    0.000029016   -0.000006026   -0.000003187
   7   H   :    0.000026858   -0.000009630    0.000003119
   8   H   :    0.000025843   -0.000003722    0.000001662
   9   H   :    0.000004844    0.000015772    0.000002043
  10   H   :   -0.000000018    0.000006584   -0.000006160
  11   H   :   -0.000020362    0.000002264    0.000009313
  12   H   :   -0.000020507    0.000007199    0.000001091
  13   H   :   -0.000029709   -0.000005313    0.000000299
  14   H   :   -0.000025062   -0.000008580    0.000002916

Difference to translation invariance:
           :    0.0000000000    0.0000000000   -0.0000000000

Difference to rotation invariance:
           :    0.0000000000   -0.0000000000    0.0000000000

Norm of the Dispersion gradient    ...    0.0001391446
RMS gradient                       ...    0.0000214705
MAX gradient                       ...    0.0000686719
gCP correction                   ... done

------------------
CARTESIAN GRADIENT
------------------

   1   C   :   -0.002287979   -0.000495976    0.001207724
   2   O   :    0.000017291    0.002893357   -0.002843223
   3   C   :    0.006181646   -0.001005870    0.000927699
   4   C   :   -0.006068054   -0.003049553    0.000881048
   5   N   :    0.003966837    0.002016590   -0.000708170
   6   H   :    0.000351807    0.000160818    0.000367958
   7   H   :   -0.001007192    0.000482258   -0.000065170
   8   H   :   -0.000090355   -0.000422039   -0.000260297
   9   H   :    0.000166734   -0.000119530   -0.000301370
  10   H   :   -0.000662143    0.000056979    0.000066526
  11   H   :    0.000834692   -0.000763219   -0.000658173
[...]
One Electron Energy:       -718.39404011048714 Eh          -19548.49566 eV
Two Electron Energy:        276.89177640145726 Eh            7534.60829 eV
CPCM Dielectric    :         -0.01570919349820 Eh              -0.42747 eV
SMD CDS (Gcds)     :          0.00314149870433 Eh               0.08548 eV

Virial components:
Potential Energy   :       -498.08876114066277 Eh          -13553.68425 eV
Kinetic Energy     :        248.44903684208867 Eh            6760.64200 eV
Virial Ratio       :          2.00479248167600

DFT components:
N(Alpha)           :       20.999999826431 electrons
N(Beta)            :       20.999999826431 electrons
N(Total)           :       41.999999652862 electrons
E(X)               :      -33.713757881003 Eh       
E(C)               :       -1.325096860147 Eh       
E(XC)              :      -35.038854741150 Eh       

CPCM Solvation Model Properties:
Surface-charge          :         -0.03619312270861
Corrected charge        :         -0.00000000000000
Outlying charge corr.   :          0.00011402317331 Eh               0.00310 eV
Free-energy (cav+disp)  :          0.00314149870433 Eh               0.08548 eV

---------------
SCF CONVERGENCE
---------------

  Last Energy change         ...    5.0670e-10  Tolerance :   1.0000e-07
  Last MAX-Density change    ...    2.1291e-05  Tolerance :   1.0000e-07
  Last RMS-Density change    ...    1.0699e-06  Tolerance :   5.0000e-09
  Last DIIS Error            ...    2.6358e-05  Tolerance :   1.0000e-07
  Last Orbital Gradient      ...    6.0201e-06  Tolerance :   1.0000e-04
  Last Orbital Rotation      ...    9.4040e-06  Tolerance :   1.0000e-04


----------------
ORBITAL ENERGIES
----------------

  NO   OCC          E(Eh)            E(eV) 
   0   2.0000     -18.957763      -515.8670 
   1   2.0000     -14.134871      -384.6294 
   2   2.0000     -10.067739      -273.9571 
   3   2.0000     -10.064628      -273.8724 
   4   2.0000     -10.047652      -273.4105 
   5   2.0000      -0.993037       -27.0219 
   6   2.0000      -0.840777       -22.8787 
   7   2.0000      -0.698439       -19.0055 
   8   2.0000      -0.627369       -17.0716 
   9   2.0000      -0.561074       -15.2676 
  10   2.0000      -0.466029       -12.6813 
  11   2.0000      -0.439732       -11.9657 
  12   2.0000      -0.427742       -11.6395 
  13   2.0000      -0.422659       -11.5011 
  14   2.0000      -0.383634       -10.4392 
  15   2.0000      -0.354359        -9.6426 
  16   2.0000      -0.333429        -9.0731 
  17   2.0000      -0.319891        -8.7047 
  18   2.0000      -0.293662        -7.9910 
  19   2.0000      -0.226830        -6.1724 
  20   2.0000      -0.215293        -5.8584 
  21   0.0000       0.065988         1.7956 
  22   0.0000       0.102317         2.7842 
  23   0.0000       0.122766         3.3406 
  24   0.0000       0.126804         3.4505 
  25   0.0000       0.141692         3.8556 
  26   0.0000       0.147138         4.0038 
  27   0.0000       0.156862         4.2684 
  28   0.0000       0.183608         4.9962 
  29   0.0000       0.190560         5.1854 
  30   0.0000       0.194131         5.2826 
  31   0.0000       0.203273         5.5314 
*Only the first 10 virtual orbitals were printed.
Total SCF time: 0 days 0 hours 0 min 3 sec 
Finished LeanSCF after   4.0 sec

Maximum memory used throughout the entire LEANSCF-calculation: 17.1 MB


-------------------------------------------------------------------------------
                          DFT DISPERSION CORRECTION                            
                                                                               
                                DFTD4 V3.4.0                                   
-------------------------------------------------------------------------------
-------------------------   ----------------
Dispersion correction           -0.002733599
-------------------------   ----------------

------------------   -----------------
gCP correction             0.012477176
------------------   -----------------

-------------------------   --------------------
FINAL SINGLE POINT ENERGY      -249.629980721864
-------------------------   --------------------

------------------------------------------------------------------------------
                         ORCA SCF GRADIENT CALCULATION
------------------------------------------------------------------------------

Nuc. rep. gradient        (SHARK) ... done (  0.0 sec)
HCore & Overlap gradient  (SHARK) ... done (  0.1 sec)
Split-RIJ-J gradient      (SHARK) ... done (  0.7 sec)
XC gradient                       ... done (  3.2 sec)
CPCM gradient                     ... done (  0.4 sec)
SMD gradient                      ... done (  0.0 sec)
Dispersion correction             ... done (  0.0 sec)

-------------------
DISPERSION GRADIENT
-------------------

   1   C   :    0.000067631    0.000001375   -0.000008210
   2   O   :    0.000033807   -0.000002430    0.000005485
   3   C   :    0.000011309    0.000019122   -0.000007686
   4   C   :   -0.000041881    0.000020631    0.000009386
   5   N   :   -0.000060903   -0.000037380   -0.000010717
   6   H   :    0.000029368   -0.000005982   -0.000003211
   7   H   :    0.000026424   -0.000009381    0.000003034
   8   H   :    0.000025674   -0.000003736    0.000001571
   9   H   :    0.000004801    0.000015592    0.000002376
  10   H   :    0.000000173    0.000006250   -0.000005675
  11   H   :   -0.000020254    0.000002370    0.000009383
  12   H   :   -0.000020544    0.000007314    0.000001053
  13   H   :   -0.000029930   -0.000005251    0.000000354
  14   H   :   -0.000025676   -0.000008494    0.000002857

Difference to translation invariance:
           :   -0.0000000000   -0.0000000000   -0.0000000000

Difference to rotation invariance:
           :    0.0000000000    0.0000000000   -0.0000000000

Norm of the Dispersion gradient    ...    0.0001386724
RMS gradient                       ...    0.0000213976
MAX gradient                       ...    0.0000676308
gCP correction                   ... done

------------------
CARTESIAN GRADIENT
------------------

   1   C   :    0.000219471   -0.000013461    0.000005457
   2   O   :    0.000046253   -0.000168619   -0.000041930
   3   C   :   -0.000065230    0.000169237   -0.000108029
   4   C   :    0.000027167    0.000167093    0.000163275
   5   N   :   -0.000164539    0.000039841    0.000050614
   6   H   :   -0.000026084    0.000078457    0.000052596
   7   H   :   -0.000109585    0.000070842   -0.000044452
   8   H   :   -0.000066855   -0.000005768    0.000056263
   9   H   :    0.000036018   -0.000089746   -0.000014191
  10   H   :   -0.000003036   -0.000066424    0.000044845
  11   H   :   -0.000001099   -0.000035847   -0.000104722
  12   H   :    0.000026652   -0.000086053   -0.000081325
  13   H   :    0.000062849   -0.000036205   -0.000003858
  14   H   :    0.000018020   -0.000023347    0.000025457

Difference to translation invariance:
           :    0.0000000000   -0.0000000000    0.0000000000

Difference to rotation invariance:
           :   -0.0001263561   -0.0000695047    0.0001357183

Norm of the Cartesian gradient     ...    0.0005457553
RMS gradient                       ...    0.0000842119
MAX gradient                       ...    0.0002194710

-------
TIMINGS
-------

Total SCF gradient time     ....        4.768 sec

Densities                   ....       0.000 sec  (  0.0%)
One electron gradient       ....       0.114 sec  (  2.4%)
RI-J Coulomb gradient       ....       0.674 sec  ( 14.1%)
XC gradient                 ....       3.206 sec  ( 67.2%)
CPCM gradient               ....       0.375 sec  (  7.9%)
   A-Matrix (El+Nuc)        ....       0.038 sec  (  0.8%)
   Potential                ....       0.337 sec  (  7.1%)
SMD gradient                ....       0.020 sec  (  0.4%)

Maximum memory used throughout the entire SCFGRAD-calculation: 30.2 MB

------------------------------------------------------------------------------
                              ORCA PROPERTY CALCULATIONS
------------------------------------------------------------------------------

GBWName                                 ... xtb_opt.gbw
Number of atoms                         ...     14
Number of basis functions               ...    150
Max core memory                         ...   1024 MB

Electric properties:
Dipole moment                           ... YES
Quadrupole moment                       ...  NO
Static polarizability (Dipole/Dipole)   ...  NO
Static polarizability (Dipole/Quad.)    ...  NO
Static polarizability (Quad./Quad.)     ...  NO
Static polarizability (Velocity)        ...  NO

Atomic electric properties:
Dipole moment                           ...  NO
Quadrupole moment                       ...  NO
Static polarizability                   ...  NO

Choice of electric origin               ... Center of mass
Position of electric origin             ...    -0.008690    -0.008971     0.022796

General magnetic properties:
Magnetizability                         ...  NO

EPR properties:
g-Tensor (aka g-matrix)                 ...  NO
Zero-Field splitting spin-orbit         ...  NO
Zero-field splitting spin-spin          ...  NO
Hyperfine couplings                     ...  NO (   0 nuclei)
Quadrupole couplings                    ...  NO (   0 nuclei)
Contact density                         ...  NO (   0 nuclei)

NMR properties:
Chemical shifts                         ...  NO (   0 nuclei)
Spin-rotation constants                 ...  NO (   0 nuclei)
Spin-spin couplings                     ...  NO (   0 nuclei,    0 pairs)

Choice of magnetic origin               ... GIAO
Position of magnetic origin             ...     0.000000     0.000000     0.000000

Properties with geometric perturbations:
SCF Hessian                             ...  NO
IR spectrum                             ...  NO
VCD spectrum                            ...  NO
X-ray spectroscopy properties:
SCF XES/XAS/RIXS spectra                ...  NO


-------------
DIPOLE MOMENT
-------------

Method             : SCF
Type of density    : Electron Density
Multiplicity       :   1
Irrep              :   0
Energy             :  -249.6397242985740661 Eh
Relativity type    : 
Basis              : AO
                                X                 Y                 Z
Electronic contribution:     -0.723853991      -0.935723639       0.884623374
Nuclear contribution   :      1.639192898       1.486619910      -1.646433072
                        -----------------------------------------
Total Dipole Moment    :      0.915338907       0.550896271      -0.761809698
                        -----------------------------------------
Magnitude (a.u.)       :      1.312130341
Magnitude (Debye)      :      3.335170276



--------------------
Rotational spectrum 
--------------------
 
Rotational constants in cm-1:             0.427904             0.086693             0.079106 
Rotational constants in MHz :         12828.226673          2598.990559          2371.545163 

Dipole components along the rotational axes: 
x,y,z [a.u.] :     0.912004    -0.539626    -0.773782 
x,y,z [Debye]:     2.318131    -1.371620    -1.966797 

 

Dipole moment calculation done in   0.0 sec 

Maximum memory used throughout the entire PROP-calculation: 8.5 MB

--------------------------------
SUGGESTED CITATIONS FOR THIS RUN
--------------------------------

Below you find a list of papers that are relevant to this ORCA run
We neither can nor want to force you to cite these papers, but we appreciate if you do
You receive ORCA, which is the product of decades of hard work by many enthusiastic individuals, for free
The only thing we kindly ask in return is that you cite our papers,
We deeply appreciate it, if you show your appreciation for ORCA by not just citing the generic ORCA reference.

Please note that relegating all ORCA citations to the supporting information does *not* help us.
SI sections are not indexed - citations you put there will not count into any citation statistics
But we need these citations in order to attract the funding resources that allow us to do what we are doing

Therefore, if you are a happy ORCA user, please consider citing a few of the papers listed below in the main body of your paper

In addition to the list printed below, the program has created the file xtb_opt.bibtex that contains the list in bibtex format
You can import this file easily into all common literature databanks and citation aid programs


List of essential papers. We consider these as the minimum necessary citations

  1. Neese,F.
     Software update: the ORCA program system, version 5.0
     WIRES Comput. Molec. Sci., 2022 12(1)e1606
     doi.org/10.1002/wcms.1606
  2. Grimme,S.; Hansen,A.; Ehlert,S.; Mewes,J.
     r2SCAN-3c: A 'Swiss army knife' composite electronic-structure method
     J. Chem. Phys., 2021 154 064103
     doi.org/10.1063/5.0040021

List of papers to cite with high priority. The work reported in these papers was absolutely
necessary for this run to complete.
Our perspective: the developers of density functionals and basis sets usually get cited in chemistry papers
Good! But without the algorithms to do something with them, the functionals or basis sets would not do anything.
Hence, in our opinion, the algorithm design and method developments papers are equally worthy of getting cited

  1. Neese,F.
     An improvement of the resolution of the identity approximation for the formation of the Coulomb matrix
     J. Comp. Chem., 2003 24(14)1740-1747
     doi.org/10.1002/jcc.10318
  2. Garcia-Rates,M.; Neese,F.
     Effect of the Solute Cavity on the Solvation Energy and its Derivatives within the Framework of the Gaussian Charge Scheme
     J. Comput. Chem., 2020 41 922-939
     doi.org/10.1002/jcc.26139
  3. Neese,F.
     The SHARK Integral Generation and Digestion System
     J. Comp. Chem., 2022  1-16
     doi.org/10.1002/jcc.26942
  4. Lehtola,S.; Steigemann,C.; Oliveira,M.; Marques,M.
     Recent developments in Libxc - A comprehensive library of functionals for density functional theory
     Software X, 2018 7 
     doi.org/10.1016/j.softx.2017.11.002
  5. Caldeweyher,E.; Bannwarth,C.; Grimme,S.
     Extension of the D3 dispersion coefficient model
     J. Chem. Phys., 2017 147 034112-XXXX
     doi.org/10.1063/1.4993215
  6. Caldeweyher,E.; Ehlert,S.; Hansen,A.; Neugebauer,H.; Spicher,S.; Bannwarth,C.; Grimme,S.
     A generally applicable atomic-charge dependent London dispersion correction
     J. Chem. Phys., 2019 150 154122-XXXX
     doi.org/10.1063/1.5090222
  7. Caldeweyher,E.; Mewes,J.; Ehlert,S.; Grimme,S.
     Extension and evaluation of the D4 London-dispersion model for periodic systems
     Phys. Chem. Chem. Phys., 2020 22(16)8499-8512
     doi.org/10.1039/D0CP00502A

List of suggested additional citations. These are papers that are important in the 'surrounding' of 
of this run, or papers that preceded the highly important papers. If you like your results we are grateful for a citation.

  1. Neese,F.
     The ORCA program system
     WIRES Comput. Molec. Sci., 2012 2(1)73-78
     doi.org/10.1002/wcms.81
  2. Neese,F.
     Software update: the ORCA program system, version 4.0
     WIRES Comput. Molec. Sci., 2018 8(1)1-6
     doi.org/10.1002/wcms.1327
  3. Neese,F.; Wennmohs,F.; Becker,U.; Riplinger,C.
     The ORCA quantum chemistry program package
     J. Chem. Phys., 2020 152 Art. No. L224108
     doi.org/10.1063/5.0004608

List of optional additional citations

  1. Neese,F.
     Approximate second-order SCF convergence for spin unrestricted wavefunctions
     Chem. Phys. Lett., 2000 325(1-3)93-98
     doi.org/10.1016/s0009-2614(00)00662-x

Timings for individual modules:

Sum of individual times          ...       10.147 sec (=   0.169 min)
Startup calculation              ...        0.819 sec (=   0.014 min)   8.1 %
SCF iterations                   ...        4.371 sec (=   0.073 min)  43.1 %
Property calculations            ...        0.105 sec (=   0.002 min)   1.0 %
SCF Gradient evaluation          ...        4.852 sec (=   0.081 min)  47.8 %
                             ****ORCA TERMINATED NORMALLY****
TOTAL RUN TIME: 0 days 0 hours 0 minutes 10 seconds 932 msec
  ------------------------------------------------------------------------
          * successful ORCA run, taking over control again...

         :::::::::::::::::::::::::::::::::::::::::::::::::::::
         ::                  ORCA SUMMARY                   ::
         :::::::::::::::::::::::::::::::::::::::::::::::::::::
         :: total energy            -249.629980721864 Eh    ::
         :: gradient norm              0.000545755293 Eh/a0 ::
         :: HOMO-LUMO gap              0.000000000000 eV    ::
         :::::::::::::::::::::::::::::::::::::::::::::::::::::

           -------------------------------------------------
          |                Property Printout                |
           -------------------------------------------------
           -------------------------------------------------
          |                Geometry Summary                 |
           -------------------------------------------------

      molecular mass/u    :       75.1097826
   center of mass at/Å    :       -0.0045909      -0.0047514       0.0120672
  moments of inertia/u·Å² :        0.3939457E+02   0.1944473E+03   0.2130959E+03
rotational constants/cm⁻¹ :        0.4279177E+00   0.8669513E-01   0.7910821E-01

 * 13 selected distances

     #   Z          #   Z                                           value/Å
     1   6 C        2   8 O                                       1.4267091
     2   8 O        3   6 C                                       1.4327229
     3   6 C        4   6 C                                       1.5154579 (max)
     4   6 C        5   7 N                                       1.4722715
     1   6 C        6   1 H                                       1.0995018
     1   6 C        7   1 H                                       1.0926009
     1   6 C        8   1 H                                       1.0997124
     3   6 C        9   1 H                                       1.1023926
     3   6 C       10   1 H                                       1.1028551
     4   6 C       11   1 H                                       1.0960960
     4   6 C       12   1 H                                       1.0956396
     5   7 N       13   1 H                                       1.0162582 (min)
     5   7 N       14   1 H                                       1.0171705

 * 5 distinct bonds (by element types)

   Z      Z             #   av. dist./Å        max./Å        min./Å
   1 H    6 C           7     1.0983998     1.1028551     1.0926009
   6 C    6 C           1     1.5154579     1.5154579     1.5154579
   1 H    7 N           2     1.0167144     1.0171705     1.0162582
   6 C    7 N           1     1.4722715     1.4722715     1.4722715
   6 C    8 O           2     1.4297160     1.4327229     1.4267091


optimized geometry written to: xtbopt.coord


           -------------------------------------------------
          | TOTAL ENERGY             -249.629980721864 Eh   |
          | GRADIENT NORM               0.000545755293 Eh/α |
           -------------------------------------------------

------------------------------------------------------------------------
 * finished run on 2025/04/11 at 11:59:59.590     
------------------------------------------------------------------------
 total:
 * wall-time:     0 d,  0 h,  1 min, 47.561 sec
 *  cpu-time:     0 d,  0 h,  0 min,  2.940 sec
 * ratio c/w:     0.027 speedup
 SCF:
 * wall-time:     0 d,  0 h,  0 min, 13.604 sec
 *  cpu-time:     0 d,  0 h,  0 min,  1.649 sec
 * ratio c/w:     0.121 speedup
 ANC optimizer:
 * wall-time:     0 d,  0 h,  1 min, 33.945 sec
 *  cpu-time:     0 d,  0 h,  0 min,  1.266 sec
 * ratio c/w:     0.013 speedup

