      -----------------------------------------------------------      
     |                   =====================                   |     
     |                           x T B                           |     
     |                   =====================                   |     
     |                         S. Grimme                         |     
     |          Mulliken Center for Theoretical Chemistry        |     
     |                    University of Bonn                     |     
      -----------------------------------------------------------      

   * xtb version 6.7.1 (edcfbbe) compiled by 'albert@albert-system' on 2024-07-22

   xtb is free software: you can redistribute it and/or modify it under
   the terms of the GNU Lesser General Public License as published by
   the Free Software Foundation, either version 3 of the License, or
   (at your option) any later version.
   
   xtb is distributed in the hope that it will be useful,
   but WITHOUT ANY WARRANTY; without even the implied warranty of
   MERCHANTABILITY or FITNESS FOR A PARTICULAR PURPOSE.  See the
   GNU Lesser General Public License for more details.
   
   Cite this work as:
   * C. Bannwarth, E. Caldeweyher, S. Ehlert, A. Hansen, P. Pracht,
     J. Seibert, S. Spicher, S. Grimme, WIREs Comput. Mol. Sci., 2020, 11,
     e01493. DOI: 10.1002/wcms.1493
   
   for GFN2-xTB:
   * C. Bannwarth, S. Ehlert and S. Grimme., J. Chem. Theory Comput., 2019,
     15, 1652-1671. DOI: 10.1021/acs.jctc.8b01176
   for GFN1-xTB:
   * S. Grimme, C. Bannwarth, P. Shushkov, J. Chem. Theory Comput., 2017,
     13, 1989-2009. DOI: 10.1021/acs.jctc.7b00118
   for GFN0-xTB:
   * P. Pracht, E. Caldeweyher, S. Ehlert, S. Grimme, ChemRxiv, 2019, preprint.
     DOI: 10.26434/chemrxiv.8326202.v1
   for GFN-FF:
   * S. Spicher and S. Grimme, Angew. Chem. Int. Ed., 2020, 59, 15665-15673.
     DOI: 10.1002/anie.202004239
   
   for ALPB and GBSA implicit solvation:
   * S. Ehlert, M. Stahn, S. Spicher, S. Grimme, J. Chem. Theory Comput.,
     2021, 17, 4250-4261. DOI: 10.1021/acs.jctc.1c00471
   
   for ddCOSMO and CPCM-X implicit solvation:
   * M. Stahn, S. Ehlert, S. Grimme, J. Phys. Chem. A,
     2023, XX, XXXX-XXXX. DOI: 10.1021/acs.jpca.3c04382
   
   for DFT-D4:
   * E. Caldeweyher, C. Bannwarth and S. Grimme, J. Chem. Phys., 2017,
     147, 034112. DOI: 10.1063/1.4993215
   * E. Caldeweyher, S. Ehlert, A. Hansen, H. Neugebauer, S. Spicher,
     C. Bannwarth and S. Grimme, J. Chem. Phys., 2019, 150, 154122.
     DOI: 10.1063/1.5090222
   * E. Caldeweyher, J.-M. Mewes, S. Ehlert and S. Grimme, Phys. Chem. Chem. Phys.
     2020, 22, 8499-8512. DOI: 10.1039/D0CP00502A
   
   for sTDA-xTB:
   * S. Grimme and C. Bannwarth, J. Chem. Phys., 2016, 145, 054103.
     DOI: 10.1063/1.4959605
   
   in the mass-spec context:
   * V. Asgeirsson, C. Bauer and S. Grimme, Chem. Sci., 2017, 8, 4879.
     DOI: 10.1039/c7sc00601b
   * J. Koopman and S. Grimme, ACS Omega 2019, 4, 12, 15120-15133.
     DOI: 10.1021/acsomega.9b02011
   
   for metadynamics refer to:
   * S. Grimme, J. Chem. Theory Comput., 2019, 155, 2847-2862
     DOI: 10.1021/acs.jctc.9b00143
   
   for SPH calculations refer to:
   * S. Spicher and S. Grimme, J. Chem. Theory Comput., 2021, 17, 1701-1714
     DOI: 10.1021/acs.jctc.0c01306
   
   for ONIOM refer to:
   * C. Plett, A. Katbashev, S. Ehlert, S. Grimme, M. Bursch,
     Phys. Chem. Chem. Phys., 2023, 25, 17860-17868. DOI: 10.1039/D3CP02178E
   
   for DIPRO refer to:
   * J. Kohn, N. Gildemeister, S. Grimme, D. Fazzi, A. Hansen,
     J. Chem. Phys., 2023, just accepted.
   
   for PTB refer to:
   * S. Grimme, M. Mueller, A. Hansen, J. Chem. Phys., 2023, 158, 124111.
     DOI: 10.1063/5.0137838
   
   with help from (in alphabetical order)
   P. Atkinson, C. Bannwarth, F. Bohle, G. Brandenburg, E. Caldeweyher
   M. Checinski, S. Dohm, S. Ehlert, S. Ehrlich, I. Gerasimov, C. Hölzer
   A. Katbashev, J. Kohn, J. Koopman, C. Lavigne, S. Lehtola, F. März, M. Müller,
   F. Musil, H. Neugebauer, J. Pisarek, C. Plett, P. Pracht, F. Pultar,
   J. Seibert, P. Shushkov, S. Spicher, M. Stahn, M. Steiner, T. Strunk,
   J. Stückrath, T. Rose, and J. Unsleber
   
 * started run on 2025/04/11 at 11:14:59.217     
   ID    Z sym.   atoms
    1    6 C      1-5
    2    8 O      6, 7
    3    1 H      8-17

           -------------------------------------------------
          |                Calculation Setup                |
           -------------------------------------------------

          program call               : /srv/scratch/z5358697/.xtb/bin/xtb gas.coord --gfn2 --sp --chrg 0 --norestart --parallel 1
          hostname                   : k114
          coordinate file            : gas.coord
          omp threads                :                     1


           -------------------------------------------------
          |                 G F N 2 - x T B                 |
           -------------------------------------------------

        Reference                      10.1021/acs.jctc.8b01176
      * Hamiltonian:
        H0-scaling (s, p, d)           1.850000    2.230000    2.230000
        zeta-weighting                 0.500000
      * Dispersion:
        s8                             2.700000
        a1                             0.520000
        a2                             5.000000
        s9                             5.000000
      * Repulsion:
        kExp                           1.500000    1.000000
        rExp                           1.000000
      * Coulomb:
        alpha                          2.000000
        third order                    shell-resolved
        anisotropic                    true
        a3                             3.000000
        a5                             4.000000
        cn-shift                       1.200000
        cn-exp                         4.000000
        max-rad                        5.000000


          ...................................................
          :                      SETUP                      :
          :.................................................:
          :  # basis functions                  38          :
          :  # atomic orbitals                  38          :
          :  # shells                           24          :
          :  # electrons                        42          :
          :  max. iterations                   250          :
          :  Hamiltonian                  GFN2-xTB          :
          :  restarted?                      false          :
          :  GBSA solvation                  false          :
          :  PC potential                    false          :
          :  electronic temp.          300.0000000     K    :
          :  accuracy                    1.0000000          :
          :  -> integral cutoff          0.2500000E+02      :
          :  -> integral neglect         0.1000000E-07      :
          :  -> SCF convergence          0.1000000E-05 Eh   :
          :  -> wf. convergence          0.1000000E-03 e    :
          :  Broyden damping             0.4000000          :
          :  net charge                          0          :
          :  unpaired electrons                  0          :
          ...................................................

 iter      E             dE          RMSdq      gap      omega  full diag
   1    -24.1683214 -0.241683E+02  0.361E+00    5.98       0.0  T
   2    -24.2212392 -0.529178E-01  0.190E+00    4.71       1.0  T
   3    -24.2249518 -0.371265E-02  0.110E+00    5.08       1.0  T
   4    -24.2269618 -0.200998E-02  0.164E-01    4.70       1.0  T
   5    -24.2271234 -0.161571E-03  0.787E-02    4.76       1.0  T
   6    -24.2271280 -0.466248E-05  0.261E-02    4.76       1.0  T
   7    -24.2271307 -0.267574E-05  0.595E-03    4.77       4.1  T
   8    -24.2271308 -0.610251E-07  0.209E-03    4.77      11.6  T
   9    -24.2271308 -0.576513E-08  0.761E-04    4.77      31.9  T
  10    -24.2271308 -0.128666E-08  0.210E-04    4.77     115.5  T

   *** convergence criteria satisfied after 10 iterations ***

         #    Occupation            Energy/Eh            Energy/eV
      -------------------------------------------------------------
         1        2.0000           -0.7467331             -20.3196
       ...           ...                  ...                  ...
        15        2.0000           -0.4766374             -12.9700
        16        2.0000           -0.4567280             -12.4282
        17        2.0000           -0.4543126             -12.3625
        18        2.0000           -0.4416880             -12.0189
        19        2.0000           -0.4387119             -11.9380
        20        2.0000           -0.4362215             -11.8702
        21        2.0000           -0.4078349             -11.0978 (HOMO)
        22                         -0.2325908              -6.3291 (LUMO)
        23                          0.0347689               0.9461
        24                          0.0824688               2.2441
        25                          0.1058954               2.8816
        26                          0.1130210               3.0755
       ...                                ...                  ...
        38                          0.6257158              17.0266
      -------------------------------------------------------------
                  HL-Gap            0.1752441 Eh            4.7686 eV
             Fermi-level           -0.3202129 Eh           -8.7134 eV

 SCC (total)                   0 d,  0 h,  0 min,  0.011 sec
 SCC setup                      ...        0 min,  0.000 sec (  2.081%)
 Dispersion                     ...        0 min,  0.000 sec (  0.928%)
 classical contributions        ...        0 min,  0.000 sec (  0.217%)
 integral evaluation            ...        0 min,  0.001 sec ( 11.540%)
 iterations                     ...        0 min,  0.006 sec ( 50.471%)
 molecular gradient             ...        0 min,  0.004 sec ( 33.006%)
 printout                       ...        0 min,  0.000 sec (  1.611%)

         :::::::::::::::::::::::::::::::::::::::::::::::::::::
         ::                     SUMMARY                     ::
         :::::::::::::::::::::::::::::::::::::::::::::::::::::
         :: total energy             -23.953817495947 Eh    ::
         :: gradient norm              0.029756820746 Eh/a0 ::
         :: HOMO-LUMO gap              4.768634709453 eV    ::
         ::.................................................::
         :: SCC energy               -24.227098582992 Eh    ::
         :: -> isotropic ES            0.051562480106 Eh    ::
         :: -> anisotropic ES          0.002942939421 Eh    ::
         :: -> anisotropic XC          0.005526540427 Eh    ::
         :: -> dispersion             -0.010364815079 Eh    ::
         :: repulsion energy           0.273281087045 Eh    ::
         :: add. restraining           0.000000000000 Eh    ::
         :: total charge              -0.000000000000 e     ::
         :::::::::::::::::::::::::::::::::::::::::::::::::::::

           -------------------------------------------------
          |                Property Printout                |
           -------------------------------------------------

    * Orbital Energies and Occupations

         #    Occupation            Energy/Eh            Energy/eV
      -------------------------------------------------------------
         1        2.0000           -0.7467331             -20.3196
       ...           ...                  ...                  ...
         9        2.0000           -0.5704030             -15.5215
        10        2.0000           -0.5425373             -14.7632
        11        2.0000           -0.5114620             -13.9176
        12        2.0000           -0.5017846             -13.6543
        13        2.0000           -0.4990719             -13.5804
        14        2.0000           -0.4834957             -13.1566
        15        2.0000           -0.4766374             -12.9700
        16        2.0000           -0.4567280             -12.4282
        17        2.0000           -0.4543126             -12.3625
        18        2.0000           -0.4416880             -12.0189
        19        2.0000           -0.4387119             -11.9380
        20        2.0000           -0.4362215             -11.8702
        21        2.0000           -0.4078349             -11.0978 (HOMO)
        22                         -0.2325908              -6.3291 (LUMO)
        23                          0.0347689               0.9461
        24                          0.0824688               2.2441
        25                          0.1058954               2.8816
        26                          0.1130210               3.0755
        27                          0.1398812               3.8064
        28                          0.1578211               4.2945
        29                          0.1795160               4.8849
        30                          0.1952572               5.3132
        31                          0.2062510               5.6124
        32                          0.2238453               6.0911
       ...                                ...                  ...
        38                          0.6257158              17.0266
      -------------------------------------------------------------
                  HL-Gap            0.1752441 Eh            4.7686 eV
             Fermi-level           -0.3202129 Eh           -8.7134 eV

     #   Z          covCN         q      C6AA      α(0)
     1   6 C        3.755    -0.111    22.684     6.791
     2   6 C        3.849    -0.003    20.601     6.456
     3   6 C        3.755    -0.114    22.745     6.800
     4   6 C        3.806    -0.093    22.265     6.717
     5   6 C        2.688     0.366    20.801     7.464
     6   8 O        0.856    -0.419    22.056     6.297
     7   8 O        1.660    -0.377    20.408     6.098
     8   1 H        0.925     0.032     2.564     2.504
     9   1 H        0.925     0.051     2.303     2.373
    10   1 H        0.925     0.039     2.458     2.452
    11   1 H        0.924     0.032     2.559     2.502
    12   1 H        0.925     0.062     2.178     2.308
    13   1 H        0.925     0.038     2.473     2.459
    14   1 H        0.925     0.031     2.569     2.506
    15   1 H        0.924     0.066     2.128     2.281
    16   1 H        0.924     0.072     2.064     2.247
    17   1 H        0.803     0.328     0.642     1.259

 Mol. C6AA /au·bohr⁶  :       2215.791644
 Mol. C8AA /au·bohr⁸  :      47227.822086
 Mol. α(0) /au        :         69.515051


Wiberg/Mayer (AO) data.
largest (>0.10) Wiberg bond orders for each atom

 ---------------------------------------------------------------------------
     #   Z sym  total        # sym  WBO       # sym  WBO       # sym  WBO
 ---------------------------------------------------------------------------
     1   6 C    3.995 --     2 C    1.010     8 H    0.987    10 H    0.986
                             9 H    0.985
     2   6 C    3.994 --     3 C    1.010     1 C    1.010     4 C    0.991
                            11 H    0.969
     3   6 C    3.994 --     2 C    1.010    14 H    0.987    13 H    0.986
                            12 H    0.982
     4   6 C    3.993 --     2 C    0.991     5 C    0.982    15 H    0.962
                            16 H    0.942
     5   6 C    3.909 --     6 O    1.752     7 O    1.138     4 C    0.982
     6   8 O    2.028 --     5 C    1.752     7 O    0.170
     7   8 O    2.202 --     5 C    1.138    17 H    0.865     6 O    0.170
     8   1 H    0.999 --     1 C    0.987
     9   1 H    0.997 --     1 C    0.985
    10   1 H    0.998 --     1 C    0.986
    11   1 H    0.999 --     2 C    0.969
    12   1 H    0.996 --     3 C    0.982
    13   1 H    0.998 --     3 C    0.986
    14   1 H    0.999 --     3 C    0.987
    15   1 H    0.996 --     4 C    0.962
    16   1 H    0.995 --     4 C    0.942
    17   1 H    0.892 --     7 O    0.865
 ---------------------------------------------------------------------------

Topologies differ in total number of bonds
Writing topology from bond orders to xtbtopo.mol

molecular dipole:
                 x           y           z       tot (Debye)
 q only:       -0.006       0.477       0.439
   full:       -0.171       0.549       0.475       1.897
molecular quadrupole (traceless):
                xx          xy          yy          xz          yz          zz
 q only:        4.315      -1.720      -2.674       0.407      -1.815      -1.640
  q+dip:        5.533      -0.945      -3.824       1.482      -2.592      -1.709
   full:        5.432      -1.038      -3.709       1.042      -3.135      -1.723


           -------------------------------------------------
          | TOTAL ENERGY              -23.953817495947 Eh   |
          | GRADIENT NORM               0.029756820746 Eh/α |
          | HOMO-LUMO GAP               4.768634709453 eV   |
           -------------------------------------------------

------------------------------------------------------------------------
 * finished run on 2025/04/11 at 11:14:59.295     
------------------------------------------------------------------------
 total:
 * wall-time:     0 d,  0 h,  0 min,  0.077 sec
 *  cpu-time:     0 d,  0 h,  0 min,  0.019 sec
 * ratio c/w:     0.240 speedup
 SCF:
 * wall-time:     0 d,  0 h,  0 min,  0.011 sec
 *  cpu-time:     0 d,  0 h,  0 min,  0.011 sec
 * ratio c/w:     0.988 speedup

