
                                 *****************
                                 * O   R   C   A *
                                 *****************

                                            #,                                       
                                            ###                                      
                                            ####                                     
                                            #####                                    
                                            ######                                   
                                           ########,                                 
                                     ,,################,,,,,                         
                               ,,#################################,,                 
                          ,,##########################################,,             
                       ,#########################################, ''#####,          
                    ,#############################################,,   '####,        
                  ,##################################################,,,,####,       
                ,###########''''           ''''###############################       
              ,#####''   ,,,,##########,,,,          '''####'''          '####       
            ,##' ,,,,###########################,,,                        '##       
           ' ,,###''''                  '''############,,,                           
         ,,##''                                '''############,,,,        ,,,,,,###''
      ,#''                                            '''#######################'''  
     '                                                          ''''####''''         
             ,#######,   #######,   ,#######,      ##                                
            ,#'     '#,  ##    ##  ,#'     '#,    #''#        ,####,   ,####,        
            ##       ##  ##   ,#'  ##            #'  '#       #'       #'  '#        
            ##       ##  #######   ##           ,######,      #####,   #    #        
            '#,     ,#'  ##    ##  '#,     ,#' ,#      #,     #,   #   #,  ,#        
             '#######'   ##     ##  '#######'  #'      '#     '####' # '####'        



                #########################################################
                #                        -***-                          #
                #          Department of theory and spectroscopy        #
                #                                                       #
                #                      Frank Neese                      #
                #                                                       #
                #     Directorship, Architecture, Infrastructure        #
                #                    SHARK, DRIVERS                     #
                #        Core code/Algorithms in most modules           #
                #                                                       #
                #        Max Planck Institute fuer Kohlenforschung      #
                #                Kaiser Wilhelm Platz 1                 #
                #                 D-45470 Muelheim/Ruhr                 #
                #                      Germany                          #
                #                                                       #
                #                  All rights reserved                  #
                #                        -***-                          #
                #########################################################


                         Program Version 6.0.0  -   RELEASE  -


 With contributions from (in alphabetic order):
   Daniel Aravena         : Magnetic Suceptibility
   Michael Atanasov       : Ab Initio Ligand Field Theory (pilot matlab implementation)
   Alexander A. Auer      : GIAO ZORA, VPT2 properties, NMR spectrum
   Ute Becker             : All parallelization in ORCA, NUMFREQ, NUMCALC
   Giovanni Bistoni       : ED, misc. LED, open-shell LED, HFLD
   Martin Brehm           : Molecular dynamics
   Dmytro Bykov           : pre 5.0 version of the SCF Hessian
   Marcos Casanova-Páez   : Triplet and SCS-CIS(D). UHF-(DLPNO)-IP/EA/STEOM-CCSD. UHF-CVS-IP/STEOM-CCSD
   Vijay G. Chilkuri      : MRCI spin determinant printing, contributions to CSF-ICE
   Pauline Colinet        : FMM embedding
   Dipayan Datta          : RHF DLPNO-CCSD density
   Achintya Kumar Dutta   : EOM-CC, STEOM-CC
   Nicolas Foglia         : Exact transition moments, OPA infrastructure, MCD improvements
   Dmitry Ganyushin       : Spin-Orbit,Spin-Spin,Magnetic field MRCI
   Miquel Garcia          : C-PCM and meta-GGA Hessian, CCSD/C-PCM, Gaussian charge scheme
   Tiago L. C. Gouveia    : GS-ROHF, GS-ROCIS
   Yang Guo               : DLPNO-NEVPT2, F12-NEVPT2, CIM, IAO-localization
   Andreas Hansen         : Spin unrestricted coupled pair/coupled cluster methods
   Ingolf Harden          : AUTO-CI MPn and infrastructure 
   Benjamin Helmich-Paris : MC-RPA, TRAH-(SCF,CASSCF), AVAS, COSX integrals, SCF dyn. polar.
   Lee Huntington         : MR-EOM, pCC
   Robert Izsak           : Overlap fitted RIJCOSX, COSX-SCS-MP3, EOM
   Riya Kayal             : Wick's Theorem for AUTO-CI, AUTO-CI UHF-CCSDT
   Emily Kempfer          : AUTO-CI, RHF CISDT and CCSDT
   Christian Kollmar      : KDIIS, OOCD, Brueckner-CCSD(T), CCSD density, CASPT2, CASPT2-K, improved NEVPT2
   Axel Koslowski         : Symmetry handling
   Simone Kossmann        : Meta GGA functionals, TD-DFT gradient, OOMP2, (MP2 Hessian; deprecated post 5.0)
   Lucas Lang             : DCDCAS
   Marvin Lechner         : AUTO-CI (C++ implementation), FIC-MRCC
   Spencer Leger          : CASSCF response
   Dagmar Lenk            : GEPOL surface, SMD, ORCA-2-JSON
   Dimitrios Liakos       : Extrapolation schemes; Compound Job, initial MDCI parallelization
   Dimitrios Manganas     : Further ROCIS development; embedding schemes. LFT, Crystal Embedding
   Dimitrios Pantazis     : SARC Basis sets
   Anastasios Papadopoulos: AUTO-CI, single reference methods and gradients
   Taras Petrenko         : pre 6.0 DFT Hessian and TD-DFT gradient, (ASA, deprecated), ECA, 1-Electron XAS/XES, NRVS
   Peter Pinski           : DLPNO-MP2, DLPNO-MP2 Gradient
   Christoph Reimann      : Effective Core Potentials
   Marius Retegan         : Local ZFS, SOC
   Christoph Riplinger    : Optimizer, TS searches, QM/MM, DLPNO-CCSD(T), (RO)-DLPNO pert. Triples
   Michael Roemelt        : Original ROCIS implementation
   Masaaki Saitow         : Open-shell DLPNO-CCSD energy and density
   Barbara Sandhoefer     : DKH picture change effects
   Kantharuban Sivalingam : CASSCF convergence/infrastructure, NEVPT2 and variants, FIC-MRCI
   Bernardo de Souza      : ESD, SOC TD-DFT
   Georgi Stoychev        : AutoAux, RI-MP2 NMR, DLPNO-MP2 response, X2C
   Van Anh Tran           : RI-MP2 g-tensors
   Willem Van den Heuvel  : Paramagnetic NMR
   Zikuan Wang            : NOTCH, Electric field optimization 
   Frank Wennmohs         : Technical directorship and infrastructure
   Hang Xu                : AUTO-CI-Response properties 


 We gratefully acknowledge several colleagues who have allowed us to
 interface, adapt or use parts of their codes:
   Stefan Grimme, W. Hujo, H. Kruse, P. Pracht,  : VdW corrections, initial TS optimization,
                  C. Bannwarth, S. Ehlert,         DFT functionals, gCP, sTDA/sTD-DF
                  L. Wittmann, M. Mueller
   Ed Valeev, F. Pavosevic, A. Kumar             : LibInt (2-el integral package), F12 methods
   Garnet Chan, S. Sharma, J. Yang, R. Olivares  : DMRG
   Ulf Ekstrom                                   : XCFun DFT Library
   Mihaly Kallay                                 : mrcc  (arbitrary order and MRCC methods)
   Frank Weinhold                                : gennbo (NPA and NBO analysis)
   Simon Mueller                                 : openCOSMO-RS
   Christopher J. Cramer and Donald G. Truhlar   : smd solvation model
   Lars Goerigk                                  : TD-DFT with DH, B97 family of functionals
   V. Asgeirsson, H. Jonsson                     : NEB implementation
   FAccTs GmbH                                   : IRC, NEB, NEB-TS, DLPNO-Multilevel, CI-OPT
                                                   MM, QMMM, 2- and 3-layer-ONIOM, Crystal-QMMM,
                                                   LR-CPCM, SF, NACMEs, symmetry and pop. for TD-DFT,
                                                   nearIR, NL-DFT gradient (VV10), updates on ESD,
                                                   ML-optimized integration grids, MBIS, APM,
                                                   GOAT, DOCKER, SOLVATOR, interface openCOSMO-RS
   S Lehtola, MJT Oliveira, MAL Marques          : LibXC Library
   Liviu Ungur et al                             : ANISO software


 Your calculation uses the libint2 library for the computation of 2-el integrals
 For citations please refer to: http://libint.valeyev.net

 Your ORCA version has been built with support for libXC version: 6.2.2
 For citations please refer to: https://libxc.gitlab.io

 This ORCA versions uses:
   CBLAS   interface :  Fast vector & matrix operations
   LAPACKE interface :  Fast linear algebra routines
   SCALAPACK package :  Parallel linear algebra routines
   Shared memory     :  Shared parallel matrices
   BLAS/LAPACK       :  OpenBLAS 0.3.27  USE64BITINT DYNAMIC_ARCH NO_AFFINITY SkylakeX SINGLE_THREADED
        Core in use  :  SkylakeX
   Copyright (c) 2011-2014, The OpenBLAS Project


Your calculation utilizes the geometrical counterpoise correction gCP
Please cite in your paper:
H.Kruse, S. Grimme J.Chem.Phys., 136, (2012), 154101 
   

Your calculation utilizes the DFT-NL dispersion correction.
Cite in your paper:
Vydrov, O. A.; Van Voorhis, T. J. Chem. Phys. 2010, 133, 244103
Hujo, W.; Grimme, S. J. Chem. Theory Comput. 2011, 7, 3866 
   

================================================================================

----- Orbital basis set information -----
Your calculation utilizes the basis: def2-TZVP
   F. Weigend and R. Ahlrichs, Phys. Chem. Chem. Phys. 7, 3297 (2005).

----- AuxJ basis set information -----
Your calculation utilizes the auxiliary basis: def2/J
   F. Weigend, Phys. Chem. Chem. Phys. 8, 1057 (2006).

================================================================================
                                        WARNINGS
                       Please study these warnings very carefully!
================================================================================


================================================================================
                                       INPUT FILE
================================================================================
NAME = sp_gas.inp
|  1> ! wb97x-v def2-tzvp def2/J RIJCOSX DEFGRID2 scfconv7 GCP(DFT/TZ) printgap
|  2> %output
|  3>     printlevel normal
|  4> end
|  5> * xyz 0 1
|  6> C -2.792908950814641 -0.27680948427533586 0.00677489123707186
|  7> C -1.441433170420598 0.4262907985915536 -0.08015121260816803
|  8> C -0.2878242238327715 -0.5542788000865869 0.0744613112126285
|  9> C 1.084400692984165 0.05783304779400898 0.017113166398884976
| 10> O 1.2549640442375332 1.2739844940966745 0.005115383280838133
| 11> C 2.242221728244614 -0.8941990112042508 -0.04178609288894133
| 12> H -3.6165194319371836 0.43399918282440686 -0.11133406331621633
| 13> H -2.914316592539474 -0.7742385646169081 0.9753443605195382
| 14> H -2.8916824732527715 -1.038681398719776 -0.7742083512800702
| 15> H -1.37169496887763 1.195839826903526 0.6964913880163542
| 16> H -1.3496777846759669 0.9434884281004658 -1.042471267957555
| 17> H -0.35032631635247186 -1.0831520465165567 1.0378370146930413
| 18> H -0.33158375552807245 -1.3486760936773141 -0.683729318152195
| 19> H 3.1766254162644714 -0.3901437520823242 0.2105184203382322
| 20> H 2.3121166957571155 -1.2785833676664489 -1.0673031804251043
| 21> H 2.0782579103078205 -1.7567101689709446 0.6104030802256969
| 22> *
| 23> 
| 24>                          ****END OF INPUT****
================================================================================

                       ****************************
                       * Single Point Calculation *
                       ****************************

---------------------------------
CARTESIAN COORDINATES (ANGSTROEM)
---------------------------------
  C     -2.792909   -0.276809    0.006775
  C     -1.441433    0.426291   -0.080151
  C     -0.287824   -0.554279    0.074461
  C      1.084401    0.057833    0.017113
  O      1.254964    1.273984    0.005115
  C      2.242222   -0.894199   -0.041786
  H     -3.616519    0.433999   -0.111334
  H     -2.914317   -0.774239    0.975344
  H     -2.891682   -1.038681   -0.774208
  H     -1.371695    1.195840    0.696491
  H     -1.349678    0.943488   -1.042471
  H     -0.350326   -1.083152    1.037837
  H     -0.331584   -1.348676   -0.683729
  H      3.176625   -0.390144    0.210518
  H      2.312117   -1.278583   -1.067303
  H      2.078258   -1.756710    0.610403

----------------------------
CARTESIAN COORDINATES (A.U.)
----------------------------
  NO LB      ZA    FRAG     MASS         X           Y           Z
   0 C     6.0000    0    12.011   -5.277833   -0.523094    0.012803
   1 C     6.0000    0    12.011   -2.723914    0.805573   -0.151464
   2 C     6.0000    0    12.011   -0.543909   -1.047435    0.140711
   3 C     6.0000    0    12.011    2.049220    0.109289    0.032339
   4 O     8.0000    0    15.999    2.371538    2.407482    0.009667
   5 C     6.0000    0    12.011    4.237185   -1.689791   -0.078964
   6 H     1.0000    0     1.008   -6.834231    0.820140   -0.210391
   7 H     1.0000    0     1.008   -5.507260   -1.463099    1.843134
   8 H     1.0000    0     1.008   -5.464488   -1.962823   -1.463042
   9 H     1.0000    0     1.008   -2.592128    2.259810    1.316178
  10 H     1.0000    0     1.008   -2.550521    1.782935   -1.969985
  11 H     1.0000    0     1.008   -0.662021   -2.046861    1.961228
  12 H     1.0000    0     1.008   -0.626602   -2.548628   -1.292061
  13 H     1.0000    0     1.008    6.002952   -0.737265    0.397822
  14 H     1.0000    0     1.008    4.369267   -2.416172   -2.016911
  15 H     1.0000    0     1.008    3.927338   -3.319701    1.153495

--------------------------------
INTERNAL COORDINATES (ANGSTROEM)
--------------------------------
 C      0   0   0     0.000000000000     0.00000000     0.00000000
 C      1   0   0     1.525907251536     0.00000000     0.00000000
 C      2   1   0     1.521918319760   111.63444680     0.00000000
 C      3   2   1     1.503652535117   115.18774606   180.67423054
 O      4   3   2     1.228112431309   122.02130712     8.19369032
 C      4   3   2     1.500127899146   116.58356147   188.90995838
 H      1   2   3     1.094318468721   111.17063712   180.34284148
 H      1   2   3     1.095583096924   110.96004271    60.28860675
 H      1   2   3     1.095508944668   111.08117914   300.47808934
 H      2   1   3     1.095555956049   109.85593464   238.44512877
 H      2   1   3     1.096344985719   109.96811631   121.43008481
 H      3   2   1     1.100775257905   110.81964184   301.39103113
 H      3   2   1     1.099015462646   111.43523167    57.58966914
 H      6   4   3     1.091255938737   111.01792817   196.56551020
 H      6   4   3     1.097416027223   107.94696831    77.32237872
 H      6   4   3     1.093691157682   111.18408463   320.37973331

---------------------------
INTERNAL COORDINATES (A.U.)
---------------------------
 C      0   0   0     0.000000000000     0.00000000     0.00000000
 C      1   0   0     2.883546811167     0.00000000     0.00000000
 C      2   1   0     2.876008822544   111.63444680     0.00000000
 C      3   2   1     2.841491491947   115.18774606   180.67423054
 O      4   3   2     2.320796156837   122.02130712     8.19369032
 C      4   3   2     2.834830895241   116.58356147   188.90995838
 H      1   2   3     2.067962209175   111.17063712   180.34284148
 H      1   2   3     2.070352010139   110.96004271    60.28860675
 H      1   2   3     2.070211882683   111.08117914   300.47808934
 H      2   1   3     2.070300721320   109.85593464   238.44512877
 H      2   1   3     2.071791771306   109.96811631   121.43008481
 H      3   2   1     2.080163772436   110.81964184   301.39103113
 H      3   2   1     2.076838241346   111.43523167    57.58966914
 H      6   4   3     2.062174866228   111.01792817   196.56551020
 H      6   4   3     2.073815746427   107.94696831    77.32237872
 H      6   4   3     2.066776763111   111.18408463   320.37973331

---------------------
BASIS SET INFORMATION
---------------------
There are 3 groups of distinct atoms

 Group   1 Type C   : 11s6p2d1f contracted to 5s3p2d1f pattern {62111/411/11/1}
 Group   2 Type O   : 11s6p2d1f contracted to 5s3p2d1f pattern {62111/411/11/1}
 Group   3 Type H   : 5s1p contracted to 3s1p pattern {311/1}

Atom   0C    basis set group =>   1
Atom   1C    basis set group =>   1
Atom   2C    basis set group =>   1
Atom   3C    basis set group =>   1
Atom   4O    basis set group =>   2
Atom   5C    basis set group =>   1
Atom   6H    basis set group =>   3
Atom   7H    basis set group =>   3
Atom   8H    basis set group =>   3
Atom   9H    basis set group =>   3
Atom  10H    basis set group =>   3
Atom  11H    basis set group =>   3
Atom  12H    basis set group =>   3
Atom  13H    basis set group =>   3
Atom  14H    basis set group =>   3
Atom  15H    basis set group =>   3
---------------------------------
AUXILIARY/J BASIS SET INFORMATION
---------------------------------
There are 3 groups of distinct atoms

 Group   1 Type C   : 12s5p4d2f1g contracted to 6s4p3d1f1g pattern {711111/2111/211/2/1}
 Group   2 Type O   : 12s5p4d2f1g contracted to 6s4p3d1f1g pattern {711111/2111/211/2/1}
 Group   3 Type H   : 5s2p1d contracted to 3s1p1d pattern {311/2/1}

Atom   0C    basis set group =>   1
Atom   1C    basis set group =>   1
Atom   2C    basis set group =>   1
Atom   3C    basis set group =>   1
Atom   4O    basis set group =>   2
Atom   5C    basis set group =>   1
Atom   6H    basis set group =>   3
Atom   7H    basis set group =>   3
Atom   8H    basis set group =>   3
Atom   9H    basis set group =>   3
Atom  10H    basis set group =>   3
Atom  11H    basis set group =>   3
Atom  12H    basis set group =>   3
Atom  13H    basis set group =>   3
Atom  14H    basis set group =>   3
Atom  15H    basis set group =>   3

Checking for AutoStart:
The File: sp_gas.gbw exists
Trying to determine its content:
     ... Fine, the file contains calculation information
     ... Fine, the calculation information was read
     ... Fine, the file contains a basis set
     ... Fine, the basis set was read
     ... Fine, the file contains a geometry
     ... Fine, the geometry was read
     ... Fine, the file contains a set of orbitals
     ... Fine, the orbitals can be read
     => possible old guess file was deleted
     => GBW file was renamed to GES file
     => GES file is set as startup file
     => Guess is set to MORead
     ... now leaving AutoStart

------------------------------------------------------------------------------
                             ORCA STARTUP CALCULATIONS
                           -- RI-GTO INTEGRALS CHOSEN --
------------------------------------------------------------------------------
------------------------------------------------------------------------------
                   ___                                                        
                  /   \      - P O W E R E D   B Y -                         
                 /     \                                                     
                 |  |  |   _    _      __       _____    __    __             
                 |  |  |  | |  | |    /  \     |  _  \  |  |  /  |          
                  \  \/   | |  | |   /    \    | | | |  |  | /  /          
                 / \  \   | |__| |  /  /\  \   | |_| |  |  |/  /          
                |  |  |   |  __  | /  /__\  \  |    /   |      \           
                |  |  |   | |  | | |   __   |  |    \   |  |\   \          
                \     /   | |  | | |  |  |  |  | |\  \  |  | \   \       
                 \___/    |_|  |_| |__|  |__|  |_| \__\ |__|  \__/        
                                                                              
                      - O R C A' S   B I G   F R I E N D -                    
                                      &                                       
                       - I N T E G R A L  F E E D E R -                       
                                                                              
 v1 FN, 2020, v2 2021, v3 2022-2024                                           
------------------------------------------------------------------------------


----------------------
SHARK INTEGRAL PACKAGE
----------------------

Number of atoms                             ...     16
Number of basis functions                   ...    246
Number of shells                            ...    106
Maximum angular momentum                    ...      3
Integral batch strategy                     ... SHARK/LIBINT Hybrid
RI-J (if used) integral strategy            ... SPLIT-RIJ (Revised 2003 algorithm where possible)
Printlevel                                  ...      1
Contraction scheme used                     ... SEGMENTED contraction
Prescreening option                         ... SCHWARTZ
   Thresh                                   ... 3.000e-11
   Tcut                                     ... 1.000e-12
   Tpresel                                  ... 1.000e-12 
Coulomb Range Separation                    ... NOT USED
Exchange Range Separation                   ... Long Range
   Mu parameter                             ... 3.000e-01
   Scaling (regular/separated)              ... 1.670e-01 8.330e-01
Multipole approximations                    ... NOT USED
Finite Nucleus Model                        ... NOT USED
CABS basis                                  ... NOT available
Auxiliary Coulomb fitting basis             ... AVAILABLE
   # of basis functions in Aux-J            ...    404
   # of shells in Aux-J                     ...    140
   Maximum angular momentum in Aux-J        ...      4
Auxiliary J/K fitting basis                 ... NOT available
Auxiliary Correlation fitting basis         ... NOT available
Auxiliary 'external' fitting basis          ... NOT available

Checking pre-screening integrals            ... done (  0.0 sec) Dimension = 106
Check shell pair data                       ... done (  0.0 sec)
Shell pair information
Shell pair cut-off parameter TPreSel        ...   1.0e-12
Total number of shell pairs                 ...      5671
Shell pairs after pre-screening             ...      5227
Total number of primitive shell pairs       ...     16452
Primitive shell pairs kept                  ...     11814
          la=0 lb=0:   1650 shell pairs
          la=1 lb=0:   1550 shell pairs
          la=1 lb=1:    381 shell pairs
          la=2 lb=0:    670 shell pairs
          la=2 lb=1:    321 shell pairs
          la=2 lb=2:     76 shell pairs
          la=3 lb=0:    334 shell pairs
          la=3 lb=1:    156 shell pairs
          la=3 lb=2:     68 shell pairs
          la=3 lb=3:     21 shell pairs

Calculating one electron integrals          ... done (  0.0 sec)
Calculating RI/J V-Matrix + Cholesky decomp.... done (  0.1 sec)
Calculating Nuclear repulsion               ... done (  0.0 sec) ENN=    236.146817529476 Eh

Diagonalization of the overlap matrix:
Smallest eigenvalue                        ... 1.513e-04
Time for diagonalization                   ...    0.008 sec
Threshold for overlap eigenvalues          ... 1.000e-07
Number of eigenvalues below threshold      ... 0
Time for construction of square roots      ...    0.017 sec
Total time needed                          ...    0.033 sec

-------------------
DFT GRID GENERATION
-------------------

General Integration Accuracy     IntAcc      ... 4.388
Radial Grid Type                 RadialGrid  ... OptM3 with GC (2021)
Angular Grid (max. ang.)         AngularGrid ... 4 (Lebedev-302)
Angular grid pruning method      GridPruning ... 4 (adaptive)
Weight generation scheme         WeightScheme... mBecke (2022)
Basis function cutoff            BFCut       ... 1.0000e-11
Integration weight cutoff        WCut        ... 1.0000e-14
Partially contracted basis set               ... off
Rotationally invariant grid construction     ... off
Angular grids for H and He will be reduced by one unit

Total number of grid points                  ...    68414
Total number of batches                      ...     1077
Average number of points per batch           ...       63
Average number of grid points per atom       ...     4276

--------------------
COSX GRID GENERATION
--------------------

GRIDX 1
-------
General Integration Accuracy     IntAcc      ... 3.816
Radial Grid Type                 RadialGrid  ... OptM3 with GC (2021)
Angular Grid (max. ang.)         AngularGrid ... 1 (Lebedev-50)
Angular grid pruning method      GridPruning ... 4 (adaptive)
Weight generation scheme         WeightScheme... mBecke (2022)
Basis function cutoff            BFCut       ... 1.0000e-11
Integration weight cutoff        WCut        ... 1.0000e-14
Partially contracted basis set               ... on
Rotationally invariant grid construction     ... off
Angular grids for H and He will be reduced by one unit

Total number of grid points                  ...     8781
Total number of batches                      ...       79
Average number of points per batch           ...      111
Average number of grid points per atom       ...      549
UseSFitting                                  ... on

GRIDX 2
-------
General Integration Accuracy     IntAcc      ... 4.020
Radial Grid Type                 RadialGrid  ... OptM3 with GC (2021)
Angular Grid (max. ang.)         AngularGrid ... 2 (Lebedev-110)
Angular grid pruning method      GridPruning ... 4 (adaptive)
Weight generation scheme         WeightScheme... mBecke (2022)
Basis function cutoff            BFCut       ... 1.0000e-11
Integration weight cutoff        WCut        ... 1.0000e-14
Partially contracted basis set               ... on
Rotationally invariant grid construction     ... off
Angular grids for H and He will be reduced by one unit

Total number of grid points                  ...    18502
Total number of batches                      ...      152
Average number of points per batch           ...      121
Average number of grid points per atom       ...     1156
UseSFitting                                  ... on

GRIDX 3
-------
General Integration Accuracy     IntAcc      ... 4.338
Radial Grid Type                 RadialGrid  ... OptM3 with GC (2021)
Angular Grid (max. ang.)         AngularGrid ... 3 (Lebedev-194)
Angular grid pruning method      GridPruning ... 4 (adaptive)
Weight generation scheme         WeightScheme... mBecke (2022)
Basis function cutoff            BFCut       ... 1.0000e-11
Integration weight cutoff        WCut        ... 1.0000e-14
Partially contracted basis set               ... on
Rotationally invariant grid construction     ... off
Angular grids for H and He will be reduced by one unit

Total number of grid points                  ...    40510
Total number of batches                      ...      325
Average number of points per batch           ...      124
Average number of grid points per atom       ...     2532
UseSFitting                                  ... on
Initializing property integral containers    ... done (  0.0 sec)

SHARK setup successfully completed in   2.1 seconds

Maximum memory used throughout the entire STARTUP-calculation: 37.0 MB
-------------------------------------------------------------------------------
                                 ORCA GUESS
                   Start orbitals & Density for SCF / CASSCF
-------------------------------------------------------------------------------

------------
SCF SETTINGS
------------
Hamiltonian:
 Density Functional     Method          .... DFT(GTOs)
 Exchange Functional    Exchange        .... WB97X-V
 Correlation Functional Correlation     .... WB97X-V
 Gradients option       PostSCFGGA      .... off
 Hybrid DFT is turned on
   Fraction HF Exchange ScalHFX         ....  0.167000
   Scaling of DF-GGA-X  ScalDFX         ....  0.000000
   Scaling of DF-GGA-C  ScalDFC         ....  1.000000
   Scaling of DF-LDA-C  ScalLDAC        ....  1.000000
   Perturbative correction              ....  0.000000
 Long-range corrected/Screened/Range-Separated Hybrid DFT is turned on
   Amount of maximum screened exact exchange              ....  0.833000
   Range separation parameter mu (erf(mu*r12)/r12)        ....  0.300000
   NL short-range parameter             ....  6.000000
   NL long-range parameter              ....  0.010000
 RI-approximation to the Coulomb term is turned on
   Number of AuxJ basis functions       .... 404
   RIJ-COSX (HFX calculated with COS-X)).... on


General Settings:
 Integral files         IntName         .... sp_gas
 Hartree-Fock type      HFTyp           .... RHF
 Total Charge           Charge          ....    0
 Multiplicity           Mult            ....    1
 Number of Electrons    NEL             ....   48
 Basis Dimension        Dim             ....  246
 Nuclear Repulsion      ENuc            ....    236.1468175295 Eh

Convergence Acceleration:
 AO-DIIS                CNVDIIS         .... on
   Start iteration      DIISMaxIt       ....    12
   Startup error        DIISStart       ....  0.200000
   # of expansion vecs  DIISMaxEq       ....     5
   Bias factor          DIISBfac        ....   1.050
   Max. coefficient     DIISMaxC        ....  10.000
 MO-DIIS                CNVKDIIS        .... off
 Trust-Rad. Augm. Hess. CNVTRAH         .... auto
   Auto Start mean grad. ratio tolernc. ....  1.125000
   Auto Start start iteration           ....     1
   Auto Start num. interpolation iter.  ....    10
   Max. Number of Micro iterations      ....    24
   Max. Number of Macro iterations      .... Maxiter - #DIIS iter
   Number of Davidson start vectors     ....     2
   Converg. threshold    (grad. norm)   ....   1.000e-04
   Grad. Scal. Fac. for Micro threshold ....   0.100
   Minimum threshold for Micro iter.    ....   1.000e-02
   NR start threshold (gradient norm)   ....   1.000e-04
   Initial trust radius                 ....   0.400
   Minimum AH scaling param. (alpha)    ....   1.000
   Maximum AH scaling param. (alpha)    .... 1000.000
   Quad. conv. algorithm                .... NR
   White noise on init. David. guess    .... on
   Maximum white noise                  ....   0.010
   Pseudo random numbers                .... off
   Inactive MOs                         .... canonical
   Orbital update algorithm             .... Taylor
   Preconditioner                       .... Diag
   Full preconditioner red. dimension   ....   250
 SOSCF                  CNVSOSCF        .... on
   Start iteration      SOSCFMaxIt      ....   150
   Startup grad/error   SOSCFStart      ....  0.003300
   Hessian update       SOSCFHessUp     .... L-BFGS
 Level Shifting         CNVShift        .... on
   Level shift para.    LevelShift      ....    0.2500
   Turn off err/grad.   ShiftErr        ....    0.0010
 Zerner damping         CNVZerner       .... off
 Static damping         CNVDamp         .... on
   Fraction old density DampFac         ....    0.7000
   Max. Damping (<1)    DampMax         ....    0.9800
   Min. Damping (>=0)   DampMin         ....    0.0000
   Turn off err/grad.   DampErr         ....    0.1000

SCF Procedure:
 Maximum # iterations   MaxIter         ....   125
 SCF integral mode      SCFMode         .... Direct
   Integral package                     .... SHARK and LIBINT hybrid scheme
 Reset frequency        DirectResetFreq ....    20
 Integral Threshold     Thresh          ....  3.000e-11 Eh
 Primitive CutOff       TCut            ....  1.000e-12 Eh

Convergence Tolerance:
 Convergence Check Mode ConvCheckMode   .... Total+1el-Energy
 Convergence forced     ConvForced      .... 0
 Energy Change          TolE            ....  1.000e-07 Eh
 1-El. energy change                    ....  1.000e-04 Eh
 Orbital Gradient       TolG            ....  1.000e-04
 Orbital Rotation angle TolX            ....  1.000e-04
 DIIS Error             TolErr          ....  1.000e-07

---------------------
INITIAL GUESS: MOREAD
---------------------
Guess MOs are being read from file: sp_gas.ges
Input Geometry matches current geometry (good)
Atom 0: N(Shells)= 11 and 9 - projection required
Input basis set needs projection
NBasis(read)= 169
NBasis(calc)= 246
Basis set overlap was calculated
Using GuessMode=FMatrix for the initial guess
C*T matrix was formed
Effective Fockian was calculated
Effective Fockian was diagonalized
Initial density was built
                      ------------------
                      INITIAL GUESS DONE (   0.1 sec)
                      ------------------
             **** ENERGY FILE WAS UPDATED (sp_gas.en.tmp) ****
Finished Guess after   0.3 sec
Maximum memory used throughout the entire GUESS-calculation: 19.7 MB

-------------------------------------------------------------------------------------------
                                      ORCA LEAN-SCF
                              memory conserving SCF solver
-------------------------------------------------------------------------------------------

----------------------------------------D-I-I-S--------------------------------------------
Iteration    Energy (Eh)           Delta-E    RMSDP     MaxDP     DIISErr   Damp  Time(sec)
-------------------------------------------------------------------------------------------
               ***  Starting incremental Fock matrix formation  ***
    1    -271.9727793186617646     0.00e+00  9.01e-04  3.20e-02  5.28e-02  0.700  14.4
    2    -271.9776399996454757    -4.86e-03  8.15e-04  3.07e-02  3.74e-02  0.700   7.3
                               ***Turning on AO-DIIS***
    3    -271.9811824862027834    -3.54e-03  6.57e-04  2.43e-02  2.64e-02  0.700   7.3
    4    -271.9837196969867819    -2.54e-03  1.67e-03  6.16e-02  1.89e-02  0.000   7.2
                              *** Initializing SOSCF ***
---------------------------------------S-O-S-C-F--------------------------------------
Iteration    Energy (Eh)           Delta-E    RMSDP     MaxDP     MaxGrad    Time(sec)
--------------------------------------------------------------------------------------
    5    -271.9903358222600218    -6.62e-03  1.08e-04  2.95e-03  3.29e-03     7.4
               *** Restarting incremental Fock matrix formation ***
    6    -271.9903729342812539    -3.71e-05  9.12e-05  6.51e-03  6.84e-04    14.6
    7    -271.9903820861690065    -9.15e-06  4.00e-05  1.90e-03  9.43e-04    12.3
    8    -271.9903880896191595    -6.00e-06  1.15e-05  4.09e-04  1.06e-04    11.0
    9    -271.9903882779452715    -1.88e-07  2.89e-06  1.37e-04  1.26e-05    10.2
                  *** Gradient check signals convergence ***

               *****************************************************
               *                     SUCCESS                       *
               *           SCF CONVERGED AFTER   9 CYCLES          *
               *****************************************************


------------------
NL GRID GENERATION
------------------

General Integration Accuracy     IntAcc      ... 4.004
Radial Grid Type                 RadialGrid  ... OptM3 with GC (2021)
Angular Grid (max. ang.)         AngularGrid ... 2 (Lebedev-110)
Angular grid pruning method      GridPruning ... 4 (adaptive)
Weight generation scheme         WeightScheme... mBecke (2022)
Basis function cutoff            BFCut       ... 1.0000e-10
Integration weight cutoff        WCut        ... 1.0000e-14
Partially contracted basis set               ... off
Rotationally invariant grid construction     ... off
Angular grids for H and He will be reduced by one unit

Total number of grid points                  ...    20568
Total number of batches                      ...      329
Average number of points per batch           ...       62
Average number of grid points per atom       ...     1286
Final grid set up in    0.2 sec

-------------------------------------------------------------------------------
                    post-SCF DFT-NL dispersion correction                      
-------------------------------------------------------------------------------

SCF Energy:     -271.990388278 
NL    Energy:      0.186029721 
SC+NL Energy:   -271.804358557 
NL done in  :              2.1 sec
-------------------------------------------------------------------------------
Recomputing exchange energy using gridx3       ... done (   25.640 sec)
Old exchange energy                            :    -12.546038861 Eh
New exchange energy                            :    -12.546046161 Eh
Exchange energy change after final integration :     -0.000007299 Eh
Total energy after final integration           :   -271.804365857 Eh
             **** ENERGY FILE WAS UPDATED (sp_gas.en.tmp) ****

----------------
TOTAL SCF ENERGY
----------------

Total Energy       :       -271.80436585658992 Eh           -7396.17281 eV

Components:
Nuclear Repulsion  :        236.14681752947612 Eh            6425.88159 eV
Electronic Energy  :       -508.13720580742137 Eh          -13827.11633 eV
One Electron Energy:       -834.49747299824048 Eh          -22707.83068 eV
Two Electron Energy:        326.36026719081912 Eh            8880.71436 eV

Virial components:
Potential Energy   :       -542.47251731602819 Eh          -14761.42765 eV
Kinetic Energy     :        270.66815145943826 Eh            7365.25484 eV
Virial Ratio       :          2.00419781341479

DFT components:
N(Alpha)           :       24.000041562536 electrons
N(Beta)            :       24.000041562536 electrons
N(Total)           :       48.000083125072 electrons
E(X)               :      -25.119249533237 Eh       
E(C)               :       -1.941607020136 Eh       
NL Energy, E(C,NL) :        0.186029720781 Eh       
E(XC)              :      -26.874826832593 Eh       

---------------
SCF CONVERGENCE
---------------

  Last Energy change         ...    1.8833e-07  Tolerance :   1.0000e-07
  Last MAX-Density change    ...    1.3742e-04  Tolerance :   1.0000e-05
  Last RMS-Density change    ...    2.8902e-06  Tolerance :   1.0000e-06
  Last DIIS Error            ...    3.2877e-03  Tolerance :   1.0000e-07
  Last Orbital Gradient      ...    1.2612e-05  Tolerance :   1.0000e-04
  Last Orbital Rotation      ...    2.0819e-05  Tolerance :   1.0000e-04


----------------
ORBITAL ENERGIES
----------------

  NO   OCC          E(Eh)            E(eV) 
   0   2.0000     -21.657332      -589.3260 
   1   2.0000     -12.137490      -330.2779 
   2   2.0000     -12.056742      -328.0806 
   3   2.0000     -12.052677      -327.9700 
   4   2.0000     -12.044742      -327.7541 
   5   2.0000     -12.037860      -327.5668 
   6   2.0000      -1.700352       -46.2689 
   7   2.0000      -1.317316       -35.8460 
   8   2.0000      -1.264445       -34.4073 
   9   2.0000      -1.199279       -32.6340 
  10   2.0000      -1.095251       -29.8033 
  11   2.0000      -1.067164       -29.0390 
  12   2.0000      -0.967063       -26.3151 
  13   2.0000      -0.956639       -26.0315 
  14   2.0000      -0.919490       -25.0206 
  15   2.0000      -0.880091       -23.9485 
  16   2.0000      -0.853996       -23.2384 
  17   2.0000      -0.842775       -22.9331 
  18   2.0000      -0.832156       -22.6441 
  19   2.0000      -0.830426       -22.5970 
  20   2.0000      -0.818798       -22.2806 
  21   2.0000      -0.784416       -21.3450 
  22   2.0000      -0.779915       -21.2226 
  23   2.0000      -0.756622       -20.5887 
  24   0.0000      -0.303860        -8.2685 
  25   0.0000      -0.056542        -1.5386 
  26   0.0000      -0.047651        -1.2967 
  27   0.0000      -0.022015        -0.5991 
  28   0.0000      -0.002638        -0.0718 
  29   0.0000       0.010880         0.2961 
  30   0.0000       0.015148         0.4122 
  31   0.0000       0.033633         0.9152 
  32   0.0000       0.041676         1.1341 
  33   0.0000       0.046400         1.2626 
  34   0.0000       0.049857         1.3567 
*Only the first 10 virtual orbitals were printed.

                    ********************************
                    * MULLIKEN POPULATION ANALYSIS *
                    ********************************

-----------------------
MULLIKEN ATOMIC CHARGES
-----------------------
   0 C :   -0.329175
   1 C :   -0.144962
   2 C :   -0.223770
   3 C :    0.213595
   4 O :   -0.323332
   5 C :   -0.342192
   6 H :    0.119513
   7 H :    0.102845
   8 H :    0.101480
   9 H :    0.106381
  10 H :    0.098601
  11 H :    0.115812
  12 H :    0.113216
  13 H :    0.139499
  14 H :    0.130832
  15 H :    0.121656
Sum of atomic charges:    0.0000000

--------------------------------
MULLIKEN REDUCED ORBITAL CHARGES
--------------------------------
  0 C s       :     3.225484  s :     3.225484
      pz      :     1.043646  p :     3.041925
      px      :     0.967515
      py      :     1.030764
      dz2     :     0.006874  d :     0.058427
      dxz     :     0.008528
      dyz     :     0.016586
      dx2y2   :     0.011693
      dxy     :     0.014746
      f0      :     0.000412  f :     0.003339
      f+1     :     0.000095
      f-1     :     0.000827
      f+2     :     0.000129
      f-2     :     0.000361
      f+3     :     0.000837
      f-3     :     0.000677

  1 C s       :     3.160413  s :     3.160413
      pz      :     1.041415  p :     2.884236
      px      :     0.901278
      py      :     0.941542
      dz2     :     0.008625  d :     0.094701
      dxz     :     0.013760
      dyz     :     0.026204
      dx2y2   :     0.024632
      dxy     :     0.021481
      f0      :     0.000676  f :     0.005612
      f+1     :     0.000254
      f-1     :     0.000886
      f+2     :     0.000163
      f-2     :     0.000955
      f+3     :     0.001575
      f-3     :     0.001103

  2 C s       :     3.154338  s :     3.154338
      pz      :     1.036641  p :     2.976895
      px      :     0.938562
      py      :     1.001692
      dz2     :     0.007875  d :     0.087314
      dxz     :     0.011017
      dyz     :     0.025812
      dx2y2   :     0.029074
      dxy     :     0.013536
      f0      :     0.000545  f :     0.005223
      f+1     :     0.000245
      f-1     :     0.000883
      f+2     :     0.000068
      f-2     :     0.000802
      f+3     :     0.001512
      f-3     :     0.001168

  3 C s       :     3.156479  s :     3.156479
      pz      :     0.682251  p :     2.397705
      px      :     0.947213
      py      :     0.768241
      dz2     :     0.006166  d :     0.214714
      dxz     :     0.016277
      dyz     :     0.051857
      dx2y2   :     0.046736
      dxy     :     0.093678
      f0      :     0.002067  f :     0.017508
      f+1     :     0.000740
      f-1     :     0.001171
      f+2     :     0.002122
      f-2     :     0.001305
      f+3     :     0.006596
      f-3     :     0.003506

  4 O s       :     3.806381  s :     3.806381
      pz      :     1.314699  p :     4.483149
      px      :     1.809963
      py      :     1.358487
      dz2     :     0.002708  d :     0.032000
      dxz     :     0.000282
      dyz     :     0.011505
      dx2y2   :     0.009201
      dxy     :     0.008304
      f0      :     0.000148  f :     0.001802
      f+1     :     0.000022
      f-1     :     0.000146
      f+2     :     0.000434
      f-2     :     0.000040
      f+3     :     0.000528
      f-3     :     0.000484

  5 C s       :     3.223106  s :     3.223106
      pz      :     1.058125  p :     3.070038
      px      :     0.995802
      py      :     1.016111
      dz2     :     0.006731  d :     0.045943
      dxz     :     0.004368
      dyz     :     0.010300
      dx2y2   :     0.014529
      dxy     :     0.010015
      f0      :     0.000529  f :     0.003105
      f+1     :     0.000025
      f-1     :     0.000569
      f+2     :    -0.000043
      f-2     :     0.000360
      f+3     :     0.000662
      f-3     :     0.001003

  6 H s       :     0.859398  s :     0.859398
      pz      :     0.004327  p :     0.021089
      px      :     0.009316
      py      :     0.007446

  7 H s       :     0.876420  s :     0.876420
      pz      :     0.010473  p :     0.020735
      px      :     0.004352
      py      :     0.005911

  8 H s       :     0.877777  s :     0.877777
      pz      :     0.008225  p :     0.020743
      px      :     0.004313
      py      :     0.008205

  9 H s       :     0.872271  s :     0.872271
      pz      :     0.008187  p :     0.021348
      px      :     0.004091
      py      :     0.009070

 10 H s       :     0.880193  s :     0.880193
      pz      :     0.010610  p :     0.021206
      px      :     0.004077
      py      :     0.006518

 11 H s       :     0.862731  s :     0.862731
      pz      :     0.010623  p :     0.021458
      px      :     0.004196
      py      :     0.006639

 12 H s       :     0.865447  s :     0.865447
      pz      :     0.008048  p :     0.021336
      px      :     0.004161
      py      :     0.009127

 13 H s       :     0.839173  s :     0.839173
      pz      :     0.004529  p :     0.021328
      px      :     0.011027
      py      :     0.005773

 14 H s       :     0.847659  s :     0.847659
      pz      :     0.011585  p :     0.021509
      px      :     0.004342
      py      :     0.005582

 15 H s       :     0.857176  s :     0.857176
      pz      :     0.007176  p :     0.021168
      px      :     0.004167
      py      :     0.009825


------------------------
MULLIKEN OVERLAP CHARGES
------------------------
B(  0-C ,  1-C ) :   0.6392 B(  0-C ,  2-C ) :  -0.1002 B(  0-C ,  6-H ) :   0.8480 
B(  0-C ,  7-H ) :   0.8206 B(  0-C ,  8-H ) :   0.8134 B(  0-C ,  9-H ) :  -0.0807 
B(  0-C , 10-H ) :  -0.0783 B(  1-C ,  2-C ) :   0.5170 B(  1-C ,  6-H ) :  -0.0960 
B(  1-C ,  7-H ) :  -0.0770 B(  1-C ,  8-H ) :  -0.0657 B(  1-C ,  9-H ) :   0.8490 
B(  1-C , 10-H ) :   0.8455 B(  1-C , 12-H ) :  -0.0682 B(  2-C ,  3-C ) :   0.3016 
B(  2-C ,  4-O ) :  -0.3151 B(  2-C ,  5-C ) :  -0.3795 B(  2-C ,  9-H ) :  -0.0766 
B(  2-C , 10-H ) :  -0.0764 B(  2-C , 11-H ) :   0.7291 B(  2-C , 12-H ) :   0.7599 
B(  3-C ,  4-O ) :   1.4175 B(  3-C ,  5-C ) :   0.7458 B(  3-C , 13-H ) :  -0.0750 
B(  3-C , 15-H ) :  -0.0964 B(  4-O ,  5-C ) :  -0.1802 B(  5-C , 13-H ) :   0.8066 
B(  5-C , 14-H ) :   0.7575 B(  5-C , 15-H ) :   0.7848 B(  7-H ,  8-H ) :  -0.0621 
B( 11-H , 12-H ) :  -0.0547 


                     *******************************
                     * LOEWDIN POPULATION ANALYSIS *
                     *******************************

----------------------
LOEWDIN ATOMIC CHARGES
----------------------
   0 C :   -0.307530
   1 C :   -0.279582
   2 C :   -0.239148
   3 C :   -0.340971
   4 O :    0.105208
   5 C :   -0.261648
   6 H :    0.117544
   7 H :    0.115331
   8 H :    0.114827
   9 H :    0.138813
  10 H :    0.137121
  11 H :    0.152654
  12 H :    0.148959
  13 H :    0.131230
  14 H :    0.138342
  15 H :    0.128851

-------------------------------
LOEWDIN REDUCED ORBITAL CHARGES
-------------------------------
  0 C s       :     2.828428  s :     2.828428
      pz      :     1.068713  p :     3.185985
      px      :     1.048617
      py      :     1.068656
      dz2     :     0.039086  d :     0.268235
      dxz     :     0.036385
      dyz     :     0.066228
      dx2y2   :     0.052300
      dxy     :     0.074237
      f0      :     0.002633  f :     0.024882
      f+1     :     0.002722
      f-1     :     0.003132
      f+2     :     0.004148
      f-2     :     0.002558
      f+3     :     0.005754
      f-3     :     0.003935

  1 C s       :     2.773577  s :     2.773577
      pz      :     1.033943  p :     3.069057
      px      :     1.009561
      py      :     1.025553
      dz2     :     0.049302  d :     0.397543
      dxz     :     0.054848
      dyz     :     0.099591
      dx2y2   :     0.097865
      dxy     :     0.095937
      f0      :     0.004383  f :     0.039405
      f+1     :     0.003430
      f-1     :     0.003886
      f+2     :     0.004527
      f-2     :     0.005901
      f+3     :     0.010590
      f-3     :     0.006688

  2 C s       :     2.770847  s :     2.770847
      pz      :     1.015869  p :     3.054307
      px      :     1.013208
      py      :     1.025230
      dz2     :     0.047310  d :     0.377148
      dxz     :     0.041768
      dyz     :     0.093569
      dx2y2   :     0.111434
      dxy     :     0.083068
      f0      :     0.003533  f :     0.036845
      f+1     :     0.003530
      f-1     :     0.004079
      f+2     :     0.004030
      f-2     :     0.005111
      f+3     :     0.009458
      f-3     :     0.007105

  3 C s       :     2.771818  s :     2.771818
      pz      :     0.663448  p :     2.687397
      px      :     1.025727
      py      :     0.998221
      dz2     :     0.047290  d :     0.773495
      dxz     :     0.063361
      dyz     :     0.134512
      dx2y2   :     0.217001
      dxy     :     0.311332
      f0      :     0.007066  f :     0.108261
      f+1     :     0.003825
      f-1     :     0.009385
      f+2     :     0.014516
      f-2     :     0.007677
      f+3     :     0.043948
      f-3     :     0.021845

  4 O s       :     3.406802  s :     3.406802
      pz      :     1.249686  p :     4.415541
      px      :     1.668158
      py      :     1.497697
      dz2     :     0.007471  d :     0.066810
      dxz     :     0.000280
      dyz     :     0.011964
      dx2y2   :     0.023862
      dxy     :     0.023234
      f0      :     0.000304  f :     0.005639
      f+1     :     0.000155
      f-1     :     0.000806
      f+2     :     0.000596
      f-2     :     0.000059
      f+3     :     0.001985
      f-3     :     0.001735

  5 C s       :     2.827799  s :     2.827799
      pz      :     1.065486  p :     3.180773
      px      :     1.053122
      py      :     1.062165
      dz2     :     0.040431  d :     0.229453
      dxz     :     0.017982
      dyz     :     0.050365
      dx2y2   :     0.063682
      dxy     :     0.056993
      f0      :     0.002955  f :     0.023623
      f+1     :     0.002338
      f-1     :     0.002558
      f+2     :     0.002724
      f-2     :     0.002788
      f+3     :     0.004569
      f-3     :     0.005691

  6 H s       :     0.822301  s :     0.822301
      pz      :     0.013326  p :     0.060155
      px      :     0.024465
      py      :     0.022364

  7 H s       :     0.824771  s :     0.824771
      pz      :     0.029775  p :     0.059898
      px      :     0.012822
      py      :     0.017301

  8 H s       :     0.825267  s :     0.825267
      pz      :     0.023970  p :     0.059906
      px      :     0.012748
      py      :     0.023188

  9 H s       :     0.802807  s :     0.802807
      pz      :     0.023460  p :     0.058380
      px      :     0.012192
      py      :     0.022729

 10 H s       :     0.804977  s :     0.804977
      pz      :     0.028729  p :     0.057903
      px      :     0.012176
      py      :     0.016997

 11 H s       :     0.789134  s :     0.789134
      pz      :     0.028396  p :     0.058213
      px      :     0.012433
      py      :     0.017384

 12 H s       :     0.792863  s :     0.792863
      pz      :     0.022806  p :     0.058179
      px      :     0.012152
      py      :     0.023220

 13 H s       :     0.807629  s :     0.807629
      pz      :     0.013925  p :     0.061141
      px      :     0.029624
      py      :     0.017592

 14 H s       :     0.800773  s :     0.800773
      pz      :     0.032144  p :     0.060886
      px      :     0.012956
      py      :     0.015787

 15 H s       :     0.810270  s :     0.810270
      pz      :     0.021201  p :     0.060879
      px      :     0.012937
      py      :     0.026742


---------------------------------
LOEWDIN BOND ORDERS (THRESH 0.050000)
---------------------------------
B(  0-C ,  1-C ) :   1.2846 B(  0-C ,  2-C ) :   0.1561 B(  0-C ,  6-H ) :   0.9098 
B(  0-C ,  7-H ) :   0.9082 B(  0-C ,  8-H ) :   0.9085 B(  0-C ,  9-H ) :   0.0749 
B(  0-C , 10-H ) :   0.0746 B(  1-C ,  2-C ) :   1.2073 B(  1-C ,  3-C ) :   0.1409 
B(  1-C ,  6-H ) :   0.0788 B(  1-C ,  7-H ) :   0.0770 B(  1-C ,  8-H ) :   0.0769 
B(  1-C ,  9-H ) :   0.8451 B(  1-C , 10-H ) :   0.8464 B(  1-C , 11-H ) :   0.0699 
B(  1-C , 12-H ) :   0.0694 B(  2-C ,  3-C ) :   1.1863 B(  2-C ,  4-O ) :   0.1728 
B(  2-C ,  5-C ) :   0.1492 B(  2-C ,  9-H ) :   0.0760 B(  2-C , 10-H ) :   0.0762 
B(  2-C , 11-H ) :   0.8184 B(  2-C , 12-H ) :   0.8236 B(  3-C ,  4-O ) :   2.6137 
B(  3-C ,  5-C ) :   1.2577 B(  3-C , 11-H ) :   0.0922 B(  3-C , 12-H ) :   0.0877 
B(  3-C , 13-H ) :   0.0851 B(  3-C , 14-H ) :   0.0957 B(  3-C , 15-H ) :   0.0863 
B(  4-O ,  5-C ) :   0.1806 B(  5-C , 13-H ) :   0.8964 B(  5-C , 14-H ) :   0.8785 
B(  5-C , 15-H ) :   0.8901 

------------------------------------------
LOEWDIN REDUCED ORBITAL POPULATIONS PER MO
-------------------------------------------
THRESHOLD FOR PRINTING IS 0.1%%
                      0         1         2         3         4         5   
                 -21.65733 -12.13749 -12.05674 -12.05268 -12.04474 -12.03786
                   2.00000   2.00000   2.00000   2.00000   2.00000   2.00000
                  --------  --------  --------  --------  --------  --------
 0 C  s               0.0       0.0       0.0       0.0       0.7      98.8
 1 C  s               0.0       0.0       0.3       0.0      98.4       0.7
 1 C  dxy             0.0       0.0       0.1       0.0       0.0       0.1
 2 C  s               0.0       0.0      98.8       0.3       0.3       0.0
 2 C  dxy             0.0       0.1       0.0       0.0       0.1       0.0
 3 C  s               0.0      99.1       0.0       0.0       0.0       0.0
 3 C  dxy             0.0       0.0       0.1       0.1       0.0       0.0
 4 O  s              99.7       0.0       0.0       0.0       0.0       0.0
 4 O  py              0.0       0.1       0.0       0.0       0.0       0.0
 4 O  dx2y2           0.0       0.1       0.0       0.0       0.0       0.0
 5 C  s               0.0       0.0       0.3      99.2       0.0       0.0
 5 C  dxy             0.0       0.1       0.0       0.0       0.0       0.0

                      6         7         8         9        10        11   
                  -1.70035  -1.31732  -1.26444  -1.19928  -1.09525  -1.06716
                   2.00000   2.00000   2.00000   2.00000   2.00000   2.00000
                  --------  --------  --------  --------  --------  --------
 0 C  s               0.0       5.5       9.0      15.9       8.0       2.7
 0 C  px              0.0       2.4       1.2       0.1       4.2       2.3
 0 C  py              0.0       0.3       0.3       0.1       1.1       1.6
 0 C  dz2             0.0       0.1       0.1       0.0       0.2       0.1
 0 C  dx2y2           0.0       0.2       0.1       0.0       0.2       0.0
 0 C  dxy             0.0       0.1       0.1       0.1       0.3       0.4
 1 C  s               0.1      15.2       9.2       1.1       6.9       5.6
 1 C  px              0.3       0.5       1.4      11.0       3.1       0.1
 1 C  py              0.0       2.2       0.4       0.0       1.1       3.7
 1 C  dz2             0.0       0.3       0.1       0.0       0.2       0.3
 1 C  dx2y2           0.0       0.1       0.0       0.0       0.5       0.0
 1 C  dxy             0.0       0.2       0.1       1.6       0.3       0.0
 1 C  f-3             0.0       0.1       0.0       0.0       0.0       0.0
 2 C  s               0.5      21.8       0.0      10.6       0.0       3.1
 2 C  pz              0.0       0.0       0.0       0.0       0.0       0.1
 2 C  px              1.0       0.0       7.5       1.1       6.8       1.0
 2 C  py              0.7       1.0       0.6       0.0       0.6       5.6
 2 C  dz2             0.1       0.3       0.0       0.0       0.0       0.3
 2 C  dx2y2           0.0       0.4       0.2       0.2       0.2       0.0
 2 C  dxy             0.4       0.2       0.3       0.2       1.5       0.1
 2 C  f-3             0.0       0.1       0.0       0.0       0.0       0.0
 3 C  s              13.6       7.6       6.8       0.2       4.9       1.8
 3 C  px              0.3       2.4       3.9      13.1       1.3       1.3
 3 C  py             16.1       5.9       7.0       0.0       0.7       4.3
 3 C  dz2             1.1       0.2       0.1       0.0       0.3       0.4
 3 C  dx2y2           3.4       1.3       0.2       0.1       0.1       0.7
 3 C  dxy             0.3       0.0       0.8       1.5       0.2       0.4
 3 C  f-1             0.3       0.0       0.0       0.0       0.0       0.0
 3 C  f+3             0.1       0.0       0.0       0.0       0.0       0.0
 3 C  f-3             0.5       0.0       0.0       0.0       0.0       0.0
 4 O  s              52.5       1.9       1.7       0.1       4.9       8.1
 4 O  px              0.1       0.2       0.1       1.0       1.0       0.2
 4 O  py              4.7       1.6       2.3       0.0      17.9      33.4
 4 O  dz2             0.1       0.0       0.0       0.0       0.1       0.1
 4 O  dx2y2           0.3       0.0       0.1       0.0       0.2       0.3
 4 O  dxy             0.0       0.0       0.0       0.2       0.1       0.0
 5 C  s               0.5       4.5      20.0      10.4       3.7       0.3
 5 C  px              0.5       1.4       1.1       0.4       1.9       0.1
 5 C  py              1.1       0.2       0.4       0.0       1.0       0.8
 5 C  dz2             0.1       0.1       0.1       0.0       0.1       0.0
 5 C  dx2y2           0.1       0.2       0.1       0.1       0.1       0.1
 5 C  dxy             0.3       0.1       0.2       0.0       0.4       0.2
 6 H  s               0.0       0.9       1.8       4.2       3.7       1.4
 6 H  px              0.0       0.1       0.1       0.3       0.1       0.0
 6 H  py              0.0       0.0       0.0       0.2       0.2       0.1
 7 H  s               0.0       1.0       1.8       4.0       3.8       1.8
 7 H  pz              0.0       0.1       0.1       0.3       0.3       0.1
 8 H  s               0.0       1.0       1.8       4.0       3.8       1.8
 8 H  pz              0.0       0.0       0.1       0.2       0.2       0.1
 8 H  py              0.0       0.0       0.1       0.2       0.1       0.0
 9 H  s               0.0       2.5       1.8       0.3       3.1       3.4
 9 H  pz              0.0       0.1       0.1       0.0       0.2       0.2
 9 H  py              0.0       0.2       0.1       0.0       0.1       0.1
10 H  s               0.0       2.6       1.8       0.3       3.1       3.5
10 H  pz              0.0       0.2       0.1       0.0       0.3       0.3
11 H  s               0.1       4.1       0.0       2.9       0.0       2.7
11 H  pz              0.0       0.3       0.0       0.2       0.0       0.2
11 H  py              0.0       0.1       0.0       0.1       0.0       0.0
12 H  s               0.1       4.1       0.0       2.8       0.0       2.9
12 H  pz              0.0       0.2       0.0       0.1       0.0       0.2
12 H  py              0.0       0.3       0.0       0.2       0.0       0.1
13 H  s               0.1       0.7       4.0       3.1       1.9       0.1
13 H  px              0.0       0.1       0.4       0.3       0.1       0.0
14 H  s               0.1       0.9       4.5       2.9       1.8       0.2
14 H  pz              0.0       0.1       0.4       0.3       0.2       0.0
15 H  s               0.1       1.0       4.3       2.7       1.9       0.5
15 H  pz              0.0       0.0       0.1       0.1       0.1       0.0
15 H  py              0.0       0.1       0.3       0.2       0.1       0.0

                     12        13        14        15        16        17   
                  -0.96706  -0.95664  -0.91949  -0.88009  -0.85400  -0.84277
                   2.00000   2.00000   2.00000   2.00000   2.00000   2.00000
                  --------  --------  --------  --------  --------  --------
 0 C  s               0.1       0.0       0.0       0.0       0.0       0.1
 0 C  pz              0.0       0.1       1.6      13.7       0.2       0.2
 0 C  px              0.7       0.1       0.0       0.0       0.0      18.2
 0 C  py              0.6       1.6       0.2       0.1      20.2       2.3
 0 C  dz2             0.0       0.0       0.0       0.0       0.3       0.0
 0 C  dxz             0.0       0.0       0.1       0.3       0.0       0.0
 0 C  dx2y2           0.1       0.1       0.0       0.0       0.0       0.0
 0 C  dxy             0.0       0.2       0.0       0.0       0.0       0.4
 1 C  s               0.1       0.6       0.0       0.0       0.1       0.1
 1 C  pz              0.1       0.2       6.0      22.5       0.0       0.3
 1 C  px              0.2       1.2       0.1       0.0      13.2       3.1
 1 C  py              5.5       4.5       0.4       0.3       5.2       7.6
 1 C  dz2             0.0       0.2       0.0       0.0       0.0       0.1
 1 C  dxz             0.0       0.0       0.1       0.0       0.0       0.0
 1 C  dx2y2           0.5       0.0       0.0       0.0       0.0       0.1
 1 C  dxy             0.3       0.1       0.0       0.0       0.1       0.4
 2 C  s               1.2       0.7       0.0       0.0       0.1       0.5
 2 C  pz              0.1       0.2      14.6       7.9       0.3       0.0
 2 C  px              9.8       6.2       0.1       0.0       1.9       1.1
 2 C  py              7.9       0.4       0.1       0.4      18.9       0.3
 2 C  dz2             0.4       0.1       0.0       0.0       0.4       0.2
 2 C  dxz             0.0       0.0       0.2       1.4       0.0       0.0
 2 C  dx2y2           0.1       0.8       0.0       0.0       0.5       1.0
 2 C  dxy             0.3       0.1       0.0       0.0       0.1       0.0
 2 C  f+3             0.0       0.1       0.0       0.0       0.0       0.0
 3 C  s               0.5       3.3       0.0       0.0       0.4       0.1
 3 C  pz              0.0       0.1      25.8       5.9       0.1       0.0
 3 C  px             14.7       1.8       0.1       0.0       0.1       0.5
 3 C  py              0.8      12.5       0.0       0.0       1.5       0.4
 3 C  dxz             0.0       0.0       0.0       0.8       0.0       0.0
 3 C  dyz             0.0       0.0       0.6       1.0       0.1       0.0
 3 C  dx2y2           0.3       0.1       0.0       0.0       1.6       1.9
 3 C  dxy             2.6       0.5       0.0       0.0       0.6       1.0
 3 C  f0              0.0       0.0       0.3       0.0       0.0       0.0
 3 C  f+2             0.0       0.0       0.1       0.2       0.0       0.0
 3 C  f+3             0.3       0.1       0.0       0.0       0.0       0.0
 4 O  s               0.2       1.1       0.0       0.0       0.1       0.0
 4 O  pz              0.0       0.1      28.5      14.7       0.4       0.1
 4 O  px             32.1      10.6       0.2       0.0       0.0       2.2
 4 O  py              4.4       7.2       0.0       0.0       1.5       0.0
 4 O  dyz             0.0       0.0       0.4       0.1       0.0       0.0
 4 O  dxy             0.2       0.1       0.0       0.0       0.0       0.0
 5 C  s               0.2       1.6       0.0       0.0       0.0       0.0
 5 C  pz              0.0       0.0       6.7       3.5       0.0       0.0
 5 C  px              0.0      17.7       0.0       0.0       0.2      16.0
 5 C  py              3.9       7.2       0.0       0.1       6.1       8.7
 5 C  dz2             0.1       0.3       0.0       0.0       0.0       0.2
 5 C  dxz             0.0       0.0       0.4       0.1       0.0       0.1
 5 C  dyz             0.0       0.0       0.1       0.0       0.1       0.1
 5 C  dx2y2           0.3       0.2       0.0       0.0       0.1       0.5
 5 C  dxy             0.1       0.9       0.0       0.0       0.0       0.3
 6 H  s               0.4       0.0       0.0       0.0       3.3       9.4
 6 H  pz              0.0       0.0       0.0       0.1       0.0       0.0
 6 H  px              0.0       0.0       0.0       0.0       0.2       0.0
 6 H  py              0.0       0.0       0.0       0.0       0.0       0.2
 7 H  s               0.0       0.3       0.3       3.7       2.9       0.1
 7 H  pz              0.0       0.0       0.0       0.0       0.2       0.0
 7 H  px              0.0       0.0       0.0       0.0       0.0       0.3
 7 H  py              0.0       0.0       0.0       0.1       0.1       0.0
 8 H  s               0.0       0.2       0.5       3.1       3.9       0.0
 8 H  pz              0.0       0.0       0.0       0.0       0.2       0.0
 8 H  px              0.0       0.0       0.0       0.0       0.0       0.3
 8 H  py              0.0       0.0       0.0       0.1       0.0       0.0
 9 H  s               0.9       1.1       1.8       5.2       0.8       1.0
 9 H  px              0.0       0.0       0.0       0.0       0.2       0.0
 9 H  py              0.0       0.0       0.1       0.3       0.0       0.0
10 H  s               0.7       1.4       1.1       5.9       0.5       1.4
10 H  pz              0.0       0.1       0.0       0.1       0.0       0.1
10 H  px              0.0       0.0       0.0       0.0       0.2       0.0
10 H  py              0.0       0.0       0.1       0.2       0.0       0.0
11 H  s               3.0       1.1       3.1       2.4       3.8       0.2
11 H  pz              0.2       0.1       0.0       0.0       0.2       0.0
11 H  py              0.0       0.0       0.1       0.1       0.1       0.0
12 H  s               3.4       0.5       3.0       2.7       4.3       0.1
12 H  pz              0.2       0.0       0.0       0.0       0.2       0.0
12 H  py              0.0       0.0       0.2       0.1       0.0       0.0
13 H  s               0.1       4.7       0.1       0.1       0.8      12.9
13 H  px              0.0       0.0       0.0       0.0       0.1       0.2
13 H  py              0.0       0.4       0.0       0.0       0.0       0.0
14 H  s               0.5       2.8       1.7       0.9       0.3       0.2
14 H  pz              0.0       0.2       0.0       0.0       0.0       0.0
14 H  px              0.0       0.2       0.0       0.0       0.0       0.2
15 H  s               1.1       2.9       0.7       0.7       2.2       4.1
15 H  pz              0.1       0.1       0.0       0.0       0.1       0.1
15 H  px              0.0       0.3       0.0       0.0       0.0       0.1

                     18        19        20        21        22        23   
                  -0.83216  -0.83043  -0.81880  -0.78442  -0.77992  -0.75662
                   2.00000   2.00000   2.00000   2.00000   2.00000   2.00000
                  --------  --------  --------  --------  --------  --------
 0 C  s               0.1       0.0       0.0       0.2       0.1       0.0
 0 C  pz              0.1       0.0      25.0       0.1       0.5      11.9
 0 C  px              7.6       4.5       0.0      10.3       0.8       0.0
 0 C  py              1.2       0.2       0.5       0.0      23.1       0.2
 0 C  dz2             0.0       0.0       0.1       0.0       0.8       0.2
 0 C  dxz             0.0       0.0       0.1       0.0       0.0       1.2
 0 C  dyz             0.0       0.0       0.8       0.0       0.0       2.4
 0 C  dx2y2           0.0       0.0       0.0       0.0       1.6       0.1
 0 C  dxy             0.1       0.1       0.0       0.5       1.3       0.0
 0 C  f+2             0.0       0.0       0.1       0.0       0.0       0.1
 0 C  f+3             0.0       0.0       0.0       0.0       0.2       0.0
 1 C  s               0.0       0.0       0.0       0.1       0.3       0.0
 1 C  pz              0.0       0.0       0.6       0.0       0.3      21.4
 1 C  px              6.7       2.9       0.0       6.3       0.2       0.0
 1 C  py              1.3       0.9       0.0       1.0      16.8       0.4
 1 C  dz2             0.0       0.0       0.0       0.0       0.7       0.3
 1 C  dxz             0.0       0.0       2.2       0.0       0.0       0.2
 1 C  dyz             0.0       0.0       0.1       0.0       0.0       4.7
 1 C  dx2y2           0.0       0.0       0.0       0.7       2.6       0.1
 1 C  dxy             0.2       0.1       0.1       0.2       0.8       0.0
 1 C  f0              0.0       0.0       0.0       0.0       0.0       0.2
 1 C  f+2             0.0       0.0       0.0       0.0       0.0       0.2
 1 C  f-2             0.0       0.0       0.3       0.0       0.0       0.0
 1 C  f+3             0.0       0.0       0.0       0.2       0.1       0.0
 2 C  s               0.1       0.0       0.0       0.1       0.4       0.0
 2 C  pz              0.0       0.1      21.6       0.1       0.2       5.4
 2 C  px              0.1       0.0       0.0      11.1       3.0       0.0
 2 C  py              2.5       0.7       0.5       3.0       7.8       0.1
 2 C  dz2             0.0       0.0       0.1       0.0       0.1       0.2
 2 C  dxz             0.0       0.0       0.0       0.0       0.0       0.4
 2 C  dyz             0.1       0.1       1.8       0.0       0.0       2.6
 2 C  dx2y2           0.2       0.2       0.1       0.7       0.9       0.0
 2 C  dxy             0.2       0.1       0.0       0.3       0.1       0.0
 2 C  f+2             0.0       0.0       0.1       0.0       0.0       0.0
 2 C  f-2             0.0       0.0       0.0       0.0       0.0       0.1
 3 C  s               0.1       0.1       0.0       0.1       0.1       0.0
 3 C  pz              0.3       0.7       0.1       0.0       0.0       0.1
 3 C  px              0.3       0.1       0.0      11.5       0.0       0.0
 3 C  py              0.3       0.2       0.0       0.1       0.1       0.0
 3 C  dxz             0.3       0.4       1.4       0.0       0.0       0.2
 3 C  dyz             1.2       2.8       0.8       0.0       0.0       0.2
 3 C  dx2y2           0.0       0.0       0.0       0.7       0.2       0.0
 3 C  dxy             0.8       0.5       0.0       6.0       0.2       0.0
 3 C  f+2             0.1       0.1       0.1       0.0       0.0       0.0
 3 C  f-2             0.1       0.2       0.1       0.0       0.0       0.0
 3 C  f+3             0.7       0.3       0.0       0.3       0.1       0.0
 3 C  f-3             0.2       0.1       0.0       0.1       0.0       0.0
 4 O  pz              4.5      10.3       3.5       0.0       0.0       0.4
 4 O  px             10.8       5.1       0.1      19.8       0.1       0.0
 4 O  py              0.9       0.4       0.0       0.2       0.1       0.0
 4 O  dxy             0.1       0.0       0.0       0.5       0.0       0.0
 5 C  s               0.0       0.0       0.0       0.3       0.0       0.0
 5 C  pz             12.7      28.7       1.2       0.2       0.0       0.1
 5 C  px              1.4       1.3       0.1      10.1       0.4       0.0
 5 C  py             15.1       5.9       0.1       2.4       0.0       0.0
 5 C  dz2             0.0       0.9       0.0       0.0       0.0       0.0
 5 C  dxz             0.0       0.2       0.0       0.0       0.0       0.0
 5 C  dyz             1.3       0.8       0.0       0.0       0.0       0.0
 5 C  dx2y2           0.8       0.3       0.0       0.2       0.0       0.0
 5 C  dxy             0.0       0.1       0.0       0.1       0.0       0.0
 6 H  s               1.1       1.0       0.0       3.6      10.3       0.0
 6 H  pz              0.0       0.0       0.3       0.0       0.0       0.2
 6 H  px              0.0       0.0       0.0       0.0       0.3       0.0
 6 H  py              0.1       0.1       0.0       0.1       0.0       0.0
 7 H  s               0.6       0.2       9.0       0.1       4.8       6.9
 7 H  pz              0.0       0.0       0.1       0.0       0.2       0.0
 7 H  px              0.1       0.1       0.0       0.1       0.0       0.0
 7 H  py              0.0       0.0       0.2       0.0       0.1       0.1
 8 H  s               0.4       0.1       8.6       0.2       5.2       6.8
 8 H  pz              0.0       0.0       0.0       0.0       0.2       0.0
 8 H  px              0.1       0.1       0.0       0.1       0.0       0.0
 8 H  py              0.0       0.0       0.3       0.0       0.0       0.1
 9 H  s               0.4       0.3       0.3       0.7       5.0      11.5
 9 H  pz              0.0       0.0       0.0       0.0       0.2       0.0
 9 H  px              0.1       0.0       0.0       0.1       0.0       0.0
 9 H  py              0.0       0.0       0.0       0.0       0.0       0.2
10 H  s               0.3       0.2       0.2       0.3       4.9      11.9
10 H  pz              0.0       0.0       0.0       0.0       0.2       0.0
10 H  px              0.1       0.0       0.0       0.1       0.0       0.0
10 H  py              0.0       0.0       0.0       0.0       0.1       0.2
11 H  s               0.2       0.2       8.9       1.2       1.6       4.1
11 H  px              0.0       0.0       0.0       0.2       0.1       0.0
11 H  py              0.0       0.0       0.2       0.0       0.1       0.0
12 H  s               0.5       0.0       9.0       1.1       1.7       3.6
12 H  px              0.0       0.0       0.0       0.2       0.1       0.0
12 H  py              0.0       0.0       0.3       0.0       0.0       0.0
13 H  s               2.2       6.4       0.2       2.6       0.2       0.0
13 H  pz              0.3       0.2       0.0       0.0       0.0       0.0
13 H  px              0.1       0.3       0.0       0.0       0.0       0.0
13 H  py              0.0       0.0       0.0       0.1       0.0       0.0
14 H  s               2.7      19.1       0.6       0.6       0.0       0.1
14 H  pz              0.0       0.3       0.0       0.0       0.0       0.0
14 H  px              0.0       0.0       0.0       0.2       0.0       0.0
14 H  py              0.4       0.0       0.0       0.0       0.0       0.0
15 H  s              17.2       0.9       0.1       0.1       0.1       0.0
15 H  pz              0.1       0.2       0.0       0.0       0.0       0.0
15 H  px              0.0       0.0       0.0       0.2       0.0       0.0
15 H  py              0.2       0.3       0.0       0.0       0.0       0.0

                     24        25        26        27        28        29   
                  -0.30386  -0.05654  -0.04765  -0.02202  -0.00264   0.01088
                   0.00000   0.00000   0.00000   0.00000   0.00000   0.00000
                  --------  --------  --------  --------  --------  --------
 0 C  s               0.0       3.2       0.7       1.0       6.8       2.3
 0 C  pz              0.0       0.0       0.0       0.0       0.1       5.3
 0 C  px              0.0       2.2       1.7       0.6       0.7       0.4
 0 C  py              0.0       1.6       1.1       0.1       0.3       0.0
 0 C  dz2             0.0       1.4       0.6       0.1       0.1       0.2
 0 C  dxz             0.0       0.0       0.0       0.0       0.1       0.6
 0 C  dyz             0.0       0.0       0.0       0.0       0.1       1.5
 0 C  dx2y2           0.0       2.1       1.2       0.3       0.0       0.1
 0 C  dxy             0.0       0.0       0.8       0.5       0.7       0.1
 0 C  f+2             0.0       0.0       0.0       0.0       0.0       0.1
 0 C  f+3             0.0       0.1       0.0       0.1       0.1       0.0
 0 C  f-3             0.0       0.1       0.0       0.0       0.1       0.0
 1 C  s               0.0       2.0       6.3       0.7       0.9       0.1
 1 C  pz              0.0       0.1       0.0       0.1       0.5       5.7
 1 C  px              0.0       0.1       0.9       7.7       0.2       0.4
 1 C  py              0.0       3.9       0.7       1.7       1.5       0.8
 1 C  dz2             0.0       2.4       0.0       0.5       2.1       0.0
 1 C  dxz             0.0       0.0       0.0       0.2       0.0       0.0
 1 C  dyz             0.1       0.0       0.0       0.1       0.2       7.3
 1 C  dx2y2           0.0       4.4       0.1       0.8       0.1       0.2
 1 C  dxy             0.0       0.0       0.3       6.8       0.0       0.4
 1 C  f0              0.0       0.0       0.0       0.0       0.0       0.2
 1 C  f+1             0.0       0.0       0.0       0.1       0.0       0.0
 1 C  f+2             0.0       0.0       0.0       0.0       0.0       0.3
 1 C  f+3             0.0       0.0       0.0       0.1       0.0       0.0
 1 C  f-3             0.0       0.6       0.1       0.0       0.1       0.0
 2 C  s               0.0       3.9       1.7       7.5       2.3       0.1
 2 C  pz              0.2       0.1       0.2       0.0       1.2      14.5
 2 C  px              0.0       2.3       4.1       5.7       0.5       0.4
 2 C  py              0.0       5.6       3.5       1.6       1.6       0.0
 2 C  dz2             0.1       3.3       2.2       0.0       0.0       0.8
 2 C  dxz             3.2       0.0       0.1       0.1       0.1       0.5
 2 C  dyz             2.0       0.1       0.1       0.0       0.8       5.0
 2 C  dx2y2           0.0       5.7       0.2       0.7       0.1       0.2
 2 C  dxy             0.0       0.2       9.0       5.4       0.0       0.1
 2 C  f0              0.2       0.0       0.0       0.0       0.0       0.0
 2 C  f+1             0.0       0.0       0.1       0.1       0.0       0.0
 2 C  f-1             0.0       0.0       0.0       0.2       0.0       0.0
 2 C  f+2             0.3       0.0       0.0       0.0       0.0       0.2
 2 C  f-2             0.1       0.0       0.0       0.0       0.0       0.1
 2 C  f+3             0.0       0.2       0.1       0.0       0.0       0.0
 2 C  f-3             0.0       0.7       0.0       0.0       0.0       0.0
 3 C  s               0.0       9.9       4.5       1.4       2.1       0.4
 3 C  pz             45.6       0.0       0.0       0.0       0.0       0.8
 3 C  px              0.1       0.5       0.0       0.4       6.1       0.0
 3 C  py              0.0       3.9       3.8       0.2       0.4       0.2
 3 C  dz2             0.0       5.1       5.8       0.3       1.4       0.2
 3 C  dxz             0.0       0.0       0.1       0.0       0.0       0.4
 3 C  dyz             2.0       0.0       0.0       0.0       0.0       0.0
 3 C  dx2y2           0.0       3.0       4.4       0.3       1.7       0.0
 3 C  dxy             0.0       0.4       0.9       0.2       1.3       0.0
 3 C  f0              0.6       0.0       0.0       0.0       0.0       0.1
 3 C  f+1             0.0       0.0       0.0       0.0       0.2       0.0
 3 C  f+2             0.6       0.0       0.0       0.0       0.0       0.1
 3 C  f+3             0.0       0.4       0.0       0.1       0.6       0.0
 3 C  f-3             0.0       1.1       1.0       0.1       0.1       0.1
 4 O  s               0.0       0.1       3.2       0.1       0.8       0.2
 4 O  pz             30.3       0.0       0.0       0.0       0.0       0.1
 4 O  px              0.0       0.0       0.7       0.2       1.2       0.0
 4 O  py              0.0       0.5       5.8       0.2       2.5       0.2
 4 O  dz2             0.0       0.0       0.2       0.0       0.1       0.0
[...]
 4 O  f-2             1.9       0.4      74.2       0.4       1.9       0.0
 4 O  f+3             0.5       3.3       0.0       5.4       0.1       5.3
 4 O  f-3             0.2       1.1       0.2      28.7       0.0      24.7
 5 C  s               0.0       0.1       0.0       0.3       0.0       0.0
 5 C  px              0.0       0.1       0.0       0.6       0.0       0.2
 5 C  py              0.0       0.0       0.0       0.2       0.0       0.1
 5 C  dz2             0.0       0.1       0.0       0.3       0.0       0.0
 5 C  dxz             0.0       0.0       0.4       0.0       0.1       0.0
 5 C  dyz             0.1       0.0       0.3       0.0       0.0       0.0
 5 C  dx2y2           0.0       0.0       0.0       0.3       0.0       0.0
 5 C  dxy             0.0       0.2       0.0       0.7       0.0       0.0
 5 C  f0              0.1       0.1       0.0       0.0       0.0       0.0
 5 C  f+2             0.1       0.0       0.7       0.0       0.2       0.0
 5 C  f-2             0.1       0.0       0.3       0.0       0.2       0.0
 5 C  f-3             0.0       0.0       0.1       0.4       0.0       0.1
12 H  s               0.0       0.0       0.1       0.0       0.1       0.0
15 H  s               0.0       0.0       0.1       0.0       0.0       0.0

                    234       235       236       237       238       239   
                   5.93070   6.09242   6.11226   6.40592   6.59670   6.61646
                   0.00000   0.00000   0.00000   0.00000   0.00000   0.00000
                  --------  --------  --------  --------  --------  --------
 1 C  px              0.0       0.1       0.0       0.0       0.0       0.0
 2 C  s               0.0       0.9       0.3       0.0       0.1       0.1
 2 C  pz              0.2       0.0       0.0       0.0       0.0       0.0
 2 C  px              0.0       0.2       0.6       0.0       0.0       0.1
 2 C  py              0.0       0.5       0.0       0.0       0.0       0.0
 2 C  dx2y2           0.0       0.1       0.4       0.0       0.1       0.1
 2 C  dxy             0.0       0.2       0.5       0.0       0.0       0.1
 2 C  f+3             0.0       0.1       1.0       0.0       0.0       0.0
 2 C  f-3             0.0       0.1       0.3       0.0       0.0       0.2
 3 C  s               0.0       1.4       0.1       0.0       1.8       2.2
 3 C  pz              0.0       0.0       0.0       1.9       0.0       0.0
 3 C  px              0.0       0.0       0.9       0.0       1.0       1.1
 3 C  py              0.0       0.4       0.0       0.0       0.9       1.2
 3 C  dz2             0.0       0.3       0.0       0.0       0.1       0.1
 3 C  dxz             0.8       0.0       0.0       0.1       0.0       0.0
 3 C  dyz             0.0       0.0       0.0       3.0       0.0       0.0
 3 C  dx2y2           0.0       1.0       0.4       0.0       0.5       0.2
 3 C  dxy             0.0       0.5       4.6       0.0       2.0       2.0
 3 C  f0              0.0       0.0       0.0       0.3       0.0       0.0
 3 C  f+1             0.0       0.0       0.4       0.0       0.1       0.1
 3 C  f-1             0.0       0.0       0.0       0.0       0.2       0.2
 3 C  f+2             0.0       0.0       0.0       0.3       0.0       0.0
 3 C  f-2             0.2       0.0       0.0       0.0       0.0       0.0
 3 C  f+3             0.0       0.6      12.5       0.0       0.2       1.3
 3 C  f-3             0.0       0.1       2.4       0.0       1.4       0.5
 4 O  s               0.0       0.2       0.0       0.0       0.9       1.0
 4 O  pz              0.0       0.0       0.0       2.2       0.0       0.0
 4 O  px              0.0       0.1       1.6       0.0       1.5       1.9
 4 O  py              0.0       0.0       0.1       0.0       1.5       1.1
 4 O  dz2             0.3      64.2       3.2       0.0       7.2       9.8
 4 O  dxz            91.9       0.5       0.0       1.4       0.0       0.0
 4 O  dyz             1.8       0.0       0.0      66.2       0.0       0.0
 4 O  dx2y2           0.3      20.5       0.7       0.0      42.2      13.8
 4 O  dxy             0.0       0.1      33.5       0.0      17.0      42.8
 4 O  f0              0.0       0.0       0.0       9.0       0.0       0.0
 4 O  f+1             0.0       0.0       1.9       0.0       0.5       1.2
 4 O  f-1             0.0       2.9       0.0       0.0       3.0       2.9
 4 O  f+2             0.4       0.0       0.0      14.1       0.0       0.0
 4 O  f-2             3.3       0.0       0.0       1.1       0.0       0.0
 4 O  f+3             0.0       2.9      24.7       0.0       6.9      15.1
 4 O  f-3             0.0       0.3       6.5       0.0      10.3       0.3
 5 C  s               0.0       0.5       0.1       0.0       0.1       0.1
 5 C  pz              0.2       0.0       0.0       0.0       0.0       0.0
 5 C  px              0.0       0.1       0.1       0.0       0.1       0.0
 5 C  py              0.0       0.3       0.1       0.0       0.0       0.0
 5 C  dx2y2           0.0       0.0       1.0       0.0       0.0       0.1
 5 C  dxy             0.0       0.0       0.2       0.0       0.1       0.0
 5 C  f+3             0.0       0.0       0.9       0.0       0.0       0.0
 5 C  f-3             0.0       0.0       0.1       0.0       0.1       0.0

                    240       241       242       243       244       245   
                  20.70648  20.73989  20.85377  20.91418  21.40734  41.51307
                   0.00000   0.00000   0.00000   0.00000   0.00000   0.00000
                  --------  --------  --------  --------  --------  --------
 0 C  s              56.0      36.8       5.0       0.7       0.0       0.0
 1 C  s               4.5       1.0      49.1      43.7       0.2       0.0
 2 C  s               2.3       2.2      41.6      51.7       0.7       0.0
 3 C  s               0.9       0.4       0.4       0.2      95.0       0.0
 3 C  px              0.0       0.1       0.1       0.0       0.0       0.0
 3 C  py              0.1       0.0       0.0       0.0       0.4       0.0
 3 C  dxy             0.0       0.1       0.1       0.0       0.0       0.0
 4 O  s               0.0       0.0       0.1       0.0       1.1      99.9
 4 O  py              0.0       0.0       0.0       0.0       0.7       0.0
 5 C  s              34.7      58.1       2.2       2.3       1.1       0.0
 6 H  s               0.1       0.1       0.0       0.0       0.0       0.0
 7 H  s               0.1       0.1       0.0       0.0       0.0       0.0
 8 H  s               0.1       0.1       0.0       0.0       0.0       0.0
 9 H  s               0.0       0.0       0.1       0.1       0.0       0.0
10 H  s               0.0       0.0       0.1       0.1       0.0       0.0
11 H  s               0.0       0.0       0.1       0.1       0.0       0.0
12 H  s               0.0       0.0       0.1       0.1       0.0       0.0
13 H  s               0.1       0.1       0.0       0.0       0.0       0.0
14 H  s               0.1       0.1       0.0       0.0       0.0       0.0
15 H  s               0.1       0.1       0.0       0.0       0.0       0.0



                      *****************************
                      * MAYER POPULATION ANALYSIS *
                      *****************************

  NA   - Mulliken gross atomic population
  ZA   - Total nuclear charge
  QA   - Mulliken gross atomic charge
  VA   - Mayer's total valence
  BVA  - Mayer's bonded valence
  FA   - Mayer's free valence

  ATOM       NA         ZA         QA         VA         BVA        FA
  0 C      6.3292     6.0000    -0.3292     3.9100     3.9100    -0.0000
  1 C      6.1450     6.0000    -0.1450     3.9336     3.9336     0.0000
  2 C      6.2238     6.0000    -0.2238     3.7592     3.7592     0.0000
  3 C      5.7864     6.0000     0.2136     4.0617     4.0617    -0.0000
  4 O      8.3233     8.0000    -0.3233     2.1460     2.1460    -0.0000
  5 C      6.3422     6.0000    -0.3422     3.8265     3.8265    -0.0000
  6 H      0.8805     1.0000     0.1195     0.9735     0.9735    -0.0000
  7 H      0.8972     1.0000     0.1028     0.9727     0.9727    -0.0000
  8 H      0.8985     1.0000     0.1015     0.9724     0.9724     0.0000
  9 H      0.8936     1.0000     0.1064     0.9828     0.9828    -0.0000
 10 H      0.9014     1.0000     0.0986     0.9801     0.9801     0.0000
 11 H      0.8842     1.0000     0.1158     0.9730     0.9730    -0.0000
 12 H      0.8868     1.0000     0.1132     0.9712     0.9712     0.0000
 13 H      0.8605     1.0000     0.1395     0.9917     0.9917    -0.0000
 14 H      0.8692     1.0000     0.1308     0.9749     0.9749    -0.0000
 15 H      0.8783     1.0000     0.1217     0.9712     0.9712    -0.0000

  Mayer bond orders larger than 0.100000
B(  0-C ,  1-C ) :   0.9723 B(  0-C ,  6-H ) :   0.9869 B(  0-C ,  7-H ) :   0.9803 
B(  0-C ,  8-H ) :   0.9789 B(  1-C ,  2-C ) :   0.9973 B(  1-C ,  9-H ) :   0.9742 
B(  1-C , 10-H ) :   0.9757 B(  2-C ,  3-C ) :   0.9614 B(  2-C , 11-H ) :   0.9384 
B(  2-C , 12-H ) :   0.9531 B(  3-C ,  4-O ) :   2.1173 B(  3-C ,  5-C ) :   0.9825 
B(  5-C , 13-H ) :   0.9786 B(  5-C , 14-H ) :   0.9513 B(  5-C , 15-H ) :   0.9660 


-------
TIMINGS
-------

Total SCF time: 0 days 0 hours 2 min 0 sec 

Total time                  ....     120.135 sec
Sum of individual times     ....     117.635 sec  ( 97.9%)

SCF preparation             ....       0.234 sec  (  0.2%)
Fock matrix formation       ....     116.212 sec  ( 96.7%)
  Startup                   ....       0.060 sec  (  0.1% of F)
  Split-RI-J                ....       4.209 sec  (  3.6% of F)
  Chain of spheres X        ....      98.587 sec  ( 84.8% of F)
  XC integration            ....      14.893 sec  ( 12.8% of F)
    XC Preparation          ....       0.000 sec  (  0.0% of XC)
    Basis function eval.    ....       3.689 sec  ( 24.8% of XC)
    Density eval.           ....       2.650 sec  ( 17.8% of XC)
    XC-Functional eval.     ....       3.559 sec  ( 23.9% of XC)
    XC-Potential eval.      ....       4.242 sec  ( 28.5% of XC)
Diagonalization             ....       0.000 sec  (  0.0%)
Density matrix formation    ....       0.197 sec  (  0.2%)
Total Energy calculation    ....       0.046 sec  (  0.0%)
Population analysis         ....       0.164 sec  (  0.1%)
Orbital Transformation      ....       0.069 sec  (  0.1%)
Orbital Orthonormalization  ....       0.000 sec  (  0.0%)
DIIS solution               ....       0.320 sec  (  0.3%)
  MO trafo                  ....       0.000 sec  (  0.0 % of DIIS)
  Orb grad                  ....       0.000 sec  (  0.0 % of DIIS)
  Energy W gradient         ....       0.000 sec  (  0.0 % of DIIS)
  DIIS error                ....       0.020 sec  (  6.4 % of DIIS)
  DIIS work                 ....       0.254 sec  ( 79.4 % of DIIS)
  Form Q                    ....       0.000 sec  (  0.0 % of DIIS)
  Form QpQm                 ....       0.000 sec  (  0.0 % of DIIS)
  Exp/Cayley                ....       0.000 sec  (  0.0 % of DIIS)
  Orb update                ....       0.000 sec  (  0.0 % of DIIS)
  Wake-sleep                ....       0.013 sec  (  4.1 % of DIIS)
SOSCF solution              ....       0.208 sec  (  0.2%)
  MO trafo                  ....       0.080 sec  ( 38.6 % of SOSCF)
  Orb grad                  ....       0.003 sec  (  1.3 % of SOSCF)
  Rot update                ....       0.062 sec  ( 29.9 % of SOSCF)
  Step                      ....       0.063 sec  ( 30.1 % of SOSCF)
Grid generation             ....       0.185 sec  (  0.2%)
Finished LeanSCF after 120.2 sec

Maximum memory used throughout the entire LEANSCF-calculation: 29.4 MB
------------------   -----------------
gCP correction             0.010611630
------------------   -----------------

-------------------------   --------------------
FINAL SINGLE POINT ENERGY      -271.793754226590
-------------------------   --------------------


------------------------------------------------------------------------------
                              ORCA PROPERTY CALCULATIONS
------------------------------------------------------------------------------

GBWName                                 ... sp_gas.gbw
Number of atoms                         ...     16
Number of basis functions               ...    246
Max core memory                         ...   1024 MB

Electric properties:
Dipole moment                           ... YES
Quadrupole moment                       ...  NO
Static polarizability (Dipole/Dipole)   ...  NO
Static polarizability (Dipole/Quad.)    ...  NO
Static polarizability (Quad./Quad.)     ...  NO
Static polarizability (Velocity)        ...  NO

Atomic electric properties:
Dipole moment                           ...  NO
Quadrupole moment                       ...  NO
Static polarizability                   ...  NO

Choice of electric origin               ... Center of mass
Position of electric origin             ...     0.009162     0.007399    -0.007703

General magnetic properties:
Magnetizability                         ...  NO

EPR properties:
g-Tensor (aka g-matrix)                 ...  NO
Zero-Field splitting spin-orbit         ...  NO
Zero-field splitting spin-spin          ...  NO
Hyperfine couplings                     ...  NO (   0 nuclei)
Quadrupole couplings                    ...  NO (   0 nuclei)
Contact density                         ...  NO (   0 nuclei)

NMR properties:
Chemical shifts                         ...  NO (   0 nuclei)
Spin-rotation constants                 ...  NO (   0 nuclei)
Spin-spin couplings                     ...  NO (   0 nuclei,    0 pairs)

Choice of magnetic origin               ... GIAO
Position of magnetic origin             ...     0.000000     0.000000     0.000000

Properties with geometric perturbations:
SCF Hessian                             ...  NO
IR spectrum                             ...  NO
VCD spectrum                            ...  NO
X-ray spectroscopy properties:
SCF XES/XAS/RIXS spectra                ...  NO


-------------
DIPOLE MOMENT
-------------

Method             : SCF
Type of density    : Electron Density
Multiplicity       :   1
Irrep              :   0
Energy             :  -271.8043658565899250 Eh
Relativity type    : 
Basis              : AO
                                X                 Y                 Z
Electronic contribution:      4.755110206       3.669941072       0.095422026
Nuclear contribution   :     -4.960682431      -4.799699880      -0.100894697
                        -----------------------------------------
Total Dipole Moment    :     -0.205572225      -1.129758807      -0.005472671
                        -----------------------------------------
Magnitude (a.u.)       :      1.148322626
Magnitude (Debye)      :      2.918804153



--------------------
Rotational spectrum 
--------------------
 
Rotational constants in cm-1:             0.276337             0.060238             0.051402 
Rotational constants in MHz :          8284.381263          1805.899285          1540.988533 

Dipole components along the rotational axes: 
x,y,z [a.u.] :    -0.204419    -1.129844    -0.017588 
x,y,z [Debye]:    -0.519592    -2.871836    -0.044706 

 

Dipole moment calculation done in   0.0 sec 

Maximum memory used throughout the entire PROP-calculation: 17.4 MB

--------------------------------
SUGGESTED CITATIONS FOR THIS RUN
--------------------------------

Below you find a list of papers that are relevant to this ORCA run
We neither can nor want to force you to cite these papers, but we appreciate if you do
You receive ORCA, which is the product of decades of hard work by many enthusiastic individuals, for free
The only thing we kindly ask in return is that you cite our papers,
We deeply appreciate it, if you show your appreciation for ORCA by not just citing the generic ORCA reference.

Please note that relegating all ORCA citations to the supporting information does *not* help us.
SI sections are not indexed - citations you put there will not count into any citation statistics
But we need these citations in order to attract the funding resources that allow us to do what we are doing

Therefore, if you are a happy ORCA user, please consider citing a few of the papers listed below in the main body of your paper

In addition to the list printed below, the program has created the file sp_gas.bibtex that contains the list in bibtex format
You can import this file easily into all common literature databanks and citation aid programs


List of essential papers. We consider these as the minimum necessary citations

  1. Neese,F.
     Software update: the ORCA program system, version 5.0
     WIRES Comput. Molec. Sci., 2022 12(1)e1606
     doi.org/10.1002/wcms.1606

List of papers to cite with high priority. The work reported in these papers was absolutely
necessary for this run to complete.
Our perspective: the developers of density functionals and basis sets usually get cited in chemistry papers
Good! But without the algorithms to do something with them, the functionals or basis sets would not do anything.
Hence, in our opinion, the algorithm design and method developments papers are equally worthy of getting cited

  1. Neese,F.
     An improvement of the resolution of the identity approximation for the formation of the Coulomb matrix
     J. Comp. Chem., 2003 24(14)1740-1747
     doi.org/10.1002/jcc.10318
  2. Neese,F.; Wennmohs,F.; Hansen,A.; Becker,U.
     Efficient, approximate and parallel Hartree-Fock and hybrid DFT calculations. A 'chain-of-spheres' algorithm for the Hartree-Fock exchange
     Chem. Phys., 2009 356(1-3)98-109
     doi.org/10.1016/j.chemphys.2008.10.036
  3. Helmich-Paris,B.; de Souza,B.; Neese,F.; Izsák,R.
     An improved chain of spheres for exchange algorithm
     J. Chem. Phys., 2021 155 104109
     doi.org/doi: 10.1063/5.0058766.
  4. Neese,F.
     The SHARK Integral Generation and Digestion System
     J. Comp. Chem., 2022  1-16
     doi.org/10.1002/jcc.26942

List of suggested additional citations. These are papers that are important in the 'surrounding' of 
of this run, or papers that preceded the highly important papers. If you like your results we are grateful for a citation.

  1. Izsak,R.; Neese,F.
     An overlap fitted chain of spheres exchange method
     J. Chem. Phys., 2011 135 144105
     doi.org/10.1063/1.3646921
  2. Izsak,R.; Hansen,A.; Neese,F.
     The resolution of identity and chain of spheres approximations for the LPNO-CCSD singles Fock term
     Molec. Phys., 2012 110 2413-2417
     doi.org/10.1080/00268976.2012.687466
  3. Neese,F.
     The ORCA program system
     WIRES Comput. Molec. Sci., 2012 2(1)73-78
     doi.org/10.1002/wcms.81
  4. Izsak,R.; Neese,F.; Klopper,W.
     Robust fitting techniques in the chain of spheres approximation to the Fock exchange: The role of the complementary space
     J. Chem. Phys., 2013 139 
     doi.org/10.1063/1.4819264
  5. Neese,F.
     Software update: the ORCA program system, version 4.0
     WIRES Comput. Molec. Sci., 2018 8(1)1-6
     doi.org/10.1002/wcms.1327
  6. Neese,F.; Wennmohs,F.; Becker,U.; Riplinger,C.
     The ORCA quantum chemistry program package
     J. Chem. Phys., 2020 152 Art. No. L224108
     doi.org/10.1063/5.0004608

List of optional additional citations

  1. Neese,F.
     Approximate second-order SCF convergence for spin unrestricted wavefunctions
     Chem. Phys. Lett., 2000 325(1-3)93-98
     doi.org/10.1016/s0009-2614(00)00662-x

Timings for individual modules:

Sum of individual times          ...      122.866 sec (=   2.048 min)
Startup calculation              ...        2.188 sec (=   0.036 min)   1.8 %
SCF iterations                   ...      120.558 sec (=   2.009 min)  98.1 %
Property calculations            ...        0.120 sec (=   0.002 min)   0.1 %
                             ****ORCA TERMINATED NORMALLY****
TOTAL RUN TIME: 0 days 0 hours 2 minutes 3 seconds 531 msec
