      -----------------------------------------------------------      
     |                   =====================                   |     
     |                           x T B                           |     
     |                   =====================                   |     
     |                         S. Grimme                         |     
     |          Mulliken Center for Theoretical Chemistry        |     
     |                    University of Bonn                     |     
      -----------------------------------------------------------      

   * xtb version 6.7.1 (edcfbbe) compiled by 'albert@albert-system' on 2024-07-22

   xtb is free software: you can redistribute it and/or modify it under
   the terms of the GNU Lesser General Public License as published by
   the Free Software Foundation, either version 3 of the License, or
   (at your option) any later version.
   
   xtb is distributed in the hope that it will be useful,
   but WITHOUT ANY WARRANTY; without even the implied warranty of
   MERCHANTABILITY or FITNESS FOR A PARTICULAR PURPOSE.  See the
   GNU Lesser General Public License for more details.
   
   Cite this work as:
   * C. Bannwarth, E. Caldeweyher, S. Ehlert, A. Hansen, P. Pracht,
     J. Seibert, S. Spicher, S. Grimme, WIREs Comput. Mol. Sci., 2020, 11,
     e01493. DOI: 10.1002/wcms.1493
   
   for GFN2-xTB:
   * C. Bannwarth, S. Ehlert and S. Grimme., J. Chem. Theory Comput., 2019,
     15, 1652-1671. DOI: 10.1021/acs.jctc.8b01176
   for GFN1-xTB:
   * S. Grimme, C. Bannwarth, P. Shushkov, J. Chem. Theory Comput., 2017,
     13, 1989-2009. DOI: 10.1021/acs.jctc.7b00118
   for GFN0-xTB:
   * P. Pracht, E. Caldeweyher, S. Ehlert, S. Grimme, ChemRxiv, 2019, preprint.
     DOI: 10.26434/chemrxiv.8326202.v1
   for GFN-FF:
   * S. Spicher and S. Grimme, Angew. Chem. Int. Ed., 2020, 59, 15665-15673.
     DOI: 10.1002/anie.202004239
   
   for ALPB and GBSA implicit solvation:
   * S. Ehlert, M. Stahn, S. Spicher, S. Grimme, J. Chem. Theory Comput.,
     2021, 17, 4250-4261. DOI: 10.1021/acs.jctc.1c00471
   
   for ddCOSMO and CPCM-X implicit solvation:
   * M. Stahn, S. Ehlert, S. Grimme, J. Phys. Chem. A,
     2023, XX, XXXX-XXXX. DOI: 10.1021/acs.jpca.3c04382
   
   for DFT-D4:
   * E. Caldeweyher, C. Bannwarth and S. Grimme, J. Chem. Phys., 2017,
     147, 034112. DOI: 10.1063/1.4993215
   * E. Caldeweyher, S. Ehlert, A. Hansen, H. Neugebauer, S. Spicher,
     C. Bannwarth and S. Grimme, J. Chem. Phys., 2019, 150, 154122.
     DOI: 10.1063/1.5090222
   * E. Caldeweyher, J.-M. Mewes, S. Ehlert and S. Grimme, Phys. Chem. Chem. Phys.
     2020, 22, 8499-8512. DOI: 10.1039/D0CP00502A
   
   for sTDA-xTB:
   * S. Grimme and C. Bannwarth, J. Chem. Phys., 2016, 145, 054103.
     DOI: 10.1063/1.4959605
   
   in the mass-spec context:
   * V. Asgeirsson, C. Bauer and S. Grimme, Chem. Sci., 2017, 8, 4879.
     DOI: 10.1039/c7sc00601b
   * J. Koopman and S. Grimme, ACS Omega 2019, 4, 12, 15120-15133.
     DOI: 10.1021/acsomega.9b02011
   
   for metadynamics refer to:
   * S. Grimme, J. Chem. Theory Comput., 2019, 155, 2847-2862
     DOI: 10.1021/acs.jctc.9b00143
   
   for SPH calculations refer to:
   * S. Spicher and S. Grimme, J. Chem. Theory Comput., 2021, 17, 1701-1714
     DOI: 10.1021/acs.jctc.0c01306
   
   for ONIOM refer to:
   * C. Plett, A. Katbashev, S. Ehlert, S. Grimme, M. Bursch,
     Phys. Chem. Chem. Phys., 2023, 25, 17860-17868. DOI: 10.1039/D3CP02178E
   
   for DIPRO refer to:
   * J. Kohn, N. Gildemeister, S. Grimme, D. Fazzi, A. Hansen,
     J. Chem. Phys., 2023, just accepted.
   
   for PTB refer to:
   * S. Grimme, M. Mueller, A. Hansen, J. Chem. Phys., 2023, 158, 124111.
     DOI: 10.1063/5.0137838
   
   with help from (in alphabetical order)
   P. Atkinson, C. Bannwarth, F. Bohle, G. Brandenburg, E. Caldeweyher
   M. Checinski, S. Dohm, S. Ehlert, S. Ehrlich, I. Gerasimov, C. Hölzer
   A. Katbashev, J. Kohn, J. Koopman, C. Lavigne, S. Lehtola, F. März, M. Müller,
   F. Musil, H. Neugebauer, J. Pisarek, C. Plett, P. Pracht, F. Pultar,
   J. Seibert, P. Shushkov, S. Spicher, M. Stahn, M. Steiner, T. Strunk,
   J. Stückrath, T. Rose, and J. Unsleber
   
 * started run on 2025/04/11 at 11:49:00.571     
   ID    Z sym.   atoms
    1    6 C      1, 2, 4-7
    2    1 H      3, 9-21
    3    8 O      8

           -------------------------------------------------
          |                Calculation Setup                |
           -------------------------------------------------

          program call               : /srv/scratch/z5358697/.xtb/bin/xtb solv.coord --gfn2 --sp --chrg 0 --norestart --parallel 1 --alpb water reference -I xtb_sp-xcontrol-inp
          hostname                   : k068
          coordinate file            : solv.coord
          omp threads                :                     1


           -------------------------------------------------
          |                 G F N 2 - x T B                 |
           -------------------------------------------------

        Reference                      10.1021/acs.jctc.8b01176
      * Hamiltonian:
        H0-scaling (s, p, d)           1.850000    2.230000    2.230000
        zeta-weighting                 0.500000
      * Dispersion:
        s8                             2.700000
        a1                             0.520000
        a2                             5.000000
        s9                             5.000000
      * Repulsion:
        kExp                           1.500000    1.000000
        rExp                           1.000000
      * Coulomb:
        alpha                          2.000000
        third order                    shell-resolved
        anisotropic                    true
        a3                             3.000000
        a5                             4.000000
        cn-shift                       1.200000
        cn-exp                         4.000000
        max-rad                        5.000000

      * Solvation model:               ALPB
        Solvent                        water
        Parameter file                 internal GFN2-xTB/ALPB
        Dielectric constant                8.0200E+01
        Reference state                gsolv=reference [X=1]
        Free energy shift                  2.8945E-03 Eh       1.8164E+00 kcal/mol
        Temperature                        2.9815E+02 K
        Density                            1.0000E+00 kg/L
        Solvent mass                       1.8000E+01 g/mol
        Interaction kernel             P16
        Born radius scaling (c1)           1.4744E+00
        Born radii integrator          GBOBC
        Born offset                        0.0000E+00 a0       0.0000E+00 AA
        H-bond correction              true
        Ion screening                  false
        Surface tension                    1.0000E-05 Eh       1.5569E+01 dyn/cm
        Grid points                               974 per atom

          ...................................................
          :                      SETUP                      :
          :.................................................:
          :  # basis functions                  42          :
          :  # atomic orbitals                  42          :
          :  # shells                           28          :
          :  # electrons                        44          :
          :  max. iterations                   250          :
          :  Hamiltonian                  GFN2-xTB          :
          :  restarted?                      false          :
          :  GBSA solvation                   true          :
          :  PC potential                    false          :
          :  electronic temp.          300.0000000     K    :
          :  accuracy                    1.0000000          :
          :  -> integral cutoff          0.2500000E+02      :
          :  -> integral neglect         0.1000000E-07      :
          :  -> SCF convergence          0.1000000E-05 Eh   :
          :  -> wf. convergence          0.1000000E-03 e    :
          :  Broyden damping             0.4000000          :
          :  net charge                          0          :
          :  unpaired electrons                  0          :
          ...................................................

 iter      E             dE          RMSdq      gap      omega  full diag
   1    -24.3331339 -0.243331E+02  0.291E+00   12.21       0.0  T
   2    -24.3665344 -0.334005E-01  0.158E+00   12.09       1.0  T
   3    -24.3675422 -0.100779E-02  0.598E-01   12.08       1.0  T
   4    -24.3678407 -0.298467E-03  0.140E-01   12.05       1.0  T
   5    -24.3679224 -0.817202E-04  0.643E-02   12.06       1.0  T
   6    -24.3679246 -0.218897E-05  0.978E-03   12.07       2.2  T
   7    -24.3679248 -0.245672E-06  0.473E-03   12.07       4.6  T
   8    -24.3679249 -0.552652E-07  0.202E-03   12.07      10.8  T
   9    -24.3679249 -0.733757E-08  0.662E-04   12.07      33.0  T
  10    -24.3679249 -0.130643E-08  0.171E-04   12.07     127.8  T

   *** convergence criteria satisfied after 10 iterations ***

         #    Occupation            Energy/Eh            Energy/eV
      -------------------------------------------------------------
         1        2.0000           -0.6828277             -18.5807
       ...           ...                  ...                  ...
        16        2.0000           -0.4546901             -12.3727
        17        2.0000           -0.4460256             -12.1370
        18        2.0000           -0.4415033             -12.0139
        19        2.0000           -0.4260523             -11.5935
        20        2.0000           -0.4225606             -11.4985
        21        2.0000           -0.4162796             -11.3275
        22        2.0000           -0.3993180             -10.8660 (HOMO)
        23                          0.0441732               1.2020 (LUMO)
        24                          0.0658804               1.7927
        25                          0.0931603               2.5350
        26                          0.1163446               3.1659
        27                          0.1204707               3.2782
       ...                                ...                  ...
        42                          0.3137236               8.5369
      -------------------------------------------------------------
                  HL-Gap            0.4434912 Eh           12.0680 eV
             Fermi-level           -0.1775724 Eh           -4.8320 eV

 SCC (total)                   0 d,  0 h,  0 min,  0.015 sec
 SCC setup                      ...        0 min,  0.001 sec (  9.571%)
 Dispersion                     ...        0 min,  0.000 sec (  0.889%)
 classical contributions        ...        0 min,  0.000 sec (  0.204%)
 integral evaluation            ...        0 min,  0.002 sec ( 10.603%)
 iterations                     ...        0 min,  0.007 sec ( 44.552%)
 molecular gradient             ...        0 min,  0.005 sec ( 33.008%)
 printout                       ...        0 min,  0.000 sec (  1.051%)

         :::::::::::::::::::::::::::::::::::::::::::::::::::::
         ::                     SUMMARY                     ::
         :::::::::::::::::::::::::::::::::::::::::::::::::::::
         :: total energy             -24.058731102364 Eh    ::
         :: total w/o Gsasa/hb       -24.056155007666 Eh    ::
         :: gradient norm              0.000026933364 Eh/a0 ::
         :: HOMO-LUMO gap             12.068009860314 eV    ::
         ::.................................................::
         :: SCC energy               -24.367855314743 Eh    ::
         :: -> isotropic ES            0.037316763300 Eh    ::
         :: -> anisotropic ES          0.005579632343 Eh    ::
         :: -> anisotropic XC          0.009635094607 Eh    ::
         :: -> dispersion             -0.013037420591 Eh    ::
         :: -> Gsolv                  -0.006795502411 Eh    ::
         ::    -> Gelec               -0.004219407712 Eh    ::
         ::    -> Gsasa               -0.000147694510 Eh    ::
         ::    -> Ghb                 -0.005322949348 Eh    ::
         ::    -> Gshift               0.002894549160 Eh    ::
         :: repulsion energy           0.309124212379 Eh    ::
         :: add. restraining           0.000000000000 Eh    ::
         :: total charge               0.000000000000 e     ::
         :::::::::::::::::::::::::::::::::::::::::::::::::::::

           -------------------------------------------------
          |                Property Printout                |
           -------------------------------------------------

    * Orbital Energies and Occupations

         #    Occupation            Energy/Eh            Energy/eV
      -------------------------------------------------------------
         1        2.0000           -0.6828277             -18.5807
       ...           ...                  ...                  ...
        10        2.0000           -0.5139937             -13.9865
        11        2.0000           -0.4926833             -13.4066
        12        2.0000           -0.4842867             -13.1781
        13        2.0000           -0.4784620             -13.0196
        14        2.0000           -0.4697197             -12.7817
        15        2.0000           -0.4553704             -12.3913
        16        2.0000           -0.4546901             -12.3727
        17        2.0000           -0.4460256             -12.1370
        18        2.0000           -0.4415033             -12.0139
        19        2.0000           -0.4260523             -11.5935
        20        2.0000           -0.4225606             -11.4985
        21        2.0000           -0.4162796             -11.3275
        22        2.0000           -0.3993180             -10.8660 (HOMO)
        23                          0.0441732               1.2020 (LUMO)
        24                          0.0658804               1.7927
        25                          0.0931603               2.5350
        26                          0.1163446               3.1659
        27                          0.1204707               3.2782
        28                          0.1221264               3.3232
        29                          0.1399009               3.8069
        30                          0.1701784               4.6308
        31                          0.1839005               5.0042
        32                          0.1884953               5.1292
        33                          0.2094297               5.6989
       ...                                ...                  ...
        42                          0.3137236               8.5369
      -------------------------------------------------------------
                  HL-Gap            0.4434912 Eh           12.0680 eV
             Fermi-level           -0.1775724 Eh           -4.8320 eV

     #   Z          covCN         q      C6AA      α(0)
     1   6 C        3.751    -0.129    23.040     6.845
     2   6 C        3.721     0.120    18.721     6.180
     3   1 H        0.922     0.007     2.943     2.683
     4   6 C        3.805    -0.073    21.896     6.662
     5   6 C        3.849    -0.012    20.753     6.480
     6   6 C        3.757    -0.115    22.758     6.802
     7   6 C        3.756    -0.112    22.695     6.793
     8   8 O        1.654    -0.516    23.246     6.509
     9   1 H        0.925     0.044     2.398     2.422
    10   1 H        0.925     0.049     2.338     2.391
    11   1 H        0.925     0.052     2.292     2.368
    12   1 H        0.924     0.037     2.483     2.464
    13   1 H        0.924     0.045     2.388     2.417
    14   1 H        0.924     0.034     2.528     2.486
    15   1 H        0.925     0.036     2.499     2.472
    16   1 H        0.925     0.035     2.519     2.482
    17   1 H        0.925     0.040     2.455     2.450
    18   1 H        0.925     0.031     2.575     2.510
    19   1 H        0.925     0.032     2.553     2.499
    20   1 H        0.925     0.049     2.328     2.386
    21   1 H        0.805     0.346     0.597     1.214

 Mol. C6AA /au·bohr⁶  :       2900.909894
 Mol. C8AA /au·bohr⁸  :      60090.450752
 Mol. α(0) /au        :         79.511808


Wiberg/Mayer (AO) data.
largest (>0.10) Wiberg bond orders for each atom

 ---------------------------------------------------------------------------
     #   Z sym  total        # sym  WBO       # sym  WBO       # sym  WBO
 ---------------------------------------------------------------------------
     1   6 C    3.995 --     2 C    1.002     9 H    0.985    10 H    0.984
                            11 H    0.983
     2   6 C    3.953 --     1 C    1.002     4 C    0.991     8 O    0.979
                             3 H    0.963
     3   1 H    1.000 --     2 C    0.963
     4   6 C    3.995 --     5 C    0.997     2 C    0.991    12 H    0.975
                            13 H    0.974
     5   6 C    3.996 --     7 C    1.010     6 C    1.007     4 C    0.997
                            14 H    0.966
     6   6 C    3.996 --     5 C    1.007    15 H    0.987    16 H    0.987
                            17 H    0.986
     7   6 C    3.996 --     5 C    1.010    18 H    0.987    19 H    0.987
                            20 H    0.982
     8   8 O    1.915 --     2 C    0.979    21 H    0.864
     9   1 H    0.998 --     1 C    0.985
    10   1 H    0.998 --     1 C    0.984
    11   1 H    0.997 --     1 C    0.983
    12   1 H    0.999 --     4 C    0.975
    13   1 H    0.998 --     4 C    0.974
    14   1 H    0.999 --     5 C    0.966
    15   1 H    0.999 --     6 C    0.987
    16   1 H    0.999 --     6 C    0.987
    17   1 H    0.998 --     6 C    0.986
    18   1 H    0.999 --     7 C    0.987
    19   1 H    0.999 --     7 C    0.987
    20   1 H    0.998 --     7 C    0.982
    21   1 H    0.880 --     8 O    0.864
 ---------------------------------------------------------------------------

Topologies differ in total number of bonds
Writing topology from bond orders to xtbtopo.mol

molecular dipole:
                 x           y           z       tot (Debye)
 q only:        0.455       0.419      -0.111
   full:        0.640       0.466      -0.177       2.062
molecular quadrupole (traceless):
                xx          xy          yy          xz          yz          zz
 q only:        4.055      -0.168      -2.892       1.494       0.135      -1.164
  q+dip:        5.361      -0.296      -3.540       1.207       1.220      -1.820
   full:        5.508      -0.342      -3.774       1.498       0.717      -1.734


           -------------------------------------------------
          | TOTAL ENERGY              -24.058731102364 Eh   |
          | GRADIENT NORM               0.000026933364 Eh/α |
          | HOMO-LUMO GAP              12.068009860314 eV   |
           -------------------------------------------------

------------------------------------------------------------------------
 * finished run on 2025/04/11 at 11:49:00.625     
------------------------------------------------------------------------
 total:
 * wall-time:     0 d,  0 h,  0 min,  0.054 sec
 *  cpu-time:     0 d,  0 h,  0 min,  0.023 sec
 * ratio c/w:     0.428 speedup
 SCF:
 * wall-time:     0 d,  0 h,  0 min,  0.015 sec
 *  cpu-time:     0 d,  0 h,  0 min,  0.015 sec
 * ratio c/w:     0.977 speedup

