      -----------------------------------------------------------      
     |                   =====================                   |     
     |                           x T B                           |     
     |                   =====================                   |     
     |                         S. Grimme                         |     
     |          Mulliken Center for Theoretical Chemistry        |     
     |                    University of Bonn                     |     
      -----------------------------------------------------------      

   * xtb version 6.7.1 (edcfbbe) compiled by 'albert@albert-system' on 2024-07-22

   xtb is free software: you can redistribute it and/or modify it under
   the terms of the GNU Lesser General Public License as published by
   the Free Software Foundation, either version 3 of the License, or
   (at your option) any later version.
   
   xtb is distributed in the hope that it will be useful,
   but WITHOUT ANY WARRANTY; without even the implied warranty of
   MERCHANTABILITY or FITNESS FOR A PARTICULAR PURPOSE.  See the
   GNU Lesser General Public License for more details.
   
   Cite this work as:
   * C. Bannwarth, E. Caldeweyher, S. Ehlert, A. Hansen, P. Pracht,
     J. Seibert, S. Spicher, S. Grimme, WIREs Comput. Mol. Sci., 2020, 11,
     e01493. DOI: 10.1002/wcms.1493
   
   for GFN2-xTB:
   * C. Bannwarth, S. Ehlert and S. Grimme., J. Chem. Theory Comput., 2019,
     15, 1652-1671. DOI: 10.1021/acs.jctc.8b01176
   for GFN1-xTB:
   * S. Grimme, C. Bannwarth, P. Shushkov, J. Chem. Theory Comput., 2017,
     13, 1989-2009. DOI: 10.1021/acs.jctc.7b00118
   for GFN0-xTB:
   * P. Pracht, E. Caldeweyher, S. Ehlert, S. Grimme, ChemRxiv, 2019, preprint.
     DOI: 10.26434/chemrxiv.8326202.v1
   for GFN-FF:
   * S. Spicher and S. Grimme, Angew. Chem. Int. Ed., 2020, 59, 15665-15673.
     DOI: 10.1002/anie.202004239
   
   for ALPB and GBSA implicit solvation:
   * S. Ehlert, M. Stahn, S. Spicher, S. Grimme, J. Chem. Theory Comput.,
     2021, 17, 4250-4261. DOI: 10.1021/acs.jctc.1c00471
   
   for ddCOSMO and CPCM-X implicit solvation:
   * M. Stahn, S. Ehlert, S. Grimme, J. Phys. Chem. A,
     2023, XX, XXXX-XXXX. DOI: 10.1021/acs.jpca.3c04382
   
   for DFT-D4:
   * E. Caldeweyher, C. Bannwarth and S. Grimme, J. Chem. Phys., 2017,
     147, 034112. DOI: 10.1063/1.4993215
   * E. Caldeweyher, S. Ehlert, A. Hansen, H. Neugebauer, S. Spicher,
     C. Bannwarth and S. Grimme, J. Chem. Phys., 2019, 150, 154122.
     DOI: 10.1063/1.5090222
   * E. Caldeweyher, J.-M. Mewes, S. Ehlert and S. Grimme, Phys. Chem. Chem. Phys.
     2020, 22, 8499-8512. DOI: 10.1039/D0CP00502A
   
   for sTDA-xTB:
   * S. Grimme and C. Bannwarth, J. Chem. Phys., 2016, 145, 054103.
     DOI: 10.1063/1.4959605
   
   in the mass-spec context:
   * V. Asgeirsson, C. Bauer and S. Grimme, Chem. Sci., 2017, 8, 4879.
     DOI: 10.1039/c7sc00601b
   * J. Koopman and S. Grimme, ACS Omega 2019, 4, 12, 15120-15133.
     DOI: 10.1021/acsomega.9b02011
   
   for metadynamics refer to:
   * S. Grimme, J. Chem. Theory Comput., 2019, 155, 2847-2862
     DOI: 10.1021/acs.jctc.9b00143
   
   for SPH calculations refer to:
   * S. Spicher and S. Grimme, J. Chem. Theory Comput., 2021, 17, 1701-1714
     DOI: 10.1021/acs.jctc.0c01306
   
   for ONIOM refer to:
   * C. Plett, A. Katbashev, S. Ehlert, S. Grimme, M. Bursch,
     Phys. Chem. Chem. Phys., 2023, 25, 17860-17868. DOI: 10.1039/D3CP02178E
   
   for DIPRO refer to:
   * J. Kohn, N. Gildemeister, S. Grimme, D. Fazzi, A. Hansen,
     J. Chem. Phys., 2023, just accepted.
   
   for PTB refer to:
   * S. Grimme, M. Mueller, A. Hansen, J. Chem. Phys., 2023, 158, 124111.
     DOI: 10.1063/5.0137838
   
   with help from (in alphabetical order)
   P. Atkinson, C. Bannwarth, F. Bohle, G. Brandenburg, E. Caldeweyher
   M. Checinski, S. Dohm, S. Ehlert, S. Ehrlich, I. Gerasimov, C. Hölzer
   A. Katbashev, J. Kohn, J. Koopman, C. Lavigne, S. Lehtola, F. März, M. Müller,
   F. Musil, H. Neugebauer, J. Pisarek, C. Plett, P. Pracht, F. Pultar,
   J. Seibert, P. Shushkov, S. Spicher, M. Stahn, M. Steiner, T. Strunk,
   J. Stückrath, T. Rose, and J. Unsleber
   
 * started run on 2025/04/11 at 11:24:50.457     
   ID    Z sym.   atoms
    1    6 C      1-14
    2    1 H      15-26

           -------------------------------------------------
          |                Calculation Setup                |
           -------------------------------------------------

          program call               : /srv/scratch/z5358697/.xtb/bin/xtb solv.coord --gfn2 --sp --chrg 0 --norestart --parallel 1 --alpb water reference -I xtb_sp-xcontrol-inp
          hostname                   : k112
          coordinate file            : solv.coord
          omp threads                :                     1


           -------------------------------------------------
          |                 G F N 2 - x T B                 |
           -------------------------------------------------

        Reference                      10.1021/acs.jctc.8b01176
      * Hamiltonian:
        H0-scaling (s, p, d)           1.850000    2.230000    2.230000
        zeta-weighting                 0.500000
      * Dispersion:
        s8                             2.700000
        a1                             0.520000
        a2                             5.000000
        s9                             5.000000
      * Repulsion:
        kExp                           1.500000    1.000000
        rExp                           1.000000
      * Coulomb:
        alpha                          2.000000
        third order                    shell-resolved
        anisotropic                    true
        a3                             3.000000
        a5                             4.000000
        cn-shift                       1.200000
        cn-exp                         4.000000
        max-rad                        5.000000

      * Solvation model:               ALPB
        Solvent                        water
        Parameter file                 internal GFN2-xTB/ALPB
        Dielectric constant                8.0200E+01
        Reference state                gsolv=reference [X=1]
        Free energy shift                  2.8945E-03 Eh       1.8164E+00 kcal/mol
        Temperature                        2.9815E+02 K
        Density                            1.0000E+00 kg/L
        Solvent mass                       1.8000E+01 g/mol
        Interaction kernel             P16
        Born radius scaling (c1)           1.4744E+00
        Born radii integrator          GBOBC
        Born offset                        0.0000E+00 a0       0.0000E+00 AA
        H-bond correction              true
        Ion screening                  false
        Surface tension                    1.0000E-05 Eh       1.5569E+01 dyn/cm
        Grid points                               974 per atom

          ...................................................
          :                      SETUP                      :
          :.................................................:
          :  # basis functions                  68          :
          :  # atomic orbitals                  68          :
          :  # shells                           40          :
          :  # electrons                        68          :
          :  max. iterations                   250          :
          :  Hamiltonian                  GFN2-xTB          :
          :  restarted?                      false          :
          :  GBSA solvation                   true          :
          :  PC potential                    false          :
          :  electronic temp.          300.0000000     K    :
          :  accuracy                    1.0000000          :
          :  -> integral cutoff          0.2500000E+02      :
          :  -> integral neglect         0.1000000E-07      :
          :  -> SCF convergence          0.1000000E-05 Eh   :
          :  -> wf. convergence          0.1000000E-03 e    :
          :  Broyden damping             0.4000000          :
          :  net charge                          0          :
          :  unpaired electrons                  0          :
          ...................................................

 iter      E             dE          RMSdq      gap      omega  full diag
   1    -36.7521139 -0.367521E+02  0.412E+00    3.55       0.0  T
   2    -36.7607291 -0.861519E-02  0.244E+00    3.54       1.0  T
   3    -36.7565137  0.421539E-02  0.564E-01    3.52       1.0  T
   4    -36.7622272 -0.571355E-02  0.195E-01    3.52       1.0  T
   5    -36.7626572 -0.429984E-03  0.872E-02    3.52       1.0  T
   6    -36.7627680 -0.110843E-03  0.235E-02    3.52       1.0  T
   7    -36.7627687 -0.689049E-06  0.446E-03    3.52       4.4  T
   8    -36.7627690 -0.234675E-06  0.140E-03    3.52      14.0  T
   9    -36.7627690 -0.200133E-07  0.845E-04    3.52      23.2  T
  10    -36.7627690 -0.248124E-08  0.287E-04    3.52      68.3  T

   *** convergence criteria satisfied after 10 iterations ***

         #    Occupation            Energy/Eh            Energy/eV
      -------------------------------------------------------------
         1        2.0000           -0.6452174             -17.5573
       ...           ...                  ...                  ...
        28        2.0000           -0.4209460             -11.4545
        29        2.0000           -0.4176962             -11.3661
        30        2.0000           -0.4094358             -11.1413
        31        2.0000           -0.4035645             -10.9815
        32        2.0000           -0.4015706             -10.9273
        33        2.0000           -0.3997269             -10.8771
        34        2.0000           -0.3781913             -10.2911 (HOMO)
        35                         -0.2487373              -6.7685 (LUMO)
        36                         -0.2228808              -6.0649
        37                         -0.2221582              -6.0452
        38                         -0.2187597              -5.9528
        39                         -0.1678904              -4.5685
       ...                                ...                  ...
        68                          0.6861268              18.6705
      -------------------------------------------------------------
                  HL-Gap            0.1294540 Eh            3.5226 eV
             Fermi-level           -0.3134643 Eh           -8.5298 eV

 SCC (total)                   0 d,  0 h,  0 min,  0.029 sec
 SCC setup                      ...        0 min,  0.002 sec (  6.004%)
 Dispersion                     ...        0 min,  0.000 sec (  0.973%)
 classical contributions        ...        0 min,  0.000 sec (  0.127%)
 integral evaluation            ...        0 min,  0.003 sec ( 11.506%)
 iterations                     ...        0 min,  0.013 sec ( 44.818%)
 molecular gradient             ...        0 min,  0.010 sec ( 35.678%)
 printout                       ...        0 min,  0.000 sec (  0.818%)

         :::::::::::::::::::::::::::::::::::::::::::::::::::::
         ::                     SUMMARY                     ::
         :::::::::::::::::::::::::::::::::::::::::::::::::::::
         :: total energy             -36.045846321288 Eh    ::
         :: total w/o Gsasa/hb       -36.045680673613 Eh    ::
         :: gradient norm              0.000086166853 Eh/a0 ::
         :: HOMO-LUMO gap              3.522621916930 eV    ::
         ::.................................................::
         :: SCC energy               -36.762651537249 Eh    ::
         :: -> isotropic ES            0.002765819276 Eh    ::
         :: -> anisotropic ES          0.004722412178 Eh    ::
         :: -> anisotropic XC          0.026224792739 Eh    ::
         :: -> dispersion             -0.026518287490 Eh    ::
         :: -> Gsolv                  -0.000537910740 Eh    ::
         ::    -> Gelec               -0.000372263065 Eh    ::
         ::    -> Gsasa               -0.002512518944 Eh    ::
         ::    -> Ghb                 -0.000547677891 Eh    ::
         ::    -> Gshift               0.002894549160 Eh    ::
         :: repulsion energy           0.716805215960 Eh    ::
         :: add. restraining           0.000000000000 Eh    ::
         :: total charge               0.000000000000 e     ::
         :::::::::::::::::::::::::::::::::::::::::::::::::::::

           -------------------------------------------------
          |                Property Printout                |
           -------------------------------------------------

    * Orbital Energies and Occupations

         #    Occupation            Energy/Eh            Energy/eV
      -------------------------------------------------------------
         1        2.0000           -0.6452174             -17.5573
       ...           ...                  ...                  ...
        22        2.0000           -0.4748628             -12.9217
        23        2.0000           -0.4688152             -12.7571
        24        2.0000           -0.4650589             -12.6549
        25        2.0000           -0.4495068             -12.2317
        26        2.0000           -0.4312780             -11.7357
        27        2.0000           -0.4288777             -11.6704
        28        2.0000           -0.4209460             -11.4545
        29        2.0000           -0.4176962             -11.3661
        30        2.0000           -0.4094358             -11.1413
        31        2.0000           -0.4035645             -10.9815
        32        2.0000           -0.4015706             -10.9273
        33        2.0000           -0.3997269             -10.8771
        34        2.0000           -0.3781913             -10.2911 (HOMO)
        35                         -0.2487373              -6.7685 (LUMO)
        36                         -0.2228808              -6.0649
        37                         -0.2221582              -6.0452
        38                         -0.2187597              -5.9528
        39                         -0.1678904              -4.5685
        40                         -0.0923106              -2.5119
        41                         -0.0745541              -2.0287
        42                          0.0914946               2.4897
        43                          0.1217066               3.3118
        44                          0.1270624               3.4575
        45                          0.1313100               3.5731
       ...                                ...                  ...
        68                          0.6861268              18.6705
      -------------------------------------------------------------
                  HL-Gap            0.1294540 Eh            3.5226 eV
             Fermi-level           -0.3134643 Eh           -8.5298 eV

     #   Z          covCN         q      C6AA      α(0)
     1   6 C        2.849    -0.102    30.555     9.059
     2   6 C        2.955     0.007    27.865     8.658
     3   6 C        2.979     0.011    27.768     8.644
     4   6 C        2.924    -0.038    28.944     8.823
     5   6 C        2.918    -0.035    28.878     8.812
     6   6 C        2.920    -0.036    28.907     8.817
     7   6 C        2.918    -0.035    28.877     8.812
     8   6 C        2.925    -0.035    28.864     8.810
     9   6 C        2.979     0.011    27.768     8.644
    10   6 C        2.925    -0.035    28.864     8.810
    11   6 C        2.918    -0.035    28.877     8.812
    12   6 C        2.920    -0.036    28.907     8.817
    13   6 C        2.918    -0.035    28.878     8.812
    14   6 C        2.924    -0.038    28.944     8.823
    15   1 H        0.926     0.042     2.421     2.433
    16   1 H        0.926     0.042     2.421     2.433
    17   1 H        0.926     0.037     2.495     2.470
    18   1 H        0.926     0.036     2.499     2.472
    19   1 H        0.926     0.036     2.508     2.477
    20   1 H        0.926     0.035     2.517     2.481
    21   1 H        0.926     0.031     2.576     2.510
    22   1 H        0.926     0.031     2.576     2.510
    23   1 H        0.926     0.035     2.517     2.481
    24   1 H        0.926     0.036     2.508     2.477
    25   1 H        0.926     0.036     2.499     2.472
    26   1 H        0.926     0.037     2.495     2.470

 Mol. C6AA /au·bohr⁶  :       8847.662386
 Mol. C8AA /au·bohr⁸  :     220711.363553
 Mol. α(0) /au        :        152.840200


Wiberg/Mayer (AO) data.
largest (>0.10) Wiberg bond orders for each atom

 ---------------------------------------------------------------------------
     #   Z sym  total        # sym  WBO       # sym  WBO       # sym  WBO
 ---------------------------------------------------------------------------
     1   6 C    3.989 --     2 C    1.844    16 H    0.975    15 H    0.975
     2   6 C    3.988 --     1 C    1.844     3 C    1.039     9 C    1.039
     3   6 C    3.989 --     4 C    1.390     8 C    1.388     2 C    1.039
                             6 C    0.106
     4   6 C    3.991 --     5 C    1.451     3 C    1.390    17 H    0.968
                             7 C    0.108
     5   6 C    3.992 --     4 C    1.451     6 C    1.435    18 H    0.970
                             8 C    0.109
     6   6 C    3.992 --     5 C    1.435     7 C    1.434    19 H    0.971
                             3 C    0.106
     7   6 C    3.992 --     8 C    1.453     6 C    1.434    20 H    0.970
                             4 C    0.108
     8   6 C    3.992 --     7 C    1.453     3 C    1.388    21 H    0.969
                             5 C    0.109
     9   6 C    3.989 --    14 C    1.390    10 C    1.388     2 C    1.039
                            12 C    0.106
    10   6 C    3.992 --    11 C    1.453     9 C    1.388    22 H    0.969
                            13 C    0.109
    11   6 C    3.992 --    10 C    1.453    12 C    1.434    23 H    0.970
                            14 C    0.108
    12   6 C    3.992 --    13 C    1.435    11 C    1.434    24 H    0.971
                             9 C    0.106
    13   6 C    3.992 --    14 C    1.451    12 C    1.435    25 H    0.970
                            10 C    0.109
    14   6 C    3.991 --    13 C    1.451     9 C    1.390    26 H    0.968
                            11 C    0.108
    15   1 H    0.997 --     1 C    0.975
    16   1 H    0.997 --     1 C    0.975
    17   1 H    0.999 --     4 C    0.968
    18   1 H    0.998 --     5 C    0.970
    19   1 H    0.998 --     6 C    0.971
    20   1 H    0.998 --     7 C    0.970
    21   1 H    0.999 --     8 C    0.969
    22   1 H    0.999 --    10 C    0.969
    23   1 H    0.998 --    11 C    0.970
    24   1 H    0.998 --    12 C    0.971
    25   1 H    0.998 --    13 C    0.970
    26   1 H    0.999 --    14 C    0.968
 ---------------------------------------------------------------------------

Topologies differ in total number of bonds
Writing topology from bond orders to xtbtopo.mol

molecular dipole:
                 x           y           z       tot (Debye)
 q only:       -0.000       0.014      -0.000
   full:       -0.000       0.026       0.000       0.066
molecular quadrupole (traceless):
                xx          xy          yy          xz          yz          zz
 q only:        1.711      -0.001       0.143      -1.157      -0.000      -1.854
  q+dip:        4.528      -0.002       1.342      -3.791      -0.001      -5.870
   full:        2.455      -0.001       0.527      -1.966      -0.000      -2.982


           -------------------------------------------------
          | TOTAL ENERGY              -36.045846321288 Eh   |
          | GRADIENT NORM               0.000086166853 Eh/α |
          | HOMO-LUMO GAP               3.522621916930 eV   |
           -------------------------------------------------

------------------------------------------------------------------------
 * finished run on 2025/04/11 at 11:24:50.519     
------------------------------------------------------------------------
 total:
 * wall-time:     0 d,  0 h,  0 min,  0.061 sec
 *  cpu-time:     0 d,  0 h,  0 min,  0.040 sec
 * ratio c/w:     0.648 speedup
 SCF:
 * wall-time:     0 d,  0 h,  0 min,  0.029 sec
 *  cpu-time:     0 d,  0 h,  0 min,  0.029 sec
 * ratio c/w:     0.992 speedup

