
                                 *****************
                                 * O   R   C   A *
                                 *****************

                                            #,                                       
                                            ###                                      
                                            ####                                     
                                            #####                                    
                                            ######                                   
                                           ########,                                 
                                     ,,################,,,,,                         
                               ,,#################################,,                 
                          ,,##########################################,,             
                       ,#########################################, ''#####,          
                    ,#############################################,,   '####,        
                  ,##################################################,,,,####,       
                ,###########''''           ''''###############################       
              ,#####''   ,,,,##########,,,,          '''####'''          '####       
            ,##' ,,,,###########################,,,                        '##       
           ' ,,###''''                  '''############,,,                           
         ,,##''                                '''############,,,,        ,,,,,,###''
      ,#''                                            '''#######################'''  
     '                                                          ''''####''''         
             ,#######,   #######,   ,#######,      ##                                
            ,#'     '#,  ##    ##  ,#'     '#,    #''#        ,####,   ,####,        
            ##       ##  ##   ,#'  ##            #'  '#       #'       #'  '#        
            ##       ##  #######   ##           ,######,      #####,   #    #        
            '#,     ,#'  ##    ##  '#,     ,#' ,#      #,     #,   #   #,  ,#        
             '#######'   ##     ##  '#######'  #'      '#     '####' # '####'        



                #########################################################
                #                        -***-                          #
                #          Department of theory and spectroscopy        #
                #                                                       #
                #                      Frank Neese                      #
                #                                                       #
                #     Directorship, Architecture, Infrastructure        #
                #                    SHARK, DRIVERS                     #
                #        Core code/Algorithms in most modules           #
                #                                                       #
                #        Max Planck Institute fuer Kohlenforschung      #
                #                Kaiser Wilhelm Platz 1                 #
                #                 D-45470 Muelheim/Ruhr                 #
                #                      Germany                          #
                #                                                       #
                #                  All rights reserved                  #
                #                        -***-                          #
                #########################################################


                         Program Version 6.0.0  -   RELEASE  -


 With contributions from (in alphabetic order):
   Daniel Aravena         : Magnetic Suceptibility
   Michael Atanasov       : Ab Initio Ligand Field Theory (pilot matlab implementation)
   Alexander A. Auer      : GIAO ZORA, VPT2 properties, NMR spectrum
   Ute Becker             : All parallelization in ORCA, NUMFREQ, NUMCALC
   Giovanni Bistoni       : ED, misc. LED, open-shell LED, HFLD
   Martin Brehm           : Molecular dynamics
   Dmytro Bykov           : pre 5.0 version of the SCF Hessian
   Marcos Casanova-Páez   : Triplet and SCS-CIS(D). UHF-(DLPNO)-IP/EA/STEOM-CCSD. UHF-CVS-IP/STEOM-CCSD
   Vijay G. Chilkuri      : MRCI spin determinant printing, contributions to CSF-ICE
   Pauline Colinet        : FMM embedding
   Dipayan Datta          : RHF DLPNO-CCSD density
   Achintya Kumar Dutta   : EOM-CC, STEOM-CC
   Nicolas Foglia         : Exact transition moments, OPA infrastructure, MCD improvements
   Dmitry Ganyushin       : Spin-Orbit,Spin-Spin,Magnetic field MRCI
   Miquel Garcia          : C-PCM and meta-GGA Hessian, CCSD/C-PCM, Gaussian charge scheme
   Tiago L. C. Gouveia    : GS-ROHF, GS-ROCIS
   Yang Guo               : DLPNO-NEVPT2, F12-NEVPT2, CIM, IAO-localization
   Andreas Hansen         : Spin unrestricted coupled pair/coupled cluster methods
   Ingolf Harden          : AUTO-CI MPn and infrastructure 
   Benjamin Helmich-Paris : MC-RPA, TRAH-(SCF,CASSCF), AVAS, COSX integrals, SCF dyn. polar.
   Lee Huntington         : MR-EOM, pCC
   Robert Izsak           : Overlap fitted RIJCOSX, COSX-SCS-MP3, EOM
   Riya Kayal             : Wick's Theorem for AUTO-CI, AUTO-CI UHF-CCSDT
   Emily Kempfer          : AUTO-CI, RHF CISDT and CCSDT
   Christian Kollmar      : KDIIS, OOCD, Brueckner-CCSD(T), CCSD density, CASPT2, CASPT2-K, improved NEVPT2
   Axel Koslowski         : Symmetry handling
   Simone Kossmann        : Meta GGA functionals, TD-DFT gradient, OOMP2, (MP2 Hessian; deprecated post 5.0)
   Lucas Lang             : DCDCAS
   Marvin Lechner         : AUTO-CI (C++ implementation), FIC-MRCC
   Spencer Leger          : CASSCF response
   Dagmar Lenk            : GEPOL surface, SMD, ORCA-2-JSON
   Dimitrios Liakos       : Extrapolation schemes; Compound Job, initial MDCI parallelization
   Dimitrios Manganas     : Further ROCIS development; embedding schemes. LFT, Crystal Embedding
   Dimitrios Pantazis     : SARC Basis sets
   Anastasios Papadopoulos: AUTO-CI, single reference methods and gradients
   Taras Petrenko         : pre 6.0 DFT Hessian and TD-DFT gradient, (ASA, deprecated), ECA, 1-Electron XAS/XES, NRVS
   Peter Pinski           : DLPNO-MP2, DLPNO-MP2 Gradient
   Christoph Reimann      : Effective Core Potentials
   Marius Retegan         : Local ZFS, SOC
   Christoph Riplinger    : Optimizer, TS searches, QM/MM, DLPNO-CCSD(T), (RO)-DLPNO pert. Triples
   Michael Roemelt        : Original ROCIS implementation
   Masaaki Saitow         : Open-shell DLPNO-CCSD energy and density
   Barbara Sandhoefer     : DKH picture change effects
   Kantharuban Sivalingam : CASSCF convergence/infrastructure, NEVPT2 and variants, FIC-MRCI
   Bernardo de Souza      : ESD, SOC TD-DFT
   Georgi Stoychev        : AutoAux, RI-MP2 NMR, DLPNO-MP2 response, X2C
   Van Anh Tran           : RI-MP2 g-tensors
   Willem Van den Heuvel  : Paramagnetic NMR
   Zikuan Wang            : NOTCH, Electric field optimization 
   Frank Wennmohs         : Technical directorship and infrastructure
   Hang Xu                : AUTO-CI-Response properties 


 We gratefully acknowledge several colleagues who have allowed us to
 interface, adapt or use parts of their codes:
   Stefan Grimme, W. Hujo, H. Kruse, P. Pracht,  : VdW corrections, initial TS optimization,
                  C. Bannwarth, S. Ehlert,         DFT functionals, gCP, sTDA/sTD-DF
                  L. Wittmann, M. Mueller
   Ed Valeev, F. Pavosevic, A. Kumar             : LibInt (2-el integral package), F12 methods
   Garnet Chan, S. Sharma, J. Yang, R. Olivares  : DMRG
   Ulf Ekstrom                                   : XCFun DFT Library
   Mihaly Kallay                                 : mrcc  (arbitrary order and MRCC methods)
   Frank Weinhold                                : gennbo (NPA and NBO analysis)
   Simon Mueller                                 : openCOSMO-RS
   Christopher J. Cramer and Donald G. Truhlar   : smd solvation model
   Lars Goerigk                                  : TD-DFT with DH, B97 family of functionals
   V. Asgeirsson, H. Jonsson                     : NEB implementation
   FAccTs GmbH                                   : IRC, NEB, NEB-TS, DLPNO-Multilevel, CI-OPT
                                                   MM, QMMM, 2- and 3-layer-ONIOM, Crystal-QMMM,
                                                   LR-CPCM, SF, NACMEs, symmetry and pop. for TD-DFT,
                                                   nearIR, NL-DFT gradient (VV10), updates on ESD,
                                                   ML-optimized integration grids, MBIS, APM,
                                                   GOAT, DOCKER, SOLVATOR, interface openCOSMO-RS
   S Lehtola, MJT Oliveira, MAL Marques          : LibXC Library
   Liviu Ungur et al                             : ANISO software


 Your calculation uses the libint2 library for the computation of 2-el integrals
 For citations please refer to: http://libint.valeyev.net

 Your ORCA version has been built with support for libXC version: 6.2.2
 For citations please refer to: https://libxc.gitlab.io

 This ORCA versions uses:
   CBLAS   interface :  Fast vector & matrix operations
   LAPACKE interface :  Fast linear algebra routines
   SCALAPACK package :  Parallel linear algebra routines
   Shared memory     :  Shared parallel matrices
   BLAS/LAPACK       :  OpenBLAS 0.3.27  USE64BITINT DYNAMIC_ARCH NO_AFFINITY SkylakeX SINGLE_THREADED
        Core in use  :  SkylakeX
   Copyright (c) 2011-2014, The OpenBLAS Project


Your calculation utilizes the geometrical counterpoise correction gCP
Please cite in your paper:
H.Kruse, S. Grimme J.Chem.Phys., 136, (2012), 154101 
   

Your calculation utilizes the atom-pairwise dispersion correction
based on EEQ partial charges (D4)


Your calculation utilizes the SMD solvation module
Please cite in your paper:
A.V. Marenich, C.J. Cramer, D.G. Truhlar J. Phys. Chem. B, 113, (2009), 6378 

================================================================================

----- Orbital basis set information -----
Your calculation utilizes the basis: def2-mTZVPP
   Stefan Grimme, Andreas Hansen, Sebastian Ehlert, and Jan-Michael Mewes 
   J. Chem. Phys. 154, 064103 (2021). DOI: 10.1063/5.0040021

----- AuxJ basis set information -----
Your calculation utilizes the auxiliary basis: def2/J
   F. Weigend, Phys. Chem. Chem. Phys. 8, 1057 (2006).

================================================================================
                                        WARNINGS
                       Please study these warnings very carefully!
================================================================================

Using LibXC functional ID 497 : Re-regularized SCAN exchange by Furness et al
[ 1]  J. W. Furness, A. D. Kaplan, J. Ning, J. P. Perdew, and J. Sun.,  J. Phys. Chem. Lett. 11, 8208-8215 (2020)
[ 2]  J. W. Furness, A. D. Kaplan, J. Ning, J. P. Perdew, and J. Sun.,  J. Phys. Chem. Lett. 11, 9248-9248 (2020)
Using LibXC functional ID 498 : Re-regularized SCAN correlation by Furness et al
[ 1]  J. W. Furness, A. D. Kaplan, J. Ning, J. P. Perdew, and J. Sun.,  J. Phys. Chem. Lett. 11, 8208-8215 (2020)
[ 2]  J. W. Furness, A. D. Kaplan, J. Ning, J. P. Perdew, and J. Sun.,  J. Phys. Chem. Lett. 11, 9248-9248 (2020)
Using LibXC functional ID 497 : Re-regularized SCAN exchange by Furness et al
[ 1]  J. W. Furness, A. D. Kaplan, J. Ning, J. P. Perdew, and J. Sun.,  J. Phys. Chem. Lett. 11, 8208-8215 (2020)
[ 2]  J. W. Furness, A. D. Kaplan, J. Ning, J. P. Perdew, and J. Sun.,  J. Phys. Chem. Lett. 11, 9248-9248 (2020)
Using LibXC functional ID 498 : Re-regularized SCAN correlation by Furness et al
[ 1]  J. W. Furness, A. D. Kaplan, J. Ning, J. P. Perdew, and J. Sun.,  J. Phys. Chem. Lett. 11, 8208-8215 (2020)
[ 2]  J. W. Furness, A. D. Kaplan, J. Ning, J. P. Perdew, and J. Sun.,  J. Phys. Chem. Lett. 11, 9248-9248 (2020)

================================================================================
                                       INPUT FILE
================================================================================
NAME = sp_solv.inp
|  1> ! r2scan-3c def2/J RI DEFGRID2 scfconv6 printgap
|  2> %output
|  3>     printlevel normal
|  4> end
|  5> %cpcm
|  6>     smd true
|  7>     smdsolvent "water"
|  8> end
|  9> * xyz 0 1
| 10> C 5.3327754202 -0.319063406 0.6975720485
| 11> C 4.4807725759 0.3245242259 -0.3968638715
| 12> C 3.0481203743 -0.1601934383 -0.2979465373
| 13> O 2.7669588331 -1.3486506531 -0.3036498687
| 14> N 2.1282703444 0.838855338 -0.2050809955
| 15> C 0.7416408268 0.7523331188 -0.1123075625
| 16> C 0.0121025224 1.9416619994 -0.0437647093
| 17> C -1.3639357888 1.9180918667 0.048613504
| 18> C -2.0388115918 0.7066388859 0.0746537647
| 19> C -1.3181976775 -0.4787118974 0.0077910857
| 20> C 0.0621126925 -0.4631612262 -0.0849286506
| 21> Cl -2.1434045995 -2.0033732989 0.0393733485
| 22> Cl -3.7681072822 0.676784531 0.1897411844
| 23> H 5.2236860527 -1.4003124445 0.6605708812
| 24> H 5.0157006442 0.0235280584 1.6794673534
| 25> H 6.3795745077 -0.0654770399 0.5587862907
| 26> H 4.8597375248 0.0091851706 -1.371095791
| 27> H 4.5392372034 1.4093220171 -0.3314373413
| 28> H 2.4827491258 1.7873668128 -0.2095891286
| 29> H 0.5226140783 2.8909930136 -0.0631916413
| 30> H -1.926756511 2.8349540885 0.1009750681
| 31> H 0.6082204832 -1.390072706 -0.136226656
| 32> *
| 33> 
| 34>                          ****END OF INPUT****
================================================================================

                       ****************************
                       * Single Point Calculation *
                       ****************************

---------------------------------
CARTESIAN COORDINATES (ANGSTROEM)
---------------------------------
  C      5.332775   -0.319063    0.697572
  C      4.480773    0.324524   -0.396864
  C      3.048120   -0.160193   -0.297947
  O      2.766959   -1.348651   -0.303650
  N      2.128270    0.838855   -0.205081
  C      0.741641    0.752333   -0.112308
  C      0.012103    1.941662   -0.043765
  C     -1.363936    1.918092    0.048614
  C     -2.038812    0.706639    0.074654
  C     -1.318198   -0.478712    0.007791
  C      0.062113   -0.463161   -0.084929
  Cl    -2.143405   -2.003373    0.039373
  Cl    -3.768107    0.676785    0.189741
  H      5.223686   -1.400312    0.660571
  H      5.015701    0.023528    1.679467
  H      6.379575   -0.065477    0.558786
  H      4.859738    0.009185   -1.371096
  H      4.539237    1.409322   -0.331437
  H      2.482749    1.787367   -0.209589
  H      0.522614    2.890993   -0.063192
  H     -1.926757    2.834954    0.100975
  H      0.608220   -1.390073   -0.136227

----------------------------
CARTESIAN COORDINATES (A.U.)
----------------------------
  NO LB      ZA    FRAG     MASS         X           Y           Z
   0 C     6.0000    0    12.011   10.077485   -0.602942    1.318220
   1 C     6.0000    0    12.011    8.467433    0.613262   -0.749964
   2 C     6.0000    0    12.011    5.760113   -0.302722   -0.563037
   3 O     8.0000    0    15.999    5.228794   -2.548580   -0.573815
   4 N     7.0000    0    14.007    4.021848    1.585207   -0.387547
   5 C     6.0000    0    12.011    1.401498    1.421704   -0.212231
   6 C     6.0000    0    12.011    0.022870    3.669209   -0.082703
   7 C     6.0000    0    12.011   -2.577465    3.624668    0.091866
   8 C     6.0000    0    12.011   -3.852796    1.335354    0.141075
   9 C     6.0000    0    12.011   -2.491033   -0.904634    0.014723
  10 C     6.0000    0    12.011    0.117376   -0.875248   -0.160492
  11 Cl   17.0000    0    35.453   -4.050448   -3.785827    0.074405
  12 Cl   17.0000    0    35.453   -7.120691    1.278937    0.358559
  13 H     1.0000    0     1.008    9.871336   -2.646207    1.248298
  14 H     1.0000    0     1.008    9.478301    0.044462    3.173733
  15 H     1.0000    0     1.008   12.055649   -0.123734    1.055953
  16 H     1.0000    0     1.008    9.183573    0.017357   -2.590996
  17 H     1.0000    0     1.008    8.577915    2.663233   -0.626326
  18 H     1.0000    0     1.008    4.691716    3.377634   -0.396066
  19 H     1.0000    0     1.008    0.987597    5.463185   -0.119415
  20 H     1.0000    0     1.008   -3.641042    5.357287    0.190815
  21 H     1.0000    0     1.008    1.149370   -2.626857   -0.257431

--------------------------------
INTERNAL COORDINATES (ANGSTROEM)
--------------------------------
 C      0   0   0     0.000000000000     0.00000000     0.00000000
 C      1   0   0     1.529020558925     0.00000000     0.00000000
 C      2   1   0     1.515660972560   110.20490560     0.00000000
 O      3   2   1     1.221275927729   121.90540040   305.31305204
 N      3   2   1     1.361193058970   114.10989051   125.34729878
 C      5   3   2     1.392420347225   129.19017680   179.38934607
 C      6   5   3     1.396935018725   118.06260552   180.78237799
 C      7   6   5     1.379337057915   120.64590109   179.96715129
 C      8   7   6     1.386994509485   120.10546669     0.00000000
 C      9   8   7     1.388816586449   119.47897052     0.03525956
 C     10   9   8     1.383508399109   120.75064751   359.96800266
 Cl    10   9   8     1.733942413307   120.17673828   179.98381214
 Cl     9   8   7     1.733378199216   120.11373980   180.03821334
 H      1   2   3     1.087367950484   109.77254296    53.32676657
 H      1   2   3     1.087209140340   110.56671635   293.84218419
 H      1   2   3     1.085981519746   110.32561278   173.38919763
 H      2   1   3     1.091870406809   108.88655126   242.80994385
 H      2   1   3     1.088340475823   110.27839348   123.45724843
 H      5   3   2     1.012595451083   116.78424411   359.91130754
 H      7   6   5     1.078067172729   120.10120636     0.00000000
 H      8   7   6     1.077100381811   120.66339481   180.03125063
 H     11  10   9     1.077046932964   119.95954941   180.01130593

---------------------------
INTERNAL COORDINATES (A.U.)
---------------------------
 C      0   0   0     0.000000000000     0.00000000     0.00000000
 C      1   0   0     2.889430109504     0.00000000     0.00000000
 C      2   1   0     2.864184150011   110.20490560     0.00000000
 O      3   2   1     2.307877037358   121.90540040   305.31305204
 N      3   2   1     2.572282096847   114.10989051   125.34729878
 C      5   3   2     2.631293119554   129.19017680   179.38934607
 C      6   5   3     2.639824612275   118.06260552   180.78237799
 C      7   6   5     2.606569285828   120.64590109   179.96715129
 C      8   7   6     2.621039772179   120.10546669     0.00000000
 C      9   8   7     2.624482998636   119.47897052     0.03525956
 C     10   9   8     2.614451978295   120.75064751   359.96800266
 Cl    10   9   8     3.276676293140   120.17673828   179.98381214
 Cl     9   8   7     3.275610083027   120.11373980   180.03821334
 H      1   2   3     2.054827633218   109.77254296    53.32676657
 H      1   2   3     2.054527525539   110.56671635   293.84218419
 H      1   2   3     2.052207658820   110.32561278   173.38919763
 H      2   1   3     2.063336042602   108.88655126   242.80994385
 H      2   1   3     2.056665439767   110.27839348   123.45724843
 H      5   3   2     1.913528087001   116.78424411   359.91130754
 H      7   6   5     2.037251710429   120.10120636     0.00000000
 H      8   7   6     2.035424740364   120.66339481   180.03125063
 H     11  10   9     2.035323736681   119.95954941   180.01130593

---------------------
BASIS SET INFORMATION
---------------------
There are 5 groups of distinct atoms

 Group   1 Type C   : 11s6p1d contracted to 5s3p1d pattern {62111/411/1}
 Group   2 Type O   : 11s6p2d contracted to 5s3p2d pattern {62111/411/11}
 Group   3 Type N   : 11s6p2d contracted to 5s3p2d pattern {62111/411/11}
 Group   4 Type Cl  : 14s9p2d contracted to 5s4p2d pattern {73211/6111/11}
 Group   5 Type H   : 4s1p contracted to 2s1p pattern {31/1}

Atom   0C    basis set group =>   1
Atom   1C    basis set group =>   1
Atom   2C    basis set group =>   1
Atom   3O    basis set group =>   2
Atom   4N    basis set group =>   3
Atom   5C    basis set group =>   1
Atom   6C    basis set group =>   1
Atom   7C    basis set group =>   1
Atom   8C    basis set group =>   1
Atom   9C    basis set group =>   1
Atom  10C    basis set group =>   1
Atom  11Cl   basis set group =>   4
Atom  12Cl   basis set group =>   4
Atom  13H    basis set group =>   5
Atom  14H    basis set group =>   5
Atom  15H    basis set group =>   5
Atom  16H    basis set group =>   5
Atom  17H    basis set group =>   5
Atom  18H    basis set group =>   5
Atom  19H    basis set group =>   5
Atom  20H    basis set group =>   5
Atom  21H    basis set group =>   5
---------------------------------
AUXILIARY/J BASIS SET INFORMATION
---------------------------------
There are 5 groups of distinct atoms

 Group   1 Type C   : 12s5p4d2f1g contracted to 6s4p3d1f1g pattern {711111/2111/211/2/1}
 Group   2 Type O   : 12s5p4d2f1g contracted to 6s4p3d1f1g pattern {711111/2111/211/2/1}
 Group   3 Type N   : 12s5p4d2f1g contracted to 6s4p3d1f1g pattern {711111/2111/211/2/1}
 Group   4 Type Cl  : 14s5p5d2f1g contracted to 8s4p3d1f1g pattern {71111111/2111/311/2/1}
 Group   5 Type H   : 5s2p1d contracted to 3s1p1d pattern {311/2/1}

Atom   0C    basis set group =>   1
Atom   1C    basis set group =>   1
Atom   2C    basis set group =>   1
Atom   3O    basis set group =>   2
Atom   4N    basis set group =>   3
Atom   5C    basis set group =>   1
Atom   6C    basis set group =>   1
Atom   7C    basis set group =>   1
Atom   8C    basis set group =>   1
Atom   9C    basis set group =>   1
Atom  10C    basis set group =>   1
Atom  11Cl   basis set group =>   4
Atom  12Cl   basis set group =>   4
Atom  13H    basis set group =>   5
Atom  14H    basis set group =>   5
Atom  15H    basis set group =>   5
Atom  16H    basis set group =>   5
Atom  17H    basis set group =>   5
Atom  18H    basis set group =>   5
Atom  19H    basis set group =>   5
Atom  20H    basis set group =>   5
Atom  21H    basis set group =>   5

Checking for AutoStart:
The File: sp_solv.gbw exists
Trying to determine its content:
     ... Fine, the file contains calculation information
     ... Fine, the calculation information was read
     ... Fine, the file contains a basis set
     ... Fine, the basis set was read
     ... Fine, the file contains a geometry
     ... Fine, the geometry was read
     ... Fine, the file contains a set of orbitals
     ... Fine, the orbitals can be read
     => possible old guess file was deleted
     => GBW file was renamed to GES file
     => GES file is set as startup file
     => Guess is set to MORead
     ... now leaving AutoStart

------------------------------------------------------------------------------
                             ORCA STARTUP CALCULATIONS
                           -- RI-GTO INTEGRALS CHOSEN --
------------------------------------------------------------------------------
------------------------------------------------------------------------------
                   ___                                                        
                  /   \      - P O W E R E D   B Y -                         
                 /     \                                                     
                 |  |  |   _    _      __       _____    __    __             
                 |  |  |  | |  | |    /  \     |  _  \  |  |  /  |          
                  \  \/   | |  | |   /    \    | | | |  |  | /  /          
                 / \  \   | |__| |  /  /\  \   | |_| |  |  |/  /          
                |  |  |   |  __  | /  /__\  \  |    /   |      \           
                |  |  |   | |  | | |   __   |  |    \   |  |\   \          
                \     /   | |  | | |  |  |  |  | |\  \  |  | \   \       
                 \___/    |_|  |_| |__|  |__|  |_| \__\ |__|  \__/        
                                                                              
                      - O R C A' S   B I G   F R I E N D -                    
                                      &                                       
                       - I N T E G R A L  F E E D E R -                       
                                                                              
 v1 FN, 2020, v2 2021, v3 2022-2024                                           
------------------------------------------------------------------------------


----------------------
SHARK INTEGRAL PACKAGE
----------------------

Number of atoms                             ...     22
Number of basis functions                   ...    318
Number of shells                            ...    150
Maximum angular momentum                    ...      2
Integral batch strategy                     ... SHARK/LIBINT Hybrid
RI-J (if used) integral strategy            ... SPLIT-RIJ (Revised 2003 algorithm where possible)
Printlevel                                  ...      1
Contraction scheme used                     ... SEGMENTED contraction
Prescreening option                         ... SCHWARTZ
   Thresh                                   ... 1.000e-10
   Tcut                                     ... 1.000e-11
   Tpresel                                  ... 1.000e-11 
Coulomb Range Separation                    ... NOT USED
Exchange Range Separation                   ... NOT USED
Multipole approximations                    ... NOT USED
Finite Nucleus Model                        ... NOT USED
CABS basis                                  ... NOT available
Auxiliary Coulomb fitting basis             ... AVAILABLE
   # of basis functions in Aux-J            ...    740
   # of shells in Aux-J                     ...    244
   Maximum angular momentum in Aux-J        ...      4
Auxiliary J/K fitting basis                 ... NOT available
Auxiliary Correlation fitting basis         ... NOT available
Auxiliary 'external' fitting basis          ... NOT available

Checking pre-screening integrals            ... done (  0.0 sec) Dimension = 150
Check shell pair data                       ... done (  0.0 sec)
Shell pair information
Shell pair cut-off parameter TPreSel        ...   1.0e-11
Total number of shell pairs                 ...     11325
Shell pairs after pre-screening             ...      8648
Total number of primitive shell pairs       ...     44009
Primitive shell pairs kept                  ...     21933
          la=0 lb=0:   2518 shell pairs
          la=1 lb=0:   3225 shell pairs
          la=1 lb=1:   1051 shell pairs
          la=2 lb=0:   1054 shell pairs
          la=2 lb=1:    677 shell pairs
          la=2 lb=2:    123 shell pairs

Calculating one electron integrals          ... done (  0.0 sec)
Calculating RI/J V-Matrix + Cholesky decomp.... done (  0.1 sec)
Calculating Nuclear repulsion               ... done (  0.0 sec) ENN=    935.833224318900 Eh

Diagonalization of the overlap matrix:
Smallest eigenvalue                        ... 1.785e-05
Time for diagonalization                   ...    0.011 sec
Threshold for overlap eigenvalues          ... 1.000e-07
Number of eigenvalues below threshold      ... 0
Time for construction of square roots      ...    0.018 sec
Total time needed                          ...    0.041 sec

-------------------
DFT GRID GENERATION
-------------------

General Integration Accuracy     IntAcc      ... 4.388
Radial Grid Type                 RadialGrid  ... OptM3 with GC (2021)
Angular Grid (max. ang.)         AngularGrid ... 4 (Lebedev-302)
Angular grid pruning method      GridPruning ... 4 (adaptive)
Weight generation scheme         WeightScheme... mBecke (2022)
Basis function cutoff            BFCut       ... 1.0000e-10
Integration weight cutoff        WCut        ... 1.0000e-14
Partially contracted basis set               ... off
Rotationally invariant grid construction     ... off
Angular grids for H and He will be reduced by one unit
Diffuse basis detected: some atoms will have their outermost
                        angular grid increased by 1.

Total number of grid points                  ...   109755
Total number of batches                      ...     1730
Average number of points per batch           ...       63
Average number of grid points per atom       ...     4989
Initializing property integral containers    ... done (  0.0 sec)

SHARK setup successfully completed in   1.6 seconds

Maximum memory used throughout the entire STARTUP-calculation: 53.3 MB
-------------------------------------------------------------------------------
                                 ORCA GUESS
                   Start orbitals & Density for SCF / CASSCF
-------------------------------------------------------------------------------

------------
SCF SETTINGS
------------
Hamiltonian:
 Density Functional     Method          .... DFT(GTOs)
  Functional kind                       .... Exchange
  Functional name                       .... Re-regularized SCAN exchange by Furness et al
  Functional family                     .... MGGA
  Functional refs                              
    [ 0] J. W. Furness, A. D. Kaplan, J. Ning, J. P. Perdew, and J. Sun.,  J. Phys. Chem. Lett. 11, 8208-8215 (2020), doi: 10.1021/acs.jpclett.0c02405
    [ 1] J. W. Furness, A. D. Kaplan, J. Ning, J. P. Perdew, and J. Sun.,  J. Phys. Chem. Lett. 11, 9248-9248 (2020), doi: 10.1021/acs.jpclett.0c03077
  Functional external parameters        .... 6
    Parameter  0 _c1        =  6.670000e-01 : c1 parameter        
    Parameter  1 _c2        =  8.000000e-01 : c2 parameter        
    Parameter  2 _d         =  1.240000e+00 : d parameter         
    Parameter  3 _k1        =  6.500000e-02 : k1 parameter        
    Parameter  4 _eta       =  1.000000e-03 : eta parameter       
    Parameter  5 _dp2       =  3.610000e-01 : dp2 parameter       
  Functional kind                       .... Correlation
  Functional name                       .... Re-regularized SCAN correlation by Furness et al
  Functional family                     .... MGGA
  Functional refs                              
    [ 0] J. W. Furness, A. D. Kaplan, J. Ning, J. P. Perdew, and J. Sun.,  J. Phys. Chem. Lett. 11, 8208-8215 (2020), doi: 10.1021/acs.jpclett.0c02405
    [ 1] J. W. Furness, A. D. Kaplan, J. Ning, J. P. Perdew, and J. Sun.,  J. Phys. Chem. Lett. 11, 9248-9248 (2020), doi: 10.1021/acs.jpclett.0c03077
  Functional external parameters        .... 1
    Parameter  0 _eta       =  1.000000e-03 : Regularization parameter
 Gradients option       PostSCFGGA      .... off
 RI-approximation to the Coulomb term is turned on
   Number of AuxJ basis functions       .... 740


General Settings:
 Integral files         IntName         .... sp_solv
 Hartree-Fock type      HFTyp           .... RHF
 Total Charge           Charge          ....    0
 Multiplicity           Mult            ....    1
 Number of Electrons    NEL             ....  112
 Basis Dimension        Dim             ....  318
 Nuclear Repulsion      ENuc            ....    935.8332243189 Eh

Convergence Acceleration:
 AO-DIIS                CNVDIIS         .... on
   Start iteration      DIISMaxIt       ....    12
   Startup error        DIISStart       ....  0.200000
   # of expansion vecs  DIISMaxEq       ....     5
   Bias factor          DIISBfac        ....   1.050
   Max. coefficient     DIISMaxC        ....  10.000
 MO-DIIS                CNVKDIIS        .... off
 Trust-Rad. Augm. Hess. CNVTRAH         .... auto
   Auto Start mean grad. ratio tolernc. ....  1.125000
   Auto Start start iteration           ....     1
   Auto Start num. interpolation iter.  ....    10
   Max. Number of Micro iterations      ....    24
   Max. Number of Macro iterations      .... Maxiter - #DIIS iter
   Number of Davidson start vectors     ....     2
   Converg. threshold    (grad. norm)   ....   3.330e-04
   Grad. Scal. Fac. for Micro threshold ....   0.100
   Minimum threshold for Micro iter.    ....   1.000e-02
   NR start threshold (gradient norm)   ....   1.000e-04
   Initial trust radius                 ....   0.400
   Minimum AH scaling param. (alpha)    ....   1.000
   Maximum AH scaling param. (alpha)    .... 1000.000
   Quad. conv. algorithm                .... NR
   White noise on init. David. guess    .... on
   Maximum white noise                  ....   0.010
   Pseudo random numbers                .... off
   Inactive MOs                         .... canonical
   Orbital update algorithm             .... Taylor
   Preconditioner                       .... Diag
   Full preconditioner red. dimension   ....   250
   COSX micro iterations for RIJONX calc.... off
 SOSCF                  CNVSOSCF        .... on
   Start iteration      SOSCFMaxIt      ....   150
   Startup grad/error   SOSCFStart      ....  0.003300
   Hessian update       SOSCFHessUp     .... L-BFGS
 Level Shifting         CNVShift        .... on
   Level shift para.    LevelShift      ....    0.2500
   Turn off err/grad.   ShiftErr        ....    0.0010
 Zerner damping         CNVZerner       .... off
 Static damping         CNVDamp         .... on
   Fraction old density DampFac         ....    0.7000
   Max. Damping (<1)    DampMax         ....    0.9800
   Min. Damping (>=0)   DampMin         ....    0.0000
   Turn off err/grad.   DampErr         ....    0.1000

SCF Procedure:
 Maximum # iterations   MaxIter         ....   125
 SCF integral mode      SCFMode         .... Direct
   Integral package                     .... SHARK and LIBINT hybrid scheme
 Reset frequency        DirectResetFreq ....    20
 Integral Threshold     Thresh          ....  1.000e-10 Eh
 Primitive CutOff       TCut            ....  1.000e-11 Eh

Convergence Tolerance:
 Convergence Check Mode ConvCheckMode   .... Total+1el-Energy
 Convergence forced     ConvForced      .... 0
 Energy Change          TolE            ....  1.000e-06 Eh
 1-El. energy change                    ....  1.000e-03 Eh
 Orbital Gradient       TolG            ....  3.330e-04
 Orbital Rotation angle TolX            ....  3.330e-04
 DIIS Error             TolErr          ....  1.000e-06

---------------------
INITIAL GUESS: MOREAD
---------------------
Guess MOs are being read from file: sp_solv.ges
Input Geometry matches current geometry (good)
Atom 0: N(Shells)= 9 and 6 - projection required
Input basis set needs projection
NBasis(read)= 208
NBasis(calc)= 318
Basis set overlap was calculated
Using GuessMode=FMatrix for the initial guess
C*T matrix was formed
Effective Fockian was calculated
Effective Fockian was diagonalized
Initial density was built
                      ------------------
                      INITIAL GUESS DONE (   0.1 sec)
                      ------------------
             **** ENERGY FILE WAS UPDATED (sp_solv.en.tmp) ****
Finished Guess after   0.3 sec
Maximum memory used throughout the entire GUESS-calculation: 25.3 MB

-------------------------------------------------------------------------------------------
                                      ORCA LEAN-SCF
                              memory conserving SCF solver
-------------------------------------------------------------------------------------------

--------------------
CPCM SOLVATION MODEL
--------------------
CPCM parameters:
  Epsilon                                         ...      78.3550
  Refrac                                          ...       1.3328
  Rsolv                                           ...       1.3000
  Surface type                                    ... GAUSSIAN VDW
  Discretization scheme                           ... Constant charge density
    Threshold for H atoms                         ...       5.0000 (charges/Ang^2)
    Threshold for non-H atoms                     ...       5.0000 (charges/Ang^2)
  Epsilon function type                           ...         CPCM
Solvent:                                          ... WATER
SMD-CDS solvent descriptors:
  Soln                                            ...       1.3328
  Soln25                                          ...       1.3323
  Sola                                            ...       0.0000
  Solb                                            ...       0.0000
  Solg                                            ...       0.0000
  Solc                                            ...       0.0000
  Solh                                            ...       0.0000
Radii:
  Scheme                                          ... Element-dependent radii
  Radius for C  used is    3.4960 Bohr (=   1.8500 Ang.)
  Radius for O  used is    2.8724 Bohr (=   1.5200 Ang.)
  Radius for N  used is    3.5716 Bohr (=   1.8900 Ang.)
  Radius for Cl used is    4.4975 Bohr (=   2.3800 Ang.)
  Radius for H  used is    2.2677 Bohr (=   1.2000 Ang.)
Calculating surface                               ...        done! (  0.0s)
Cavity surface points                             ...         1846
Cavity Volume                                     ...    1578.4658
Cavity Surface-area                               ...     878.0988
Calculating surface distance matrix               ...        done! (  0.0s)
Performing Cholesky decomposition & store         ...        done! (  0.1s)
Overall time for CPCM initialization              ...                 0.2s

----------------------------------------D-I-I-S--------------------------------------------
Iteration    Energy (Eh)           Delta-E    RMSDP     MaxDP     DIISErr   Damp  Time(sec)
-------------------------------------------------------------------------------------------
               ***  Starting incremental Fock matrix formation  ***
    1    -1398.3646993472364102     0.00e+00  1.48e-02  9.47e-01  6.27e-01  0.700   6.0
    2    -1398.4475023667985170    -8.28e-02  1.10e-02  6.88e-01  4.42e-01  0.700   5.3
    3    -1398.5060655013342057    -5.86e-02  7.84e-03  4.81e-01  3.11e-01  0.700   5.3
    4    -1398.5472054146778191    -4.11e-02  5.51e-03  3.35e-01  2.18e-01  0.700   5.1
                               ***Turning on AO-DIIS***
    5    -1398.5760838762200819    -2.89e-02  3.88e-03  2.33e-01  1.52e-01  0.700   4.9
    6    -1398.5963239091609012    -2.02e-02  2.73e-03  1.63e-01  1.06e-01  0.700   5.0
    7    -1398.6105324445850329    -1.42e-02  1.92e-03  1.14e-01  7.42e-02  0.700   4.8
    8    -1398.6204905771571703    -9.96e-03  4.49e-03  2.66e-01  5.22e-02  0.000   4.7
                              *** Initializing SOSCF ***
---------------------------------------S-O-S-C-F--------------------------------------
Iteration    Energy (Eh)           Delta-E    RMSDP     MaxDP     MaxGrad    Time(sec)
--------------------------------------------------------------------------------------
    9    -1398.6437692072893242    -2.33e-02  2.53e-05  7.42e-04  3.15e-04     5.1
               *** Restarting incremental Fock matrix formation ***
   10    -1398.6437697624849079    -5.55e-07  2.12e-05  8.95e-04  1.12e-04     6.0
   11    -1398.6437685174171293     1.25e-06  9.28e-06  2.41e-04  2.22e-04     4.1
   12    -1398.6437702057280603    -1.69e-06  4.30e-06  1.77e-04  1.90e-05     3.9
                  *** Gradient check signals convergence ***

               *****************************************************
               *                     SUCCESS                       *
               *           SCF CONVERGED AFTER  12 CYCLES          *
               *****************************************************


SMD CDS free energy correction energy :                 4.95087     Kcal/mol
Total Energy after SMD CDS correction =             -1398.635880492 Eh
             **** ENERGY FILE WAS UPDATED (sp_solv.en.tmp) ****

----------------
TOTAL SCF ENERGY
----------------

Total Energy       :      -1398.63588049163036 Eh          -38058.81718 eV

Components:
Nuclear Repulsion  :        935.83322431890042 Eh           25465.31667 eV
Electronic Energy  :      -2334.44859420247394 Eh          -63523.57572 eV
One Electron Energy:      -3778.74759958188542 Eh         -102824.94970 eV
Two Electron Energy:       1444.29900537941126 Eh           39301.37398 eV
CPCM Dielectric    :         -0.02840032215388 Eh              -0.77281 eV
SMD CDS (Gcds)     :          0.00788971409772 Eh               0.21469 eV

Virial components:
Potential Energy   :      -2793.25929367122035 Eh          -76008.44958 eV
Kinetic Energy     :       1394.62341317958999 Eh           37949.63239 eV
Virial Ratio       :          2.00287709733977

DFT components:
N(Alpha)           :       55.999993552541 electrons
N(Beta)            :       55.999993552541 electrons
N(Total)           :      111.999987105082 electrons
E(X)               :     -120.167005253463 Eh       
E(C)               :       -3.878583793736 Eh       
E(XC)              :     -124.045589047199 Eh       

CPCM Solvation Model Properties:
Surface-charge          :         -0.03413245988398
Corrected charge        :         -0.00000000000000
Outlying charge corr.   :          0.00007048053118 Eh               0.00192 eV
Free-energy (cav+disp)  :          0.00788971409772 Eh               0.21469 eV

---------------
SCF CONVERGENCE
---------------

  Last Energy change         ...    1.6883e-06  Tolerance :   1.0000e-06
  Last MAX-Density change    ...    1.7742e-04  Tolerance :   1.0000e-05
  Last RMS-Density change    ...    4.3024e-06  Tolerance :   1.0000e-06
  Last DIIS Error            ...    3.1506e-04  Tolerance :   1.0000e-06
  Last Orbital Gradient      ...    1.8963e-05  Tolerance :   3.3300e-04
  Last Orbital Rotation      ...    5.7633e-05  Tolerance :   3.3300e-04


----------------
ORBITAL ENERGIES
----------------

  NO   OCC          E(Eh)            E(eV) 
   0   2.0000    -101.230772     -2754.6294 
   1   2.0000    -101.229163     -2754.5856 
   2   2.0000     -18.934853      -515.2435 
   3   2.0000     -14.210727      -386.6935 
   4   2.0000     -10.145340      -276.0687 
   5   2.0000     -10.114832      -275.2386 
   6   2.0000     -10.109069      -275.0818 
   7   2.0000     -10.099652      -274.8255 
   8   2.0000     -10.056674      -273.6560 
   9   2.0000     -10.051292      -273.5096 
  10   2.0000     -10.050379      -273.4847 
  11   2.0000     -10.036019      -273.0940 
  12   2.0000     -10.018644      -272.6212 
  13   2.0000      -9.386649      -255.4237 
  14   2.0000      -9.385039      -255.3799 
  15   2.0000      -7.132963      -194.0978 
  16   2.0000      -7.131331      -194.0534 
  17   2.0000      -7.122993      -193.8265 
  18   2.0000      -7.122267      -193.8067 
  19   2.0000      -7.121349      -193.7818 
  20   2.0000      -7.120706      -193.7643 
  21   2.0000      -1.022907       -27.8347 
  22   2.0000      -0.925018       -25.1710 
  23   2.0000      -0.887041       -24.1376 
  24   2.0000      -0.829054       -22.5597 
  25   2.0000      -0.809225       -22.0201 
  26   2.0000      -0.748577       -20.3698 
  27   2.0000      -0.724571       -19.7166 
  28   2.0000      -0.705999       -19.2112 
  29   2.0000      -0.631442       -17.1824 
  30   2.0000      -0.605751       -16.4833 
  31   2.0000      -0.578315       -15.7367 
  32   2.0000      -0.553776       -15.0690 
  33   2.0000      -0.511872       -13.9287 
  34   2.0000      -0.471893       -12.8409 
  35   2.0000      -0.470175       -12.7941 
  36   2.0000      -0.447813       -12.1856 
  37   2.0000      -0.433384       -11.7930 
  38   2.0000      -0.428119       -11.6497 
  39   2.0000      -0.412368       -11.2211 
  40   2.0000      -0.405838       -11.0434 
  41   2.0000      -0.398877       -10.8540 
  42   2.0000      -0.389500       -10.5988 
  43   2.0000      -0.375044       -10.2055 
  44   2.0000      -0.348602        -9.4859 
  45   2.0000      -0.348338        -9.4788 
  46   2.0000      -0.334521        -9.1028 
  47   2.0000      -0.329119        -8.9558 
  48   2.0000      -0.326721        -8.8905 
  49   2.0000      -0.311358        -8.4725 
  50   2.0000      -0.306299        -8.3348 
  51   2.0000      -0.284586        -7.7440 
  52   2.0000      -0.280773        -7.6402 
  53   2.0000      -0.245057        -6.6683 
  54   2.0000      -0.238441        -6.4883 
  55   2.0000      -0.213476        -5.8090 
  56   0.0000      -0.057644        -1.5686 
  57   0.0000      -0.052618        -1.4318 
  58   0.0000      -0.020853        -0.5674 
  59   0.0000       0.003801         0.1034 
  60   0.0000       0.038201         1.0395 
  61   0.0000       0.074538         2.0283 
  62   0.0000       0.102531         2.7900 
  63   0.0000       0.104739         2.8501 
  64   0.0000       0.106337         2.8936 
  65   0.0000       0.116520         3.1707 
  66   0.0000       0.131830         3.5873 
*Only the first 10 virtual orbitals were printed.

                    ********************************
                    * MULLIKEN POPULATION ANALYSIS *
                    ********************************

-----------------------
MULLIKEN ATOMIC CHARGES
-----------------------
   0 C :   -0.503405
   1 C :   -0.321776
   2 C :    0.352463
   3 O :   -0.547005
   4 N :   -0.080722
   5 C :    0.195715
   6 C :   -0.353468
   7 C :   -0.218996
   8 C :    0.111524
   9 C :    0.055004
  10 C :   -0.219297
  11 Cl:   -0.135542
  12 Cl:   -0.138494
  13 H :    0.168339
  14 H :    0.162670
  15 H :    0.169238
  16 H :    0.189016
  17 H :    0.167818
  18 H :    0.328476
  19 H :    0.188873
  20 H :    0.201261
  21 H :    0.228307
Sum of atomic charges:    0.0000000

--------------------------------
MULLIKEN REDUCED ORBITAL CHARGES
--------------------------------
  0 C s       :     3.339273  s :     3.339273
      pz      :     1.004057  p :     3.137489
      px      :     1.064848
      py      :     1.068584
      dz2     :     0.008066  d :     0.026643
      dxz     :     0.004555
      dyz     :     0.003475
      dx2y2   :     0.007979
      dxy     :     0.002568

  1 C s       :     3.259125  s :     3.259125
      pz      :     1.038959  p :     3.027803
      px      :     0.927392
      py      :     1.061452
      dz2     :     0.009473  d :     0.034848
      dxz     :     0.005733
      dyz     :     0.004047
      dx2y2   :     0.010503
      dxy     :     0.005090

  2 C s       :     3.151143  s :     3.151143
      pz      :     0.752312  p :     2.384451
      px      :     0.859361
      py      :     0.772777
      dz2     :     0.005604  d :     0.111944
      dxz     :     0.008270
      dyz     :     0.025195
      dx2y2   :     0.027191
      dxy     :     0.045684

  3 O s       :     3.843190  s :     3.843190
      pz      :     1.520616  p :     4.675693
      px      :     1.810136
      py      :     1.344941
      dz2     :     0.005153  d :     0.028122
      dxz     :     0.002491
      dyz     :     0.007678
      dx2y2   :     0.010940
      dxy     :     0.001860

  4 N s       :     3.340109  s :     3.340109
      pz      :     1.591439  p :     3.654131
      px      :     0.925185
      py      :     1.137508
      dz2     :     0.011083  d :     0.086482
      dxz     :     0.013384
      dyz     :     0.005988
      dx2y2   :     0.029084
      dxy     :     0.026944

  5 C s       :     3.196643  s :     3.196643
      pz      :     0.978841  p :     2.546084
      px      :     0.831992
      py      :     0.735252
      dz2     :     0.004634  d :     0.061557
      dxz     :     0.012823
      dyz     :     0.007213
      dx2y2   :     0.020742
      dxy     :     0.016146

  6 C s       :     3.313541  s :     3.313541
      pz      :     1.010571  p :     3.003749
      px      :     0.988809
      py      :     1.004368
      dz2     :     0.003429  d :     0.036179
      dxz     :     0.005859
      dyz     :     0.003296
      dx2y2   :     0.010569
      dxy     :     0.013026

  7 C s       :     3.227169  s :     3.227169
      pz      :     0.984235  p :     2.954503
      px      :     0.998315
      py      :     0.971953
      dz2     :     0.003431  d :     0.037325
      dxz     :     0.006405
      dyz     :     0.004055
      dx2y2   :     0.010350
      dxy     :     0.013084

  8 C s       :     3.148179  s :     3.148179
      pz      :     1.063269  p :     2.687154
      px      :     0.722966
      py      :     0.900919
      dz2     :     0.004013  d :     0.053142
      dxz     :     0.008041
      dyz     :     0.007384
      dx2y2   :     0.017060
      dxy     :     0.016644

  9 C s       :     3.296493  s :     3.296493
      pz      :     1.044148  p :     2.594268
      px      :     0.848695
      py      :     0.701425
      dz2     :     0.004008  d :     0.054234
      dxz     :     0.008353
      dyz     :     0.008126
      dx2y2   :     0.015680
      dxy     :     0.018068

 10 C s       :     3.211325  s :     3.211325
      pz      :     1.017062  p :     2.972815
      px      :     0.843292
      py      :     1.112461
      dz2     :     0.003519  d :     0.035157
      dxz     :     0.005866
      dyz     :     0.003578
      dx2y2   :     0.011565
      dxy     :     0.010629

 11 Cls       :     5.945190  s :     5.945190
      pz      :     3.927339  p :    11.134561
      px      :     3.802080
      py      :     3.405142
      dz2     :     0.006037  d :     0.055792
      dxz     :     0.005335
      dyz     :     0.014735
      dx2y2   :     0.013268
      dxy     :     0.016416

 12 Cls       :     5.941663  s :     5.941663
      pz      :     3.927356  p :    11.139690
      px      :     3.249987
      py      :     3.962347
      dz2     :     0.006140  d :     0.057141
      dxz     :     0.020530
      dyz     :     0.000759
      dx2y2   :     0.018579
      dxy     :     0.011132

 13 H s       :     0.813326  s :     0.813326
      pz      :     0.003583  p :     0.018336
      px      :     0.003692
      py      :     0.011060

 14 H s       :     0.819089  s :     0.819089
      pz      :     0.009755  p :     0.018241
      px      :     0.004138
      py      :     0.004348

 15 H s       :     0.812392  s :     0.812392
      pz      :     0.003641  p :     0.018370
      px      :     0.010668
      py      :     0.004061

 16 H s       :     0.792882  s :     0.792882
      pz      :     0.009705  p :     0.018102
      px      :     0.004413
      py      :     0.003983

 17 H s       :     0.814051  s :     0.814051
      pz      :     0.003434  p :     0.018131
      px      :     0.003270
      py      :     0.011428

 18 H s       :     0.639707  s :     0.639707
      pz      :     0.008184  p :     0.031817
      px      :     0.005441
      py      :     0.018192

 19 H s       :     0.791152  s :     0.791152
      pz      :     0.004108  p :     0.019975
      px      :     0.004982
      py      :     0.010884

 20 H s       :     0.778847  s :     0.778847
      pz      :     0.003884  p :     0.019892
      px      :     0.005683
      py      :     0.010325

 21 H s       :     0.750001  s :     0.750001
      pz      :     0.004151  p :     0.021692
      px      :     0.007003
      py      :     0.010538


------------------------
MULLIKEN OVERLAP CHARGES
------------------------
B(  0-C ,  1-C ) :   0.4149 B(  0-C ,  2-C ) :  -0.1302 B(  0-C , 13-H ) :   0.8520 
B(  0-C , 14-H ) :   0.8219 B(  0-C , 15-H ) :   0.8219 B(  0-C , 16-H ) :  -0.0743 
B(  1-C ,  2-C ) :   0.4048 B(  1-C ,  3-O ) :  -0.1286 B(  1-C , 13-H ) :  -0.0675 
B(  1-C , 14-H ) :  -0.0719 B(  1-C , 15-H ) :  -0.0987 B(  1-C , 16-H ) :   0.8301 
B(  1-C , 17-H ) :   0.8834 B(  2-C ,  3-O ) :   0.9533 B(  2-C ,  4-N ) :   0.3368 
B(  2-C ,  5-C ) :  -0.3677 B(  2-C , 17-H ) :  -0.1770 B(  2-C , 18-H ) :  -0.0674 
B(  3-O ,  4-N ) :  -0.1790 B(  4-N ,  5-C ) :   0.5512 B(  4-N ,  6-C ) :  -0.0756 
B(  4-N , 10-C ) :  -0.1194 B(  4-N , 18-H ) :   0.7828 B(  5-C ,  6-C ) :   0.5630 
B(  5-C ,  7-C ) :   0.1061 B(  5-C ,  8-C ) :  -0.1973 B(  5-C ,  9-C ) :   0.1628 
B(  5-C , 10-C ) :   0.5524 B(  5-C , 18-H ) :  -0.1349 B(  5-C , 19-H ) :  -0.0723 
B(  6-C ,  7-C ) :   0.3502 B(  6-C ,  8-C ) :   0.0607 B(  6-C ,  9-C ) :  -0.3573 
B(  6-C , 10-C ) :  -0.1319 B(  6-C , 19-H ) :   0.8159 B(  7-C ,  8-C ) :   0.5437 
B(  7-C ,  9-C ) :   0.2076 B(  7-C , 10-C ) :  -0.3175 B(  7-C , 12-Cl) :  -0.1217 
B(  7-C , 20-H ) :   0.8092 B(  8-C ,  9-C ) :   0.1334 B(  8-C , 10-C ) :   0.2325 
B(  8-C , 11-Cl) :  -0.2319 B(  8-C , 12-Cl) :   0.6137 B(  8-C , 20-H ) :  -0.0716 
B(  9-C , 10-C ) :  -0.4434 B(  9-C , 11-Cl) :   0.7023 B(  9-C , 12-Cl) :  -0.2359 
B(  9-C , 21-H ) :  -0.1178 B( 10-C , 11-Cl) :  -0.1956 B( 10-C , 21-H ) :   0.8169 



                     *******************************
                     * LOEWDIN POPULATION ANALYSIS *
                     *******************************

----------------------
LOEWDIN ATOMIC CHARGES
----------------------
   0 C :   -0.401300
   1 C :   -0.236672
   2 C :    0.350010
   3 O :   -0.537013
   4 N :   -0.557397
   5 C :    0.157683
   6 C :   -0.116910
   7 C :   -0.151910
   8 C :   -0.201621
   9 C :   -0.179800
  10 C :   -0.136174
  11 Cl:    0.134205
  12 Cl:    0.126630
  13 H :    0.161607
  14 H :    0.158865
  15 H :    0.158838
  16 H :    0.185736
  17 H :    0.174132
  18 H :    0.304729
  19 H :    0.194826
  20 H :    0.195225
  21 H :    0.216312

-------------------------------
LOEWDIN REDUCED ORBITAL CHARGES
-------------------------------
  0 C s       :     2.970484  s :     2.970484
      pz      :     1.106972  p :     3.368592
      px      :     1.118025
      py      :     1.143595
      dz2     :     0.018622  d :     0.062224
      dxz     :     0.010492
      dyz     :     0.008004
      dx2y2   :     0.019322
      dxy     :     0.005785

  1 C s       :     2.927800  s :     2.927800
      pz      :     1.113937  p :     3.235285
      px      :     1.007224
      py      :     1.114124
      dz2     :     0.019707  d :     0.073587
      dxz     :     0.012558
      dyz     :     0.007962
      dx2y2   :     0.023027
      dxy     :     0.010334

  2 C s       :     2.735550  s :     2.735550
      pz      :     0.718682  p :     2.672640
      px      :     0.977124
      py      :     0.976835
      dz2     :     0.015103  d :     0.241799
      dxz     :     0.012962
      dyz     :     0.047636
      dx2y2   :     0.064705
      dxy     :     0.101392

  3 O s       :     3.545099  s :     3.545099
      pz      :     1.499030  p :     4.753101
      px      :     1.761931
      py      :     1.492140
      dz2     :     0.030515  d :     0.238812
      dxz     :     0.011155
      dyz     :     0.043824
      dx2y2   :     0.075090
      dxy     :     0.078228

  4 N s       :     3.092275  s :     3.092275
      pz      :     1.530447  p :     3.952668
      px      :     1.204993
      py      :     1.217228
      dz2     :     0.059913  d :     0.512455
      dxz     :     0.100490
      dyz     :     0.032979
      dx2y2   :     0.164480
      dxy     :     0.154594

  5 C s       :     2.773176  s :     2.773176
      pz      :     0.912634  p :     2.936317
      px      :     0.949819
      py      :     1.073864
      dz2     :     0.009355  d :     0.132824
      dxz     :     0.024832
      dyz     :     0.012804
      dx2y2   :     0.045898
      dxy     :     0.039934

  6 C s       :     2.890326  s :     2.890326
      pz      :     0.998055  p :     3.148648
      px      :     1.071184
      py      :     1.079409
      dz2     :     0.005607  d :     0.077936
      dxz     :     0.010382
      dyz     :     0.005415
      dx2y2   :     0.026327
      dxy     :     0.030206

  7 C s       :     2.902582  s :     2.902582
      pz      :     0.975388  p :     3.167028
      px      :     1.103848
      py      :     1.087791
      dz2     :     0.005907  d :     0.082300
      dxz     :     0.011842
      dyz     :     0.007118
      dx2y2   :     0.025466
      dxy     :     0.031966

  8 C s       :     2.894439  s :     2.894439
      pz      :     1.060760  p :     3.192170
      px      :     1.002562
      py      :     1.128849
      dz2     :     0.008112  d :     0.115012
      dxz     :     0.014730
      dyz     :     0.013371
      dx2y2   :     0.039032
      dxy     :     0.039766

  9 C s       :     2.894720  s :     2.894720
      pz      :     1.033756  p :     3.168083
      px      :     1.110450
      py      :     1.023877
      dz2     :     0.008098  d :     0.116997
      dxz     :     0.015162
      dyz     :     0.015039
      dx2y2   :     0.036923
      dxy     :     0.041775

 10 C s       :     2.890361  s :     2.890361
      pz      :     1.013967  p :     3.168863
      px      :     1.051954
      py      :     1.102943
      dz2     :     0.005953  d :     0.076949
      dxz     :     0.010778
      dyz     :     0.005805
      dx2y2   :     0.028943
      dxy     :     0.025470

 11 Cls       :     5.645861  s :     5.645861
      pz      :     3.899992  p :    11.103942
      px      :     3.776946
      py      :     3.427004
      dz2     :     0.014902  d :     0.115991
      dxz     :     0.008981
      dyz     :     0.025217
      dx2y2   :     0.028242
      dxy     :     0.038649

 12 Cls       :     5.645964  s :     5.645964
      pz      :     3.900425  p :    11.108991
      px      :     3.292011
      py      :     3.916555
      dz2     :     0.014877  d :     0.118415
      dxz     :     0.035994
      dyz     :     0.000891
      dx2y2   :     0.045021
      dxy     :     0.021632

 13 H s       :     0.794025  s :     0.794025
      pz      :     0.007922  p :     0.044368
      px      :     0.008231
      py      :     0.028215

 14 H s       :     0.797251  s :     0.797251
      pz      :     0.024218  p :     0.043884
      px      :     0.009593
      py      :     0.010074

 15 H s       :     0.796988  s :     0.796988
      pz      :     0.008180  p :     0.044174
      px      :     0.026643
      py      :     0.009351

 16 H s       :     0.769804  s :     0.769804
      pz      :     0.024351  p :     0.044459
      px      :     0.010511
      py      :     0.009597

 17 H s       :     0.781463  s :     0.781463
      pz      :     0.008210  p :     0.044405
      px      :     0.007408
      py      :     0.028787

 18 H s       :     0.609519  s :     0.609519
      pz      :     0.020533  p :     0.085752
      px      :     0.015399
      py      :     0.049820

 19 H s       :     0.758619  s :     0.758619
      pz      :     0.009365  p :     0.046555
      px      :     0.011614
      py      :     0.025576

 20 H s       :     0.758151  s :     0.758151
      pz      :     0.008776  p :     0.046624
      px      :     0.013025
      py      :     0.024824

 21 H s       :     0.730831  s :     0.730831
      pz      :     0.009725  p :     0.052858
      px      :     0.017305
      py      :     0.025828


---------------------------------
LOEWDIN BOND ORDERS (THRESH 0.050000)
---------------------------------
B(  0-C ,  1-C ) :   1.1183 B(  0-C ,  2-C ) :   0.0754 B(  0-C , 13-H ) :   0.9193 
B(  0-C , 14-H ) :   0.9271 B(  0-C , 15-H ) :   0.9253 B(  1-C ,  2-C ) :   0.9210 
B(  1-C ,  3-O ) :   0.1916 B(  1-C ,  4-N ) :   0.1824 B(  1-C , 16-H ) :   0.8649 
B(  1-C , 17-H ) :   0.8725 B(  2-C ,  3-O ) :   2.0841 B(  2-C ,  4-N ) :   1.3980 
B(  2-C ,  5-C ) :   0.0752 B(  3-O ,  4-N ) :   0.4395 B(  3-O , 10-C ) :   0.0818 
B(  4-N ,  5-C ) :   1.3702 B(  4-N ,  6-C ) :   0.2113 B(  4-N , 10-C ) :   0.1895 
B(  4-N , 18-H ) :   0.8330 B(  5-C ,  6-C ) :   1.2851 B(  5-C ,  7-C ) :   0.0913 
B(  5-C ,  8-C ) :   0.0927 B(  5-C ,  9-C ) :   0.0951 B(  5-C , 10-C ) :   1.3049 
B(  5-C , 19-H ) :   0.0517 B(  6-C ,  7-C ) :   1.5283 B(  6-C ,  8-C ) :   0.0970 
B(  6-C ,  9-C ) :   0.1108 B(  6-C , 10-C ) :   0.0822 B(  6-C , 19-H ) :   0.8523 
B(  6-C , 20-H ) :   0.0547 B(  7-C ,  8-C ) :   1.4159 B(  7-C ,  9-C ) :   0.0931 
B(  7-C , 10-C ) :   0.1146 B(  7-C , 12-Cl) :   0.1507 B(  7-C , 19-H ) :   0.0543 
B(  7-C , 20-H ) :   0.8575 B(  8-C ,  9-C ) :   1.3580 B(  8-C , 10-C ) :   0.0959 
B(  8-C , 11-Cl) :   0.1467 B(  8-C , 12-Cl) :   1.4077 B(  8-C , 20-H ) :   0.0528 
B(  9-C , 10-C ) :   1.4372 B(  9-C , 11-Cl) :   1.4054 B(  9-C , 12-Cl) :   0.1474 
B(  9-C , 21-H ) :   0.0516 B( 10-C , 11-Cl) :   0.1568 B( 10-C , 21-H ) :   0.8216 
B( 11-Cl, 12-Cl) :   0.0550 

------------------------------------------
LOEWDIN REDUCED ORBITAL POPULATIONS PER MO
-------------------------------------------
THRESHOLD FOR PRINTING IS 0.1%%
                      0         1         2         3         4         5   
                 -101.23077 -101.22916 -18.93485 -14.21073 -10.14534 -10.11483
                   2.00000   2.00000   2.00000   2.00000   2.00000   2.00000
                  --------  --------  --------  --------  --------  --------
 2 C  s               0.0       0.0       0.0       0.0      98.9       0.0
 3 O  s               0.0       0.0      99.9       0.0       0.0       0.0
 3 O  py              0.0       0.0       0.0       0.0       0.2       0.0
 3 O  dx2y2           0.0       0.0       0.0       0.0       0.2       0.0
 4 N  s               0.0       0.0       0.0      99.8       0.0       0.0
 4 N  dxy             0.0       0.0       0.0       0.0       0.2       0.0
 8 C  s               0.0       0.0       0.0       0.0       0.0       0.2
 8 C  py              0.0       0.0       0.0       0.0       0.0       0.1
 9 C  s               0.0       0.0       0.0       0.0       0.0      99.4
10 C  px              0.0       0.0       0.0       0.0       0.0       0.1
11 Cl s             100.0       0.0       0.0       0.0       0.0       0.0
12 Cl s               0.0     100.0       0.0       0.0       0.0       0.0

                      6         7         8         9        10        11   
                 -10.10907 -10.09965 -10.05667 -10.05129 -10.05038 -10.03602
                   2.00000   2.00000   2.00000   2.00000   2.00000   2.00000
                  --------  --------  --------  --------  --------  --------
 1 C  s               0.0       0.0       0.0       0.0       0.0      99.7
 4 N  px              0.0       0.1       0.0       0.0       0.0       0.0
 4 N  dx2y2           0.0       0.2       0.0       0.0       0.0       0.0
 5 C  s               0.0      99.2       0.0       0.0       0.0       0.0
 5 C  py              0.0       0.0       0.0       0.1       0.1       0.0
 6 C  s               0.0       0.0       0.2       0.0      99.4       0.0
 6 C  px              0.0       0.0       0.1       0.0       0.0       0.0
 7 C  s               0.0       0.0      99.4       0.0       0.2       0.0
 7 C  px              0.0       0.0       0.0       0.0       0.1       0.0
 7 C  py              0.1       0.0       0.0       0.0       0.0       0.0
 8 C  s              99.4       0.0       0.0       0.0       0.0       0.0
 8 C  py              0.0       0.0       0.1       0.0       0.0       0.0
 9 C  s               0.2       0.0       0.0       0.0       0.0       0.0
 9 C  px              0.0       0.0       0.0       0.1       0.0       0.0
10 C  s               0.0       0.0       0.0      99.6       0.0       0.0

                     12        13        14        15        16        17   
                 -10.01864  -9.38665  -9.38504  -7.13296  -7.13133  -7.12299
                   2.00000   2.00000   2.00000   2.00000   2.00000   2.00000
                  --------  --------  --------  --------  --------  --------
 0 C  s              99.7       0.0       0.0       0.0       0.0       0.0
 8 C  px              0.0       0.0       0.2       0.0       0.0       0.0
 9 C  py              0.0       0.1       0.0       0.0       0.0       0.0
11 Cl s               0.0      99.8       0.0       0.0       0.0       0.0
11 Cl pz              0.0       0.0       0.0       0.0       0.0      99.5
11 Cl px              0.0       0.0       0.0      21.5       0.0       0.5
11 Cl py              0.0       0.0       0.0      78.4       0.0       0.0
12 Cl s               0.0       0.0      99.8       0.0       0.0       0.0
12 Cl pz              0.0       0.0       0.0       0.0       0.4       0.0
12 Cl px              0.0       0.0       0.0       0.0      99.5       0.0

                     18        19        20        21        22        23   
                  -7.12227  -7.12135  -7.12071  -1.02291  -0.92502  -0.88704
                   2.00000   2.00000   2.00000   2.00000   2.00000   2.00000
                  --------  --------  --------  --------  --------  --------
 0 C  s               0.0       0.0       0.0       0.1       0.0       0.0
 0 C  pz              0.0       0.0       0.0       0.1       0.0       0.0
 0 C  px              0.0       0.0       0.0       0.3       0.0       0.0
 1 C  s               0.0       0.0       0.0       1.3       0.1       0.0
 1 C  px              0.0       0.0       0.0       1.8       0.2       0.0
 1 C  py              0.0       0.0       0.0       0.4       0.1       0.0
 2 C  s               0.0       0.0       0.0      19.5       0.5       0.2
 2 C  px              0.0       0.0       0.0       1.7       2.0       0.1
 2 C  py              0.0       0.0       0.0       6.4      13.4       1.3
 2 C  dz2             0.0       0.0       0.0       0.6       0.0       0.0
 2 C  dx2y2           0.0       0.0       0.0       0.8       0.2       0.0
 2 C  dxy             0.0       0.0       0.0       0.1       0.6       0.1
 3 O  s               0.0       0.0       0.0      44.3       9.7       0.6
 3 O  px              0.0       0.0       0.0       0.2       0.1       0.0
 3 O  py              0.0       0.0       0.0       5.4       0.6       0.0
 3 O  dz2             0.0       0.0       0.0       0.3       0.2       0.0
 3 O  dx2y2           0.0       0.0       0.0       0.5       0.2       0.1
 3 O  dxy             0.0       0.0       0.0       0.0       0.1       0.0
 4 N  s               0.0       0.0       0.0       7.5      33.8       3.0
 4 N  px              0.0       0.0       0.0       0.4       0.9       0.1
 4 N  py              0.0       0.0       0.0       1.7       0.1       0.0
 4 N  dz2             0.0       0.0       0.0       0.7       0.2       0.0
 4 N  dx2y2           0.0       0.0       0.0       0.2       0.8       0.0
 4 N  dxy             0.0       0.0       0.0       0.8       0.0       0.0
 5 C  s               0.0       0.0       0.0       1.2      12.2       0.3
 5 C  px              0.0       0.0       0.0       1.3       3.3       3.2
 5 C  py              0.0       0.0       0.0       0.1       0.1       0.1
 5 C  dz2             0.0       0.0       0.0       0.0       0.3       0.0
 5 C  dx2y2           0.0       0.0       0.0       0.0       0.2       0.0
 6 C  s               0.0       0.0       0.0       0.1       2.7       1.4
 6 C  px              0.0       0.0       0.0       0.1       0.5       1.2
 6 C  py              0.0       0.0       0.0       0.1       1.2       0.3
 7 C  s               0.0       0.0       0.0       0.0       0.8       5.1
 7 C  px              0.0       0.0       0.0       0.0       0.2       0.2
 7 C  py              0.0       0.0       0.0       0.0       0.2       2.4
 8 C  s               0.0       0.0       0.0       0.0       0.9      18.1
 8 C  px              0.0       0.0       0.0       0.0       0.1       0.2
 8 C  py              0.0       0.0       0.0       0.0       0.0       0.9
 8 C  dz2             0.0       0.0       0.0       0.0       0.0       0.2
 9 C  s               0.0       0.0       0.0       0.0       1.3      18.1
 9 C  px              0.0       0.0       0.0       0.0       0.1       1.3
 9 C  dz2             0.0       0.0       0.0       0.0       0.0       0.2
10 C  s               0.0       0.0       0.0       0.2       2.6       4.1
10 C  px              0.0       0.0       0.0       0.5       0.1       3.4
10 C  py              0.0       0.0       0.0       0.0       1.3       0.0
11 Cl s               0.0       0.0       0.0       0.0       0.4      14.0
11 Cl pz              0.5       0.0       0.0       0.0       0.0       0.0
11 Cl px             78.0       0.0       0.0       0.0       0.0       0.3
11 Cl py             21.5       0.0       0.0       0.0       0.1       1.5
11 Cl dz2             0.0       0.0       0.0       0.0       0.0       0.1
11 Cl dx2y2           0.0       0.0       0.0       0.0       0.0       0.1
11 Cl dxy             0.0       0.0       0.0       0.0       0.0       0.2
12 Cl s               0.0       0.0       0.0       0.0       0.2      13.3
12 Cl pz              0.0      99.5       0.0       0.0       0.0       0.0
12 Cl px              0.0       0.4       0.0       0.0       0.1       1.7
12 Cl py              0.0       0.0     100.0       0.0       0.0       0.0
12 Cl dz2             0.0       0.0       0.0       0.0       0.0       0.1
12 Cl dx2y2           0.0       0.0       0.0       0.0       0.0       0.3
18 H  s               0.0       0.0       0.0       0.8       5.2       0.5
18 H  px              0.0       0.0       0.0       0.0       0.1       0.0
18 H  py              0.0       0.0       0.0       0.1       0.7       0.1
19 H  s               0.0       0.0       0.0       0.0       0.2       0.1
20 H  s               0.0       0.0       0.0       0.0       0.1       0.4
21 H  s               0.0       0.0       0.0       0.1       0.2       0.3

                     24        25        26        27        28        29   
                  -0.82905  -0.80923  -0.74858  -0.72457  -0.70600  -0.63144
                   2.00000   2.00000   2.00000   2.00000   2.00000   2.00000
                  --------  --------  --------  --------  --------  --------
 0 C  s               0.0       0.2      15.1       1.9       6.6      10.9
 0 C  pz              0.0       0.0       1.3       0.1       0.2       0.3
 0 C  px              0.0       0.0       0.9       0.1       0.1       0.5
 0 C  py              0.0       0.0       0.5       0.0       0.0       0.1
 1 C  s               0.0       0.9      24.3       1.8       3.1       1.0
 1 C  pz              0.0       0.0       0.7       0.1       0.4       1.6
 1 C  px              0.0       0.2       0.1       0.2       1.5       4.7
 1 C  py              0.0       0.0       0.3       0.1       0.3       0.5
 2 C  s               0.0       1.1       3.1       0.0       0.8       4.1
 2 C  pz              0.0       0.0       0.0       0.0       0.0       0.1
 2 C  px              0.0       0.1       7.6       0.4       1.8       0.3
 2 C  py              0.0       2.7       2.8       0.0       1.6       3.3
 2 C  dx2y2           0.0       0.0       0.1       0.0       0.0       0.0
 2 C  dxy             0.0       0.1       0.0       0.0       0.1       0.0
 3 O  s               0.0       0.8       1.6       0.1       0.1       1.5
 3 O  px              0.0       0.0       0.4       0.0       0.1       0.0
 3 O  py              0.0       0.2       0.4       0.0       0.1       1.1
 3 O  dz2             0.0       0.0       0.1       0.0       0.0       0.1
 3 O  dx2y2           0.0       0.2       0.0       0.0       0.3       0.2
 3 O  dxy             0.0       0.0       0.6       0.0       0.0       0.1
 4 N  s               0.0       2.8       0.2       0.4       1.3       0.9
 4 N  pz              0.0       0.0       0.0       0.0       0.0       0.1
 4 N  px              0.0       3.6       4.7       0.2       6.6       8.8
 4 N  py              0.0       0.1       0.1       0.5       0.6       3.9
 4 N  dz2             0.0       0.1       0.0       0.0       0.2       0.1
 4 N  dx2y2           0.0       0.2       0.1       0.2       0.8       0.2
 4 N  dxy             0.0       0.0       0.3       0.3       0.0       0.2
 5 C  s               0.0       7.0       1.9       1.0       7.5       0.3
 5 C  px              0.0       5.0       0.7       0.4       0.4       5.9
 5 C  py              0.5       0.1       0.1       9.8       1.6       1.5
 5 C  dx2y2           0.0       0.1       0.0       0.0       0.0       0.2
 5 C  dxy             0.0       0.0       0.0       0.2       0.0       0.0
 6 C  s               0.4      11.2       0.4       8.0       6.3       1.8
 6 C  px              0.4       0.4       1.9       2.3       2.6       1.8
 6 C  py              0.0       1.3       0.2       1.0       0.5       0.2
 6 C  dz2             0.0       0.1       0.0       0.0       0.0       0.0
 6 C  dx2y2           0.0       0.0       0.0       0.1       0.0       0.0
 7 C  s               2.6       6.1       3.4      12.4       1.0       0.7
 7 C  px              0.6       3.1       0.0       0.8       2.7       1.9
 7 C  py              0.4       0.1       0.2       0.4       1.6       1.6
 7 C  dx2y2           0.0       0.0       0.0       0.0       0.2       0.1
 8 C  s               5.5       0.0       1.0       0.2       6.6       4.6
 8 C  px              6.4       8.8       2.3       0.3       4.9       0.4
 8 C  py              2.8       1.3       0.4       4.8       0.2       1.5
 8 C  dx2y2           0.2       0.1       0.1       0.1       0.2       0.1
 8 C  dxy             0.0       0.0       0.0       0.2       0.0       0.0
 9 C  s               5.0       0.1       0.2       3.7       4.6       0.7
 9 C  px              0.0       5.0       0.0       7.3       0.0       5.0
 9 C  py             10.4       3.4       0.6       0.8       4.5       2.3
 9 C  dx2y2           0.0       0.0       0.0       0.3       0.0       0.1
 9 C  dxy             0.2       0.0       0.0       0.0       0.2       0.1
10 C  s               1.8       5.0       0.4      16.8       0.0       4.1
10 C  px              0.9       0.1       0.6       0.3       2.9       0.1
10 C  py              0.4       2.2       0.0       0.2       0.7       0.1
10 C  dz2             0.0       0.1       0.0       0.1       0.0       0.0
10 C  dx2y2           0.0       0.0       0.0       0.0       0.1       0.0
11 Cl s              30.2       9.2       0.2       9.7       5.5       0.4
11 Cl px              0.3       0.0       0.0       0.3       0.2       0.0
11 Cl py              0.5       0.1       0.0       0.5       0.6       0.4
11 Cl dx2y2           0.0       0.0       0.0       0.0       0.1       0.1
11 Cl dxy             0.2       0.0       0.0       0.1       0.1       0.0
12 Cl s              27.8      12.8       3.6       1.6       9.1       4.0
12 Cl px              0.8       0.1       0.1       0.1       1.1       1.8
12 Cl dx2y2           0.2       0.0       0.0       0.0       0.2       0.2
13 H  s               0.0       0.0       2.2       0.3       1.2       2.9
13 H  py              0.0       0.0       0.2       0.0       0.1       0.2
14 H  s               0.0       0.0       2.1       0.3       1.1       2.7
14 H  pz              0.0       0.0       0.2       0.0       0.1       0.2
15 H  s               0.0       0.0       2.1       0.3       1.2       3.1
15 H  px              0.0       0.0       0.2       0.0       0.1       0.2
16 H  s               0.0       0.1       3.6       0.3       0.6       0.3
16 H  pz              0.0       0.0       0.3       0.0       0.1       0.0
17 H  s               0.0       0.2       3.9       0.2       0.4       0.4
17 H  py              0.0       0.0       0.4       0.0       0.0       0.0
18 H  s               0.0       0.6       0.0       0.3       0.2       0.6
18 H  px              0.0       0.0       0.0       0.0       0.0       0.1
18 H  py              0.0       0.1       0.0       0.0       0.1       0.0
19 H  s               0.0       1.1       0.0       1.5       1.3       0.3
19 H  py              0.0       0.1       0.0       0.1       0.1       0.0
20 H  s               0.3       0.5       0.5       2.2       0.1       0.3
20 H  py              0.0       0.0       0.0       0.1       0.0       0.0
21 H  s               0.2       0.4       0.1       2.6       0.0       1.2
21 H  py              0.0       0.0       0.0       0.2       0.0       0.1

                     30        31        32        33        34        35   
                  -0.60575  -0.57831  -0.55378  -0.51187  -0.47189  -0.47018
                   2.00000   2.00000   2.00000   2.00000   2.00000   2.00000
                  --------  --------  --------  --------  --------  --------
 0 C  s               5.4       5.9       1.2       0.3       0.0       0.0
 0 C  pz              0.6       1.9       0.9       0.8       0.9       0.3
 0 C  px              0.5       0.9       0.2       0.0       1.1       0.0
 0 C  py              0.1       0.5       0.2       0.2       2.4       0.1
 1 C  s               1.7       5.5       2.0       1.3       1.4       0.0
 1 C  pz              1.2       2.4       0.9       0.7       0.9       0.3
 1 C  px              1.3       0.2       0.2       0.9       6.4       0.1
 1 C  py              0.2       0.2       0.4       0.0       7.1       1.4
 2 C  s               0.1       0.1       2.9       0.0       3.2       0.1
 2 C  pz              0.2       0.4       0.2       0.1       0.2       0.1
 2 C  px              3.5       2.7       3.8       0.5       4.4       0.1
 2 C  py              0.1       0.2       1.2       0.2       0.7       1.3
 2 C  dx2y2           0.0       0.2       0.1       0.3       0.0       0.1
 2 C  dxy             0.1       0.1       0.1       0.0       0.0       0.0
 3 O  s               0.1       0.2       2.5       0.6       5.3       1.2
 3 O  px              0.8       0.3       0.2       0.4       6.1       1.6
 3 O  py              0.0       0.1       3.9       0.8       9.6       3.1
 3 O  dx2y2           0.0       0.0       0.7       0.0       0.0       0.1
 3 O  dxy             0.3       0.1       0.1       0.1       0.6       0.0
 4 N  s               0.1       0.7       0.7       0.1       0.4       0.3
 4 N  pz              0.0       0.0       0.0       0.0       0.1       0.0
 4 N  px              0.3       6.4       1.4       9.7       0.4       6.3
 4 N  py              5.0       0.8      23.1       9.8       0.0       0.7
 4 N  dz2             0.1       0.1       0.0       0.0       0.0       0.2
 4 N  dx2y2           0.1       1.1       0.2       0.1       0.2       0.0
 4 N  dxy             0.8       0.1       0.5       0.0       1.7       0.1
 5 C  s               0.0       4.2       0.7       0.0       0.3       0.2
 5 C  px              0.7       0.4       2.9       9.9       0.0       2.8
 5 C  py             10.4       1.7       0.1       0.3       2.6       0.2
 5 C  dx2y2           0.0       0.0       0.0       0.0       0.0       0.7
 5 C  dxy             0.0       0.0       0.3       0.1       0.0       0.0
 6 C  s               3.6       3.6       1.1       0.8       0.0       1.6
 6 C  px              5.0       0.5       0.0       0.1       6.0       2.9
 6 C  py              0.1       3.4       1.1       9.8       0.1       2.3
 6 C  dx2y2           0.1       0.0       0.1       0.1       0.1       0.1
 7 C  s               6.8       0.0       2.2       0.6       0.1       1.1
 7 C  px              3.8       4.9       3.0       0.2       5.9       0.2
 7 C  py              0.3       2.6       1.0       7.9       0.0       0.2
 7 C  dx2y2           0.0       0.1       0.0       0.0       0.0       0.0
 8 C  s               0.0       3.0       0.2       0.0       0.2       2.2
 8 C  px              0.0       0.0       0.0       1.0       2.5       9.6
 8 C  py             12.1       1.3       4.4       2.8       3.4       0.3
 8 C  dxy             0.2       0.0       0.0       0.0       0.0       0.0
 9 C  s               3.4       2.7       0.1       1.8       0.0       1.5
 9 C  px              1.6       2.8       4.8       2.6       1.4       1.6
[...]
 6 C  dz2             0.1       0.5       0.2       0.0       0.0       0.0
 6 C  dx2y2           2.0       1.5       1.7       0.0       0.0       0.0
 6 C  dxy             4.6       4.5       2.2       0.9       0.2       0.0
 7 C  s               0.4       0.4       0.1       0.0       0.0      13.4
 7 C  px              0.6       0.5       0.3       0.0       0.0       0.0
 7 C  py              1.5       0.9       0.1       0.0       0.0       0.0
 7 C  dz2             0.3       0.3       0.1       0.0       0.0       0.0
 7 C  dx2y2           1.6       1.0       0.6       0.0       0.0       0.0
 7 C  dxy             5.7       4.7       1.7       0.3       0.0       0.0
 8 C  s               0.2       0.3       0.1       0.0       0.0      30.2
 8 C  py              0.1       0.0       0.0       0.0       0.0       0.0
 8 C  dx2y2           1.0       1.3       0.6       0.1       0.0       0.0
 9 C  s               0.0       0.1       0.2       0.0       0.0      32.0
 9 C  dx2y2           0.1       0.4       0.2       0.1       0.0       0.0
 9 C  dxy             0.0       0.6       0.6       0.1       0.0       0.0
10 C  s               0.0       0.3       0.0       0.2       0.0      12.0
10 C  px              0.1       0.3       0.4       0.1       0.0       0.0
10 C  py              0.2       0.3       1.1       0.0       0.0       0.0
10 C  dz2             0.1       0.2       0.1       0.0       0.0       0.0
10 C  dx2y2           0.1       1.3       0.4       0.4       0.0       0.0
10 C  dxy             0.1       2.0       3.1       0.3       0.0       0.0
15 H  px              0.2       0.0       0.0       0.0       0.0       0.0
17 H  s               0.0       0.1       0.1       0.1       0.0       0.0
17 H  py              0.1       0.1       0.2       0.2       0.0       0.0
18 H  s               0.6       2.3       0.0      10.0       0.2       0.0
18 H  px              0.2       1.3       0.3       1.6       0.1       0.0
18 H  py              2.9       5.5       0.1      13.0       0.2       0.0
19 H  s               1.8       2.1       1.1       0.2       0.1       0.0
19 H  px              1.3       0.9       0.5       0.0       0.0       0.0
19 H  py              3.5       4.1       1.4       0.4       0.1       0.0
20 H  s               2.7       1.9       0.5       0.1       0.0       0.0
20 H  px              2.2       1.1       0.1       0.0       0.0       0.0
20 H  py              4.9       3.4       0.9       0.1       0.0       0.0
21 H  s               0.2       1.0       1.2       0.2       0.0       0.0
21 H  px              0.0       0.6       0.6       0.1       0.0       0.0
21 H  py              0.4       1.9       1.7       0.3       0.0       0.0

                    306       307       308       309       310       311   
                  21.89067  21.91506  21.95046  22.02040  22.16021  22.20346
                   0.00000   0.00000   0.00000   0.00000   0.00000   0.00000
                  --------  --------  --------  --------  --------  --------
 0 C  s              28.4      40.3      22.5       7.0       0.0       0.1
 1 C  s               9.4       4.3       2.1      79.3       0.3       2.8
 2 C  s               2.0       0.1       0.0       0.1       0.1       0.3
 4 N  s               0.0       0.0       0.0       0.0       0.0       0.1
 5 C  s               5.4       0.4       7.2       0.3       3.3      29.8
 5 C  px              0.0       0.0       0.0       0.0       0.0       0.1
 5 C  py              0.0       0.0       0.0       0.0       0.1       0.0
 6 C  s              21.2       7.0       9.0       3.4      25.8       7.8
 7 C  s              13.5      17.7       0.4       1.2       2.4      41.5
 8 C  s               1.9       4.9      36.0       5.2       4.5      12.3
 9 C  s              17.5      15.7       0.8       0.1      24.9       4.1
 9 C  px              0.0       0.0       0.1       0.0       0.0       0.0
10 C  s               0.1       9.0      21.3       3.1      38.1       0.5

                    312       313       314       315       316       317   
                  22.30674  22.34362  25.26064  25.53109  31.97639  43.73992
                   0.00000   0.00000   0.00000   0.00000   0.00000   0.00000
                  --------  --------  --------  --------  --------  --------
 0 C  s               0.5       0.7       0.0       0.0       0.0       0.0
 1 C  s               0.4       0.8       0.0       0.0       0.0       0.0
 2 C  s              52.5      43.6       0.0       0.0       0.0       0.0
 3 O  s               0.1       0.1       0.0       0.0       0.0      99.9
 4 N  s               0.3       0.0       0.0       0.0      99.7       0.0
 4 N  px              0.0       0.2       0.0       0.0       0.0       0.0
 4 N  py              0.1       0.1       0.0       0.0       0.0       0.0
 5 C  s              25.4      23.0       0.0       0.0       0.1       0.0
 6 C  s               4.5      13.1       0.0       0.0       0.0       0.0
 7 C  s               4.1       5.2       0.0       0.0       0.0       0.0
 8 C  s               2.5       2.0       0.1       0.1       0.0       0.0
 8 C  px              0.0       0.0       0.2       0.3       0.0       0.0
 9 C  s               1.1       3.3       0.1       0.1       0.0       0.0
 9 C  py              0.0       0.0       0.1       0.3       0.0       0.0
10 C  s               7.9       7.5       0.0       0.0       0.0       0.0
11 Cl s               0.0       0.0      39.7      59.2       0.0       0.0
12 Cl s               0.0       0.0      59.4      39.8       0.0       0.0



                      *****************************
                      * MAYER POPULATION ANALYSIS *
                      *****************************

  NA   - Mulliken gross atomic population
  ZA   - Total nuclear charge
  QA   - Mulliken gross atomic charge
  VA   - Mayer's total valence
  BVA  - Mayer's bonded valence
  FA   - Mayer's free valence

  ATOM       NA         ZA         QA         VA         BVA        FA
  0 C      6.5034     6.0000    -0.5034     3.8039     3.8039     0.0000
  1 C      6.3218     6.0000    -0.3218     3.7238     3.7238     0.0000
  2 C      5.6475     6.0000     0.3525     3.6753     3.6753     0.0000
  3 O      8.5470     8.0000    -0.5470     1.8971     1.8971    -0.0000
  4 N      7.0807     7.0000    -0.0807     3.2220     3.2220    -0.0000
  5 C      5.8043     6.0000     0.1957     3.7387     3.7387     0.0000
  6 C      6.3535     6.0000    -0.3535     3.7467     3.7467    -0.0000
  7 C      6.2190     6.0000    -0.2190     3.7605     3.7605    -0.0000
  8 C      5.8885     6.0000     0.1115     3.6258     3.6258    -0.0000
  9 C      5.9450     6.0000     0.0550     3.4520     3.4520     0.0000
 10 C      6.2193     6.0000    -0.2193     3.5479     3.5479     0.0000
 11 Cl    17.1355    17.0000    -0.1355     1.1475     1.1475     0.0000
 12 Cl    17.1385    17.0000    -0.1385     1.1470     1.1470     0.0000
 13 H      0.8317     1.0000     0.1683     0.9578     0.9578     0.0000
 14 H      0.8373     1.0000     0.1627     0.9591     0.9591     0.0000
 15 H      0.8308     1.0000     0.1692     0.9565     0.9565    -0.0000
 16 H      0.8110     1.0000     0.1890     0.9503     0.9503     0.0000
 17 H      0.8322     1.0000     0.1678     0.9605     0.9605     0.0000
 18 H      0.6715     1.0000     0.3285     0.8812     0.8812    -0.0000
 19 H      0.8111     1.0000     0.1889     0.9589     0.9589    -0.0000
 20 H      0.7987     1.0000     0.2013     0.9517     0.9517     0.0000
 21 H      0.7717     1.0000     0.2283     0.9352     0.9352     0.0000

  Mayer bond orders larger than 0.100000
B(  0-C ,  1-C ) :   0.8822 B(  0-C , 13-H ) :   0.9751 B(  0-C , 14-H ) :   0.9712 
B(  0-C , 15-H ) :   0.9687 B(  1-C ,  2-C ) :   0.9152 B(  1-C , 16-H ) :   0.9495 
B(  1-C , 17-H ) :   0.9827 B(  2-C ,  3-O ) :   1.7139 B(  2-C ,  4-N ) :   1.1012 
B(  4-N ,  5-C ) :   1.0255 B(  4-N , 18-H ) :   0.8884 B(  5-C ,  6-C ) :   1.2840 
B(  5-C , 10-C ) :   1.4038 B(  6-C ,  7-C ) :   1.3785 B(  6-C , 19-H ) :   0.9574 
B(  7-C ,  8-C ) :   1.3143 B(  7-C , 20-H ) :   0.9380 B(  8-C ,  9-C ) :   1.2768 
B(  8-C , 12-Cl) :   1.0194 B(  9-C , 10-C ) :   1.1571 B(  9-C , 11-Cl) :   1.0589 
B( 10-C , 21-H ) :   0.9174 

-------
TIMINGS
-------

Total SCF time: 0 days 0 hours 1 min 1 sec 

Total time                  ....      61.037 sec
Sum of individual times     ....      60.383 sec  ( 98.9%)

SCF preparation             ....       0.408 sec  (  0.7%)
Fock matrix formation       ....      58.457 sec  ( 95.8%)
  Startup                   ....       0.077 sec  (  0.1% of F)
  Split-RI-J                ....      12.489 sec  ( 21.4% of F)
  XC integration            ....      33.228 sec  ( 56.8% of F)
    XC Preparation          ....       0.000 sec  (  0.0% of XC)
    Basis function eval.    ....       5.875 sec  ( 17.7% of XC)
    Density eval.           ....      11.239 sec  ( 33.8% of XC)
    XC-Functional eval.     ....       3.525 sec  ( 10.6% of XC)
    XC-Potential eval.      ....      11.294 sec  ( 34.0% of XC)
  CPCM terms                ....      11.933 sec  ( 20.4% of F)
Diagonalization             ....       0.000 sec  (  0.0%)
Density matrix formation    ....       0.341 sec  (  0.6%)
Total Energy calculation    ....       0.073 sec  (  0.1%)
Population analysis         ....       0.182 sec  (  0.3%)
Orbital Transformation      ....       0.078 sec  (  0.1%)
Orbital Orthonormalization  ....       0.000 sec  (  0.0%)
DIIS solution               ....       0.661 sec  (  1.1%)
  MO trafo                  ....       0.000 sec  (  0.0 % of DIIS)
  Orb grad                  ....       0.000 sec  (  0.0 % of DIIS)
  Energy W gradient         ....       0.000 sec  (  0.0 % of DIIS)
  DIIS error                ....       0.039 sec  (  5.9 % of DIIS)
  DIIS work                 ....       0.560 sec  ( 84.8 % of DIIS)
  Form Q                    ....       0.000 sec  (  0.0 % of DIIS)
  Form QpQm                 ....       0.000 sec  (  0.0 % of DIIS)
  Exp/Cayley                ....       0.000 sec  (  0.0 % of DIIS)
  Orb update                ....       0.000 sec  (  0.0 % of DIIS)
  Wake-sleep                ....       0.022 sec  (  3.4 % of DIIS)
SOSCF solution              ....       0.183 sec  (  0.3%)
  MO trafo                  ....       0.080 sec  ( 43.7 % of SOSCF)
  Orb grad                  ....       0.002 sec  (  1.3 % of SOSCF)
  Rot update                ....       0.043 sec  ( 23.5 % of SOSCF)
  Step                      ....       0.058 sec  ( 31.4 % of SOSCF)
Finished LeanSCF after  61.2 sec

Maximum memory used throughout the entire LEANSCF-calculation: 47.2 MB


-------------------------------------------------------------------------------
                          DFT DISPERSION CORRECTION                            
                                                                               
                                DFTD4 V3.4.0                                   
-------------------------------------------------------------------------------
The R2SCAN3C composite method is recognized
Using three-body term ABC
Active option DFTDOPT                   ...         5   

-------------------------   ----------------
Dispersion correction           -0.009001479
-------------------------   ----------------

------------------   -----------------
gCP correction             0.013264281
------------------   -----------------

-------------------------   --------------------
FINAL SINGLE POINT ENERGY     -1398.631617689656
-------------------------   --------------------


------------------------------------------------------------------------------
                              ORCA PROPERTY CALCULATIONS
------------------------------------------------------------------------------

GBWName                                 ... sp_solv.gbw
Number of atoms                         ...     22
Number of basis functions               ...    318
Max core memory                         ...   1024 MB

Electric properties:
Dipole moment                           ... YES
Quadrupole moment                       ...  NO
Static polarizability (Dipole/Dipole)   ...  NO
Static polarizability (Dipole/Quad.)    ...  NO
Static polarizability (Quad./Quad.)     ...  NO
Static polarizability (Velocity)        ...  NO

Atomic electric properties:
Dipole moment                           ...  NO
Quadrupole moment                       ...  NO
Static polarizability                   ...  NO

Choice of electric origin               ... Center of mass
Position of electric origin             ...     0.000020     0.000012     0.000001

General magnetic properties:
Magnetizability                         ...  NO

EPR properties:
g-Tensor (aka g-matrix)                 ...  NO
Zero-Field splitting spin-orbit         ...  NO
Zero-field splitting spin-spin          ...  NO
Hyperfine couplings                     ...  NO (   0 nuclei)
Quadrupole couplings                    ...  NO (   0 nuclei)
Contact density                         ...  NO (   0 nuclei)

NMR properties:
Chemical shifts                         ...  NO (   0 nuclei)
Spin-rotation constants                 ...  NO (   0 nuclei)
Spin-spin couplings                     ...  NO (   0 nuclei,    0 pairs)

Choice of magnetic origin               ... GIAO
Position of magnetic origin             ...     0.000000     0.000000     0.000000

Properties with geometric perturbations:
SCF Hessian                             ...  NO
IR spectrum                             ...  NO
VCD spectrum                            ...  NO
X-ray spectroscopy properties:
SCF XES/XAS/RIXS spectra                ...  NO


-------------
DIPOLE MOMENT
-------------

Method             : SCF
Type of density    : Electron Density
Multiplicity       :   1
Irrep              :   0
Energy             : -1398.6358804916303598 Eh
Relativity type    : 
Basis              : AO
                                X                 Y                 Z
Electronic contribution:    -32.214655526      -4.647092566      -0.565079063
Nuclear contribution   :     33.979010656       7.487588711       0.520200425
                        -----------------------------------------
Total Dipole Moment    :      1.764355130       2.840496145      -0.044878638
                        -----------------------------------------
Magnitude (a.u.)       :      3.344156316
Magnitude (Debye)      :      8.500169836



--------------------
Rotational spectrum 
--------------------
 
Rotational constants in cm-1:             0.048032             0.009294             0.007916 
Rotational constants in MHz :          1439.948661           278.625715           237.318562 

Dipole components along the rotational axes: 
x,y,z [a.u.] :    -1.730237     2.861705    -0.017512 
x,y,z [Debye]:    -4.397912     7.273876    -0.044513 

 

Dipole moment calculation done in   0.0 sec 

Maximum memory used throughout the entire PROP-calculation: 22.6 MB

--------------------------------
SUGGESTED CITATIONS FOR THIS RUN
--------------------------------

Below you find a list of papers that are relevant to this ORCA run
We neither can nor want to force you to cite these papers, but we appreciate if you do
You receive ORCA, which is the product of decades of hard work by many enthusiastic individuals, for free
The only thing we kindly ask in return is that you cite our papers,
We deeply appreciate it, if you show your appreciation for ORCA by not just citing the generic ORCA reference.

Please note that relegating all ORCA citations to the supporting information does *not* help us.
SI sections are not indexed - citations you put there will not count into any citation statistics
But we need these citations in order to attract the funding resources that allow us to do what we are doing

Therefore, if you are a happy ORCA user, please consider citing a few of the papers listed below in the main body of your paper

In addition to the list printed below, the program has created the file sp_solv.bibtex that contains the list in bibtex format
You can import this file easily into all common literature databanks and citation aid programs


List of essential papers. We consider these as the minimum necessary citations

  1. Neese,F.
     Software update: the ORCA program system, version 5.0
     WIRES Comput. Molec. Sci., 2022 12(1)e1606
     doi.org/10.1002/wcms.1606
  2. Grimme,S.; Hansen,A.; Ehlert,S.; Mewes,J.
     r2SCAN-3c: A 'Swiss army knife' composite electronic-structure method
     J. Chem. Phys., 2021 154 064103
     doi.org/10.1063/5.0040021

List of papers to cite with high priority. The work reported in these papers was absolutely
necessary for this run to complete.
Our perspective: the developers of density functionals and basis sets usually get cited in chemistry papers
Good! But without the algorithms to do something with them, the functionals or basis sets would not do anything.
Hence, in our opinion, the algorithm design and method developments papers are equally worthy of getting cited

  1. Neese,F.
     An improvement of the resolution of the identity approximation for the formation of the Coulomb matrix
     J. Comp. Chem., 2003 24(14)1740-1747
     doi.org/10.1002/jcc.10318
  2. Garcia-Rates,M.; Neese,F.
     Effect of the Solute Cavity on the Solvation Energy and its Derivatives within the Framework of the Gaussian Charge Scheme
     J. Comput. Chem., 2020 41 922-939
     doi.org/10.1002/jcc.26139
  3. Neese,F.
     The SHARK Integral Generation and Digestion System
     J. Comp. Chem., 2022  1-16
     doi.org/10.1002/jcc.26942
  4. Lehtola,S.; Steigemann,C.; Oliveira,M.; Marques,M.
     Recent developments in Libxc - A comprehensive library of functionals for density functional theory
     Software X, 2018 7 
     doi.org/10.1016/j.softx.2017.11.002
  5. Caldeweyher,E.; Bannwarth,C.; Grimme,S.
     Extension of the D3 dispersion coefficient model
     J. Chem. Phys., 2017 147 034112-XXXX
     doi.org/10.1063/1.4993215
  6. Caldeweyher,E.; Ehlert,S.; Hansen,A.; Neugebauer,H.; Spicher,S.; Bannwarth,C.; Grimme,S.
     A generally applicable atomic-charge dependent London dispersion correction
     J. Chem. Phys., 2019 150 154122-XXXX
     doi.org/10.1063/1.5090222
  7. Caldeweyher,E.; Mewes,J.; Ehlert,S.; Grimme,S.
     Extension and evaluation of the D4 London-dispersion model for periodic systems
     Phys. Chem. Chem. Phys., 2020 22(16)8499-8512
     doi.org/10.1039/D0CP00502A

List of suggested additional citations. These are papers that are important in the 'surrounding' of 
of this run, or papers that preceded the highly important papers. If you like your results we are grateful for a citation.

  1. Neese,F.
     The ORCA program system
     WIRES Comput. Molec. Sci., 2012 2(1)73-78
     doi.org/10.1002/wcms.81
  2. Neese,F.
     Software update: the ORCA program system, version 4.0
     WIRES Comput. Molec. Sci., 2018 8(1)1-6
     doi.org/10.1002/wcms.1327
  3. Neese,F.; Wennmohs,F.; Becker,U.; Riplinger,C.
     The ORCA quantum chemistry program package
     J. Chem. Phys., 2020 152 Art. No. L224108
     doi.org/10.1063/5.0004608

List of optional additional citations

  1. Neese,F.
     Approximate second-order SCF convergence for spin unrestricted wavefunctions
     Chem. Phys. Lett., 2000 325(1-3)93-98
     doi.org/10.1016/s0009-2614(00)00662-x

Timings for individual modules:

Sum of individual times          ...       63.315 sec (=   1.055 min)
Startup calculation              ...        1.645 sec (=   0.027 min)   2.6 %
SCF iterations                   ...       61.558 sec (=   1.026 min)  97.2 %
Property calculations            ...        0.112 sec (=   0.002 min)   0.2 %
                             ****ORCA TERMINATED NORMALLY****
TOTAL RUN TIME: 0 days 0 hours 1 minutes 4 seconds 81 msec
