      -----------------------------------------------------------      
     |                   =====================                   |     
     |                           x T B                           |     
     |                   =====================                   |     
     |                         S. Grimme                         |     
     |          Mulliken Center for Theoretical Chemistry        |     
     |                    University of Bonn                     |     
      -----------------------------------------------------------      

   * xtb version 6.7.1 (edcfbbe) compiled by 'albert@albert-system' on 2024-07-22

   xtb is free software: you can redistribute it and/or modify it under
   the terms of the GNU Lesser General Public License as published by
   the Free Software Foundation, either version 3 of the License, or
   (at your option) any later version.
   
   xtb is distributed in the hope that it will be useful,
   but WITHOUT ANY WARRANTY; without even the implied warranty of
   MERCHANTABILITY or FITNESS FOR A PARTICULAR PURPOSE.  See the
   GNU Lesser General Public License for more details.
   
   Cite this work as:
   * C. Bannwarth, E. Caldeweyher, S. Ehlert, A. Hansen, P. Pracht,
     J. Seibert, S. Spicher, S. Grimme, WIREs Comput. Mol. Sci., 2020, 11,
     e01493. DOI: 10.1002/wcms.1493
   
   for GFN2-xTB:
   * C. Bannwarth, S. Ehlert and S. Grimme., J. Chem. Theory Comput., 2019,
     15, 1652-1671. DOI: 10.1021/acs.jctc.8b01176
   for GFN1-xTB:
   * S. Grimme, C. Bannwarth, P. Shushkov, J. Chem. Theory Comput., 2017,
     13, 1989-2009. DOI: 10.1021/acs.jctc.7b00118
   for GFN0-xTB:
   * P. Pracht, E. Caldeweyher, S. Ehlert, S. Grimme, ChemRxiv, 2019, preprint.
     DOI: 10.26434/chemrxiv.8326202.v1
   for GFN-FF:
   * S. Spicher and S. Grimme, Angew. Chem. Int. Ed., 2020, 59, 15665-15673.
     DOI: 10.1002/anie.202004239
   
   for ALPB and GBSA implicit solvation:
   * S. Ehlert, M. Stahn, S. Spicher, S. Grimme, J. Chem. Theory Comput.,
     2021, 17, 4250-4261. DOI: 10.1021/acs.jctc.1c00471
   
   for ddCOSMO and CPCM-X implicit solvation:
   * M. Stahn, S. Ehlert, S. Grimme, J. Phys. Chem. A,
     2023, XX, XXXX-XXXX. DOI: 10.1021/acs.jpca.3c04382
   
   for DFT-D4:
   * E. Caldeweyher, C. Bannwarth and S. Grimme, J. Chem. Phys., 2017,
     147, 034112. DOI: 10.1063/1.4993215
   * E. Caldeweyher, S. Ehlert, A. Hansen, H. Neugebauer, S. Spicher,
     C. Bannwarth and S. Grimme, J. Chem. Phys., 2019, 150, 154122.
     DOI: 10.1063/1.5090222
   * E. Caldeweyher, J.-M. Mewes, S. Ehlert and S. Grimme, Phys. Chem. Chem. Phys.
     2020, 22, 8499-8512. DOI: 10.1039/D0CP00502A
   
   for sTDA-xTB:
   * S. Grimme and C. Bannwarth, J. Chem. Phys., 2016, 145, 054103.
     DOI: 10.1063/1.4959605
   
   in the mass-spec context:
   * V. Asgeirsson, C. Bauer and S. Grimme, Chem. Sci., 2017, 8, 4879.
     DOI: 10.1039/c7sc00601b
   * J. Koopman and S. Grimme, ACS Omega 2019, 4, 12, 15120-15133.
     DOI: 10.1021/acsomega.9b02011
   
   for metadynamics refer to:
   * S. Grimme, J. Chem. Theory Comput., 2019, 155, 2847-2862
     DOI: 10.1021/acs.jctc.9b00143
   
   for SPH calculations refer to:
   * S. Spicher and S. Grimme, J. Chem. Theory Comput., 2021, 17, 1701-1714
     DOI: 10.1021/acs.jctc.0c01306
   
   for ONIOM refer to:
   * C. Plett, A. Katbashev, S. Ehlert, S. Grimme, M. Bursch,
     Phys. Chem. Chem. Phys., 2023, 25, 17860-17868. DOI: 10.1039/D3CP02178E
   
   for DIPRO refer to:
   * J. Kohn, N. Gildemeister, S. Grimme, D. Fazzi, A. Hansen,
     J. Chem. Phys., 2023, just accepted.
   
   for PTB refer to:
   * S. Grimme, M. Mueller, A. Hansen, J. Chem. Phys., 2023, 158, 124111.
     DOI: 10.1063/5.0137838
   
   with help from (in alphabetical order)
   P. Atkinson, C. Bannwarth, F. Bohle, G. Brandenburg, E. Caldeweyher
   M. Checinski, S. Dohm, S. Ehlert, S. Ehrlich, I. Gerasimov, C. Hölzer
   A. Katbashev, J. Kohn, J. Koopman, C. Lavigne, S. Lehtola, F. März, M. Müller,
   F. Musil, H. Neugebauer, J. Pisarek, C. Plett, P. Pracht, F. Pultar,
   J. Seibert, P. Shushkov, S. Spicher, M. Stahn, M. Steiner, T. Strunk,
   J. Stückrath, T. Rose, and J. Unsleber
   
 * started run on 2025/04/11 at 12:42:38.553     
   ID    Z sym.   atoms
    1    6 C      1-3, 6, 7
    2    8 O      4, 5
    3    1 H      8-17

           -------------------------------------------------
          |                Calculation Setup                |
           -------------------------------------------------

          program call               : /srv/scratch/z5358697/.xtb/bin/xtb xtb_rrho.coord --gfn2 --bhess vtight --chrg 0 --enso --norestart -I rrho-xcontrol-inp --parallel 1 --alpb water
          hostname                   : k071
          coordinate file            : xtb_rrho.coord
          omp threads                :                     1


           -------------------------------------------------
          |                 G F N 2 - x T B                 |
           -------------------------------------------------

        Reference                      10.1021/acs.jctc.8b01176
      * Hamiltonian:
        H0-scaling (s, p, d)           1.850000    2.230000    2.230000
        zeta-weighting                 0.500000
      * Dispersion:
        s8                             2.700000
        a1                             0.520000
        a2                             5.000000
        s9                             5.000000
      * Repulsion:
        kExp                           1.500000    1.000000
        rExp                           1.000000
      * Coulomb:
        alpha                          2.000000
        third order                    shell-resolved
        anisotropic                    true
        a3                             3.000000
        a5                             4.000000
        cn-shift                       1.200000
        cn-exp                         4.000000
        max-rad                        5.000000

      * Solvation model:               ALPB
        Solvent                        water
        Parameter file                 internal GFN2-xTB/ALPB
        Dielectric constant                8.0200E+01
        Reference state                gsolv [1 M gas/solution]
        Free energy shift                  1.0808E-03 Eh       6.7819E-01 kcal/mol
        Temperature                        2.9815E+02 K
        Density                            1.0000E+00 kg/L
        Solvent mass                       1.8000E+01 g/mol
        Interaction kernel             P16
        Born radius scaling (c1)           1.4744E+00
        Born radii integrator          GBOBC
        Born offset                        0.0000E+00 a0       0.0000E+00 AA
        H-bond correction              true
        Ion screening                  false
        Surface tension                    1.0000E-05 Eh       1.5569E+01 dyn/cm
        Grid points                               974 per atom

          ...................................................
          :                      SETUP                      :
          :.................................................:
          :  # basis functions                  38          :
          :  # atomic orbitals                  38          :
          :  # shells                           24          :
          :  # electrons                        42          :
          :  max. iterations                   250          :
          :  Hamiltonian                  GFN2-xTB          :
          :  restarted?                      false          :
          :  GBSA solvation                   true          :
          :  PC potential                    false          :
          :  electronic temp.          300.0000000     K    :
          :  accuracy                    1.0000000          :
          :  -> integral cutoff          0.2500000E+02      :
          :  -> integral neglect         0.1000000E-07      :
          :  -> SCF convergence          0.1000000E-05 Eh   :
          :  -> wf. convergence          0.1000000E-03 e    :
          :  Broyden damping             0.4000000          :
          :  net charge                          0          :
          :  unpaired electrons                  0          :
          ...................................................

 iter      E             dE          RMSdq      gap      omega  full diag
   1    -24.1552907 -0.241553E+02  0.419E+00    5.64       0.0  T
   2    -24.2117967 -0.565059E-01  0.206E+00    4.65       1.0  T
   3    -24.2135516 -0.175494E-02  0.108E+00    4.99       1.0  T
   4    -24.2151765 -0.162496E-02  0.162E-01    4.76       1.0  T
   5    -24.2153586 -0.182089E-03  0.694E-02    4.81       1.0  T
   6    -24.2153602 -0.152273E-05  0.231E-02    4.81       1.1  T
   7    -24.2153610 -0.794155E-06  0.407E-03    4.81       6.0  T
   8    -24.2153610 -0.208999E-07  0.231E-03    4.81      10.5  T
   9    -24.2153610 -0.967596E-08  0.414E-04    4.81      58.6  T
  10    -24.2153610 -0.668400E-09  0.218E-04    4.81     111.5  T

   *** convergence criteria satisfied after 10 iterations ***

         #    Occupation            Energy/Eh            Energy/eV
      -------------------------------------------------------------
         1        2.0000           -0.7442256             -20.2514
       ...           ...                  ...                  ...
        15        2.0000           -0.4775153             -12.9939
        16        2.0000           -0.4668451             -12.7035
        17        2.0000           -0.4650195             -12.6538
        18        2.0000           -0.4524953             -12.3130
        19        2.0000           -0.4473799             -12.1738
        20        2.0000           -0.4432369             -12.0611
        21        2.0000           -0.4215969             -11.4722 (HOMO)
        22                         -0.2449261              -6.6648 (LUMO)
        23                         -0.0264465              -0.7196
        24                          0.1059785               2.8838
        25                          0.1138633               3.0984
        26                          0.1185989               3.2272
       ...                                ...                  ...
        38                          0.5853998              15.9295
      -------------------------------------------------------------
                  HL-Gap            0.1766708 Eh            4.8075 eV
             Fermi-level           -0.3332615 Eh           -9.0685 eV

 SCC (total)                   0 d,  0 h,  0 min,  0.011 sec
 SCC setup                      ...        0 min,  0.001 sec (  9.058%)
 Dispersion                     ...        0 min,  0.000 sec (  0.911%)
 classical contributions        ...        0 min,  0.000 sec (  0.165%)
 integral evaluation            ...        0 min,  0.001 sec ( 11.365%)
 iterations                     ...        0 min,  0.005 sec ( 46.720%)
 molecular gradient             ...        0 min,  0.003 sec ( 30.521%)
 printout                       ...        0 min,  0.000 sec (  1.140%)

         :::::::::::::::::::::::::::::::::::::::::::::::::::::
         ::                     SUMMARY                     ::
         :::::::::::::::::::::::::::::::::::::::::::::::::::::
         :: total energy             -23.956399806130 Eh    ::
         :: total w/o Gsasa/hb       -23.956484304063 Eh    ::
         :: gradient norm              0.034170713808 Eh/a0 ::
         :: HOMO-LUMO gap              4.807457638044 eV    ::
         ::.................................................::
         :: SCC energy               -24.215349981634 Eh    ::
         :: -> isotropic ES            0.058730444669 Eh    ::
         :: -> anisotropic ES          0.000411106228 Eh    ::
         :: -> anisotropic XC          0.007040378238 Eh    ::
         :: -> dispersion             -0.009172697397 Eh    ::
         :: -> Gsolv                  -0.009026975813 Eh    ::
         ::    -> Gelec               -0.009111473746 Eh    ::
         ::    -> Gsasa                0.001312740605 Eh    ::
         ::    -> Ghb                 -0.002309002370 Eh    ::
         ::    -> Gshift               0.001080759698 Eh    ::
         :: repulsion energy           0.258950175505 Eh    ::
         :: add. restraining           0.000000000000 Eh    ::
         :: total charge               0.000000000000 e     ::
         :::::::::::::::::::::::::::::::::::::::::::::::::::::

metadynamics with 1 initial structures loaded
           -------------------------------------------------
          |           Optimal kpush determination           |
           -------------------------------------------------
      ----------------------------------------------------------- 
     |                   =====================                   |
     |                        A N C O P T                        |
     |                   =====================                   |
     |               Approximate Normal Coordinate               |
     |                Rational Function Optimizer                |
      ----------------------------------------------------------- 
target rmsd / Å         0.100000
unbiased initial rmsd   0.043166
 
iter. min.        max.        rmsd       kpush
final kpush:  0.000000
           -------------------------------------------------
          |            Biased Numerical Hessian             |
           -------------------------------------------------
kpush                :   0.00000
alpha                :   1.00000
step length          :   0.00500
SCC accuracy         :   0.30000
Hessian scale factor :   1.00000
frozen atoms in %    :   0.00000    0
RMS gradient         :   0.00004
estimated CPU  time      0.01 min
estimated wall time      0.01 min

writing file <hessian>.

 projected vibrational frequencies (cm⁻¹)
eigval :       -0.00    -0.00    -0.00     0.00     0.00     0.00
eigval :       21.09    51.67    97.85   191.06   214.96   219.86
eigval :      288.37   383.42   451.12   605.12   706.35   800.24
eigval :      826.80   885.94   921.69  1019.51  1058.24  1073.62
eigval :     1074.33  1096.66  1151.28  1193.93  1227.44  1256.51
eigval :     1289.22  1315.04  1394.03  1396.90  1429.82  1438.89
eigval :     1470.68  1484.58  1485.17  1492.48  1701.23  2947.43
eigval :     2989.81  3007.84  3013.90  3038.59  3039.30  3046.30
eigval :     3049.90  3053.27  3062.98
           -------------------------------------------------
          |                Property Printout                |
           -------------------------------------------------

    * Orbital Energies and Occupations

         #    Occupation            Energy/Eh            Energy/eV
      -------------------------------------------------------------
         1        2.0000           -0.7497707             -20.4023
       ...           ...                  ...                  ...
         9        2.0000           -0.5633888             -15.3306
        10        2.0000           -0.5494950             -14.9525
        11        2.0000           -0.5182949             -14.1035
        12        2.0000           -0.5104982             -13.8914
        13        2.0000           -0.5051381             -13.7455
        14        2.0000           -0.4941021             -13.4452
        15        2.0000           -0.4767791             -12.9738
        16        2.0000           -0.4682509             -12.7418
        17        2.0000           -0.4653351             -12.6624
        18        2.0000           -0.4512071             -12.2780
        19        2.0000           -0.4474893             -12.1768
        20        2.0000           -0.4431946             -12.0599
        21        2.0000           -0.4203105             -11.4372 (HOMO)
        22                         -0.2390375              -6.5045 (LUMO)
        23                         -0.0033638              -0.0915
        24                          0.1123893               3.0583
        25                          0.1157430               3.1495
        26                          0.1256714               3.4197
        27                          0.1452698               3.9530
        28                          0.1585933               4.3155
        29                          0.1635014               4.4491
        30                          0.1721039               4.6832
        31                          0.1798647               4.8944
        32                          0.1881727               5.1204
       ...                                ...                  ...
        38                          0.6156642              16.7531
      -------------------------------------------------------------
                  HL-Gap            0.1812730 Eh            4.9327 eV
             Fermi-level           -0.3296740 Eh           -8.9709 eV

     #   Z          covCN         q      C6AA      α(0)
     1   6 C        3.755    -0.113    22.728     6.798
     2   6 C        3.802    -0.097    22.353     6.731
     3   6 C        2.714     0.367    20.781     7.462
     4   8 O        0.856    -0.489    23.535     6.504
     5   8 O        1.703    -0.270    18.471     5.803
     6   6 C        3.693     0.068    19.617     6.337
     7   6 C        3.750    -0.127    23.006     6.840
     8   1 H        0.925     0.056     2.246     2.344
     9   1 H        0.925     0.070     2.081     2.256
    10   1 H        0.925     0.048     2.344     2.394
    11   1 H        0.925     0.083     1.950     2.184
    12   1 H        0.925     0.075     2.031     2.228
    13   1 H        0.924     0.082     1.963     2.191
    14   1 H        0.924     0.058     2.221     2.331
    15   1 H        0.925     0.066     2.125     2.280
    16   1 H        0.925     0.071     2.074     2.252
    17   1 H        0.925     0.052     2.292     2.367

 Mol. C6AA /au·bohr⁶  :       2199.609676
 Mol. C8AA /au·bohr⁸  :      46881.629238
 Mol. α(0) /au        :         69.301953


Wiberg/Mayer (AO) data.
largest (>0.10) Wiberg bond orders for each atom

 ---------------------------------------------------------------------------
     #   Z sym  total        # sym  WBO       # sym  WBO       # sym  WBO
 ---------------------------------------------------------------------------
     1   6 C    3.988 --     2 C    0.990    10 H    0.988     8 H    0.987
                             9 H    0.981
     2   6 C    3.989 --     1 C    0.990     3 C    0.976    12 H    0.971
                            11 H    0.964
     3   6 C    3.903 --     4 O    1.695     5 O    1.169     2 C    0.976
     4   8 O    1.973 --     3 C    1.695     5 O    0.171
     5   8 O    2.320 --     3 C    1.169     6 C    0.920     4 O    0.171
     6   6 C    3.912 --     7 C    1.013    14 H    0.970    13 H    0.969
                             5 O    0.920
     7   6 C    3.988 --     6 C    1.013    17 H    0.986    15 H    0.984
                            16 H    0.980
     8   1 H    0.997 --     1 C    0.987
     9   1 H    0.995 --     1 C    0.981
    10   1 H    0.998 --     1 C    0.988
    11   1 H    0.993 --     2 C    0.964
    12   1 H    0.994 --     2 C    0.971
    13   1 H    0.993 --     6 C    0.969
    14   1 H    0.997 --     6 C    0.970
    15   1 H    0.996 --     7 C    0.984
    16   1 H    0.994 --     7 C    0.980
    17   1 H    0.997 --     7 C    0.986
 ---------------------------------------------------------------------------

Topologies differ in total number of bonds
Writing topology from bond orders to xtbtopo.mol

molecular dipole:
                 x           y           z       tot (Debye)
 q only:        0.160       1.120       0.340
   full:        0.146       1.109       0.351       2.980
molecular quadrupole (traceless):
                xx          xy          yy          xz          yz          zz
 q only:        8.981      -1.559      -7.732       1.554      -1.923      -1.249
  q+dip:        7.233      -1.054      -6.929       1.989      -2.361      -0.304
   full:        7.673      -1.198      -7.869       1.481      -2.617       0.195

           -------------------------------------------------
          |                Geometry Summary                 |
           -------------------------------------------------

      molecular mass/u    :      102.1318968
   center of mass at/Å    :        0.0005882       0.0041105       0.0026402
  moments of inertia/u·Å² :        0.8703945E+02   0.3396366E+03   0.3736293E+03
rotational constants/cm⁻¹ :        0.1936781E+00   0.4963432E-01   0.4511860E-01

 * 15 selected distances

     #   Z          #   Z                                           value/Å
     1   6 C        2   6 C                                       1.5315291 (max)
     3   6 C        4   8 O                                       1.2137895
     3   6 C        5   8 O                                       1.3262847
     5   8 O        6   6 C                                       1.4370597
     6   6 C        7   6 C                                       1.5210242
     1   6 C        8   1 H                                       1.0868711
     1   6 C        9   1 H                                       1.0857513
     1   6 C       10   1 H                                       1.0874833
     2   6 C       11   1 H                                       1.0890996
     2   6 C       12   1 H                                       1.0892878
     6   6 C       13   1 H                                       1.0904802
     6   6 C       14   1 H                                       1.0942474
     7   6 C       15   1 H                                       1.0866101
     7   6 C       16   1 H                                       1.0850573 (min)
     7   6 C       17   1 H                                       1.0877839

 * 3 distinct bonds (by element types)

   Z      Z             #   av. dist./Å        max./Å        min./Å
   1 H    6 C          10     1.0882672     1.0942474     1.0850573
   6 C    6 C           2     1.5262766     1.5315291     1.5210242
   6 C    8 O           3     1.3257113     1.4370597     1.2137895

           -------------------------------------------------
          |               Frequency Printout                |
           -------------------------------------------------
 projected vibrational frequencies (cm⁻¹)
eigval :       -0.00    -0.00    -0.00     0.00     0.00     0.00
eigval :       21.09    51.67    97.85   191.06   214.96   219.86
eigval :      288.37   383.42   451.12   605.12   706.35   800.24
eigval :      826.80   885.94   921.69  1019.51  1058.24  1073.62
eigval :     1074.33  1096.66  1151.28  1193.93  1227.44  1256.51
eigval :     1289.22  1315.04  1394.03  1396.90  1429.82  1438.89
eigval :     1470.68  1484.58  1485.17  1492.48  1701.23  2947.43
eigval :     2989.81  3007.84  3013.90  3038.59  3039.30  3046.30
eigval :     3049.90  3053.27  3062.98
 reduced masses (amu)
   1: 11.97   2: 11.53   3: 11.63   4: 11.54   5: 10.22   6: 11.10   7:  8.94   8: 10.50
   9: 10.71  10:  2.93  11:  3.53  12:  7.98  13:  8.46  14: 10.58  15: 10.68  16: 11.29
  17: 11.33  18:  4.52  19:  2.95  20:  9.09  21:  8.76  22:  5.93  23:  7.10  24:  8.17
  25:  9.18  26:  7.64  27:  6.54  28:  8.18  29:  4.04  30:  4.02  31:  4.84  32:  3.49
  33:  3.11  34:  2.95  35:  2.02  36:  2.18  37:  1.51  38:  1.52  39:  1.57  40:  1.60
  41: 13.29  42:  1.72  43:  1.74  44:  1.60  45:  1.88  46:  1.86  47:  1.80  48:  1.74
  49:  1.63  50:  1.58  51:  1.75
 IR intensities (km·mol⁻¹)
   1:  0.07   2:  1.17   3:  0.08   4:  0.50   5:  0.23   6:  3.25   7:  0.77   8:  3.28
   9:  1.60  10:  2.82  11:  0.64  12:  2.10  13: 13.46  14: 12.05  15:  6.72  16: 11.71
  17: 28.79  18: 10.61  19:  8.48  20: 19.27  21:  4.95  22: 32.08  23: 11.29  24: 36.06
  25:128.74  26: 32.34  27: 35.22  28:243.58  29: 91.64  30: 77.36  31: 21.73  32:  6.82
  33:  5.48  34:  1.23  35:  3.75  36:  6.59  37:  6.25  38:  5.47  39:  2.08  40:  4.94
  41:673.37  42: 29.40  43: 15.10  44:  7.76  45: 14.86  46: 52.87  47: 42.30  48: 37.06
  49: 26.65  50: 28.82  51: 22.95
 Raman intensities (Ä⁴*amu⁻¹)
   1:  0.00   2:  0.00   3:  0.00   4:  0.00   5:  0.00   6:  0.00   7:  0.00   8:  0.00
   9:  0.00  10:  0.00  11:  0.00  12:  0.00  13:  0.00  14:  0.00  15:  0.00  16:  0.00
  17:  0.00  18:  0.00  19:  0.00  20:  0.00  21:  0.00  22:  0.00  23:  0.00  24:  0.00
  25:  0.00  26:  0.00  27:  0.00  28:  0.00  29:  0.00  30:  0.00  31:  0.00  32:  0.00
  33:  0.00  34:  0.00  35:  0.00  36:  0.00  37:  0.00  38:  0.00  39:  0.00  40:  0.00
  41:  0.00  42:  0.00  43:  0.00  44:  0.00  45:  0.00  46:  0.00  47:  0.00  48:  0.00
  49:  0.00  50:  0.00  51:  0.00
 output can be read by thermo (or use thermo option).
 writing <g98.out> molden fake output.
 recommended (thermochemical) frequency scaling factor: 1.0
           -------------------------------------------------
          |             Thermodynamic Functions             |
           -------------------------------------------------

Molecule has no symmetry elements
It seems to be the C1 point group
c1  symmetry found (for desy threshold:  0.10E+00) used in thermo

          ...................................................
          :                      SETUP                      :
          :.................................................:
          :  # frequencies                          45      :
          :  # imaginary freq.                       0      :
          :  linear?                             false      :
          :  only rotor calc.                    false      :
          :  symmetry                               c1      :
          :  rotational number                       1      :
          :  scaling factor                  1.0000000      :
          :  rotor cutoff                    0.0000000 cm⁻¹ :
          :  imag. cutoff                 -100.0000000 cm⁻¹ :
          :.................................................:

    mode    ω/cm⁻¹     T·S(HO)/kcal·mol⁻¹    T·S(FR)/kcal·mol⁻¹   T·S(vib)
   ------------------------------------------------------------------------
       1     21.09    -1.94669 (100.00%)    -1.31145 (  0.00%)    -1.94669
       2     51.67    -1.41694 (100.00%)    -1.04646 (  0.00%)    -1.41694
       3     97.85    -1.04256 (100.00%)    -0.85747 (  0.00%)    -1.04256
       4    191.06    -0.66116 (100.00%)    -0.65932 (  0.00%)    -0.66116
       5    214.96    -0.59663 (100.00%)    -0.62441 (  0.00%)    -0.59663
       6    219.86    -0.58444 (100.00%)    -0.61774 (  0.00%)    -0.58444
       7    288.37    -0.44231 (100.00%)    -0.53741 (  0.00%)    -0.44231
   ------------------------------------------------------------------------

   temp. (K)  partition function   enthalpy   heat capacity  entropy
                                   cal/mol     cal/K/mol   cal/K/mol   J/K/mol
 298.15  VIB  0.107E+04             3727.651     23.463     26.371
         ROT  0.254E+06              888.752      2.981     27.712
         INT  0.273E+09             4616.404     26.444     54.083
         TR   0.999E+27             1481.254      4.968     39.763
         TOT                        6097.6575    31.4125    93.8454   392.6492

       T/K    H(0)-H(T)+PV         H(T)/Eh          T*S/Eh         G(T)/Eh
   ------------------------------------------------------------------------
    298.15    0.971724E-02    0.153161E+00    0.445890E-01    0.108572E+00
   ------------------------------------------------------------------------

         :::::::::::::::::::::::::::::::::::::::::::::::::::::
         ::                  THERMODYNAMIC                  ::
         :::::::::::::::::::::::::::::::::::::::::::::::::::::
         :: total free energy         -23.849159383076 Eh   ::
         ::.................................................::
         :: total energy              -23.957731111206 Eh   ::
         :: zero point energy           0.143443470126 Eh   ::
         :: G(RRHO) w/o ZPVE           -0.034871741997 Eh   ::
         :: G(RRHO) contrib.            0.108571728130 Eh   ::
         :::::::::::::::::::::::::::::::::::::::::::::::::::::

optimized geometry written to: xtbopt.coord


           -------------------------------------------------
          | TOTAL ENERGY              -23.957731111206 Eh   |
          | TOTAL ENTHALPY            -23.804570405322 Eh   |
          | TOTAL FREE ENERGY         -23.849159383076 Eh   |
          | GRADIENT NORM               0.000037398452 Eh/α |
          | HOMO-LUMO GAP               4.932690022863 eV   |
           -------------------------------------------------

------------------------------------------------------------------------
 * finished run on 2025/04/11 at 12:42:39.477     
------------------------------------------------------------------------
 total:
 * wall-time:     0 d,  0 h,  0 min,  0.924 sec
 *  cpu-time:     0 d,  0 h,  0 min,  0.847 sec
 * ratio c/w:     0.916 speedup
 SCF:
 * wall-time:     0 d,  0 h,  0 min,  0.011 sec
 *  cpu-time:     0 d,  0 h,  0 min,  0.011 sec
 * ratio c/w:     0.990 speedup
 analytical hessian:
 * wall-time:     0 d,  0 h,  0 min,  0.719 sec
 *  cpu-time:     0 d,  0 h,  0 min,  0.707 sec
 * ratio c/w:     0.982 speedup

