18
 energy: -20.892307733644 gnorm: 0.028852105690 xtb: 6.7.1 (edcfbbe)
C           -1.91039031816783        1.49794594926869       -0.02027685970333
C           -1.50314071650472        0.05925644062729       -0.33375479091551
C           -0.17357786758179       -0.38516935876561        0.29519277887900
H           -0.23552654282815       -0.22291618207077        1.38141663060360
C            0.06680016401831       -1.87138009319267        0.02867339666636
C            0.97759553731407        0.46521771419178       -0.23726559264633
O            2.25028036383593        0.14921716966789        0.36320643254674
H           -1.88684854965736        1.68527377988303        1.05965485633993
H           -1.25315562535010        2.22876532416402       -0.50171770740670
H           -2.92889670484618        1.69626416464028       -0.37037778120961
H           -1.44429067019327       -0.08234398197400       -1.42195951914197
H           -2.28653462601032       -0.62069940257418        0.02254157513253
H           -0.77481690459988       -2.46986424788927        0.39314576087097
H            0.96811143177429       -2.24176464674194        0.52896304435231
H            0.17232685054801       -2.05812071447433       -1.04742555058692
H            0.81180760972211        1.52143206219578       -0.01018546182534
H            1.04043298260463        0.35719248530194       -1.33110595089110
H            2.50014241716537       -0.73466601973855        0.06841719046710
18
 energy: -20.893212200578 gnorm: 0.013034761475 xtb: 6.7.1 (edcfbbe)
C           -1.90926706352265        1.48869042538362       -0.01676827618991
C           -1.50397545852062        0.05583732454946       -0.33637177870821
C           -0.17543638875398       -0.38012202876532        0.29679184052720
H           -0.23213623514502       -0.22441046499801        1.38137113198620
C            0.05825761113207       -1.86501450903744        0.02599256937638
C            0.98317939417962        0.46323734011868       -0.24235579440816
O            2.24158589038071        0.15650444194142        0.35523703282736
H           -1.88327084503209        1.66636389452848        1.05827933918122
H           -1.25062268086236        2.20886814381291       -0.49906575649246
H           -2.92291776444506        1.67733254742544       -0.36832193999550
H           -1.44171583131955       -0.07145946122305       -1.42200087385154
H           -2.28698384272230       -0.61651445138484        0.02545926911025
H           -0.78310834552495       -2.45355883880541        0.38914919116645
H            0.95284641167173       -2.22281177745082        0.53427872734622
H            0.16558533574857       -2.04828013233490       -1.04416134515229
H            0.82445603523040        1.51732884813362       -0.01018301376717
H            1.05605016599568        0.35227257313981       -1.33267089092509
H            2.49779244275292       -0.73062343251430        0.07248301950077
18
 energy: -20.893369341691 gnorm: 0.003737443772 xtb: 6.7.1 (edcfbbe)
C           -1.91232334425675        1.48837313889570       -0.01352111246969
C           -1.50384844816903        0.05682896145297       -0.33805228355369
C           -0.17573083782939       -0.37905705130883        0.29289165977397
H           -0.22823342375563       -0.22185493862796        1.37552717715831
C            0.05749257115651       -1.86592652572720        0.02571230041851
C            0.98863316093135        0.46201696519496       -0.24635765104053
O            2.23631047751755        0.15985600072964        0.35104033800654
H           -1.88594687686889        1.65814995351294        1.05972880591651
H           -1.25263230599288        2.20570147497003       -0.49259657747902
H           -2.92369060408355        1.67381575353149       -0.36547576545476
H           -1.43776459340514       -0.06460801669513       -1.42141401166547
H           -2.28331309300545       -0.61686022854975        0.02354156652625
H           -0.78688264304715       -2.44704641036223        0.38614705616832
H            0.94741022248927       -2.21987993767288        0.53951910418680
H            0.16661602689452       -2.04683220407976       -1.04135955559925
H            0.82815606264975        1.51614646016123       -0.01645674505538
H            1.05822564652829        0.34638868243414       -1.33537086008695
H            2.49784083348973       -0.73157163534001        0.08363900578126
18
 energy: -20.893397935467 gnorm: 0.001596022254 xtb: 6.7.1 (edcfbbe)
C           -1.91341149343070        1.48832657227433       -0.01043410760722
C           -1.50298179067729        0.05725298491290       -0.33999741316965
C           -0.17536376002845       -0.37791088370716        0.29183521451642
H           -0.22648407903122       -0.21847882578626        1.37422343061416
C            0.05718032803038       -1.86619158806526        0.02611948700356
C            0.99147031810590        0.46100785448362       -0.24989966034643
O            2.23555588667111        0.16211246113302        0.34927734570569
H           -1.88893651211229        1.65359033301520        1.06363066760117
H           -1.25342143396003        2.20783370391873       -0.48590149629399
H           -2.92440923417642        1.67347233604860       -0.36349278191193
H           -1.43581072473972       -0.06063257328230       -1.42352758810411
H           -2.28176590725784       -0.61852823082564        0.01885398068603
H           -0.78963599539119       -2.44531352584350        0.38432346384539
H            0.94471654101595       -2.22044819437072        0.54352779903125
H            0.16974939041374       -2.04770315664953       -1.04049266878416
H            0.82756914456093        1.51618499450132       -0.02531908059869
H            1.05750887768004        0.34177122064266       -1.33940525707893
H            2.49878927557021       -0.73270503988065        0.09382111642316
18
 energy: -20.893417864904 gnorm: 0.002393170202 xtb: 6.7.1 (edcfbbe)
C           -1.91567145037726        1.48827867059365       -0.00475729119441
C           -1.50114754359828        0.05911089943844       -0.34262728968208
C           -0.17434620057528       -0.37710541422142        0.28923718035948
H           -0.22408042918326       -0.21363387383274        1.37139380404205
C            0.05713036105486       -1.86720181195250        0.02785776473022
C            0.99460083386741        0.45893656594243       -0.25669564911246
O            2.23574994486398        0.16767000346749        0.34646090316760
H           -1.89534032135076        1.64602532377348        1.07123442397530
H           -1.25487070296527        2.21303337998927       -0.47260242618420
H           -2.92615174157614        1.67495535262887       -0.36025697052211
H           -1.43222602959189       -0.05192896257346       -1.42717283165202
H           -2.28017702688456       -0.62046221463352        0.00957587994723
H           -0.79382821186124       -2.44468245782679        0.38095912618735
H            0.94076336490356       -2.22384718617329        0.55127436218602
H            0.17682885254807       -2.05038308469427       -1.03839664339656
H            0.82561120577590        1.51652229543885       -0.04358378763303
H            1.05814278698971        0.33145283325015       -1.34681070465932
H            2.49933113920356       -0.73309987609528        0.11205260097267
18
 energy: -20.893426931000 gnorm: 0.001940737195 xtb: 6.7.1 (edcfbbe)
C           -1.91611886228685        1.48769234700363       -0.00252821251944
C           -1.50061003228202        0.05981813466704       -0.34357451775738
C           -0.17394569377243       -0.37676442080762        0.28821784833176
H           -0.22324122600006       -0.21198179803841        1.37028305636429
C            0.05685028978939       -1.86693179745873        0.02827151954288
C            0.99473853913236        0.45805835076984       -0.25939608012752
O            2.23595833973688        0.17016915503867        0.34597431898508
H           -1.89767243165562        1.64300943529860        1.07392266658771
H           -1.25514608311238        2.21437861891810       -0.46731581854771
H           -2.92615882716234        1.67506451265695       -0.35909393254590
H           -1.43096448554951       -0.04873620956475       -1.42846840815940
H           -2.27968604956698       -0.62104018582264        0.00633307960903
H           -0.79503943480153       -2.44397942821516        0.37995168359809
H            0.93921978650508       -2.22420357093851        0.55358905056256
H            0.17872191889682       -2.05131081095134       -1.03764818653892
H            0.82511483689013        1.51635593513070       -0.05053035715162
H            1.06010425552375        0.32651655755463       -1.34906579531862
H            2.49819399095841       -0.73247438272165        0.11822053661684
18
 energy: -20.893449923304 gnorm: 0.000919168538 xtb: 6.7.1 (edcfbbe)
C           -1.91768272337865        1.48588577601004        0.00423046850155
C           -1.49938643686443        0.06218387952468       -0.34577924819815
C           -0.17224713189527       -0.37583989373718        0.28438300927417
H           -0.21943424041513       -0.20733378541640        1.36602644177019
C            0.05607891749449       -1.86616592440010        0.02882841267363
C            0.99459316166366        0.45547786662735       -0.26847670883981
O            2.23608339443047        0.17896625661596        0.34583956836312
H           -1.90438610064024        1.63335637896655        1.08173397066964
H           -1.25552255357412        2.21722047534774       -0.45144228007223
H           -2.92609036944973        1.67568897202681       -0.35555865944925
H           -1.42803175632711       -0.03890022539187       -1.43133367650413
H           -2.27785668961131       -0.62243371274064       -0.00168890930472
H           -0.79839381139869       -2.44138578043706        0.37676721891584
H            0.93490514107652       -2.22502925247999        0.55908816353201
H            0.18338404472612       -2.05348153123612       -1.03591155440978
H            0.82331536087425        1.51579005710075       -0.07350350370143
H            1.06813630090250        0.30959252022254       -1.35567412893019
H            2.49285432362978       -0.72995163408371        0.13961386724130
18
 energy: -20.893463695815 gnorm: 0.001072734162 xtb: 6.7.1 (edcfbbe)
C           -1.91969708710797        1.48455925467340        0.01056323522570
C           -1.49855048597559        0.06396536546375       -0.34839924971720
C           -0.17069376629890       -0.37416051373025        0.28067226821875
H           -0.21559060860542       -0.20225804144589        1.36184961528112
C            0.05521440827334       -1.86548420181394        0.02876174719988
C            0.99630712242533        0.45310117923001       -0.27686368478073
O            2.23584623360898        0.18631065208933        0.34658888674250
H           -1.91118338061861        1.62403248329677        1.08910968674566
H           -1.25660183474990        2.22005221340163       -0.43680697035004
H           -2.92666750906507        1.67565703889551       -0.35205535612790
H           -1.42593420313766       -0.03072968133780       -1.43434193442495
H           -2.27565541605077       -0.62414270246439       -0.00850003489394
H           -0.80155488078608       -2.43795524599794        0.37507336786788
H            0.93132831248521       -2.22522727708146        0.56267536028060
H            0.18569143867358       -2.05531218367606       -1.03499064274842
H            0.82273506045032        1.51533921064982       -0.09527424687605
H            1.07607558319790        0.29418812133852       -1.36169707374317
H            2.48924984452440       -0.72829522897166        0.16077747763205
18
 energy: -20.893474369410 gnorm: 0.000660093437 xtb: 6.7.1 (edcfbbe)
C           -1.92208719142133        1.48395713885946        0.01507261962502
C           -1.49773072367022        0.06575767871583       -0.35042681613893
C           -0.16937692623308       -0.37297715482884        0.27746283302333
H           -0.21256287752766       -0.19844842017977        1.35820179004964
C            0.05446112028504       -1.86557145353418        0.02882823216134
C            0.99856978562844        0.45105886874272       -0.28300455431095
O            2.23531644432137        0.19126307358534        0.34858965385466
H           -1.91747360370716        1.61631447533407        1.09449614992237
H           -1.25789307443807        2.22263549115117       -0.42517713135796
H           -2.92797275486478        1.67608412784388       -0.34998056699932
H           -1.42447921392914       -0.02370513963823       -1.43662285328767
H           -2.27371013736161       -0.62505164264800       -0.01384232012364
H           -0.80331094656134       -2.43575475124774        0.37628052269254
H            0.92993908856437       -2.22556756757641        0.56338026012262
H            0.18466255067592       -2.05737183381903       -1.03445771448485
H            0.82286361438804        1.51471415280546       -0.11236573287565
H            1.08319429509144        0.28213952142524       -1.36577541252430
H            2.48790938200286       -0.72583612247162        0.17648349218349
18
 energy: -20.893485061664 gnorm: 0.000450656966 xtb: 6.7.1 (edcfbbe)
C           -1.92390297161777        1.48314079423077        0.01989751534318
C           -1.49690341370143        0.06730733579261       -0.35292633215584
C           -0.16847483597693       -0.37173946846656        0.27450626325713
H           -0.21001292363223       -0.19455876921586        1.35486998349019
C            0.05305651942489       -1.86549401272766        0.02875536309545
C            1.00095282906837        0.44864401105281       -0.28891822866551
O            2.23461673626061        0.19711272433074        0.35136315505275
H           -1.92445567466177        1.60840944203869        1.10019423982988
H           -1.25839140470172        2.22529819001394       -0.41240973978796
H           -2.92829660650102        1.67651049408236       -0.34857608514127
H           -1.42249173552781       -0.01658810550543       -1.43946803343955
H           -2.27203175280159       -0.62636360127897       -0.02036023721299
H           -0.80422581215343       -2.43378958106934        0.38048777818484
H            0.92994052589251       -2.22500026256964        0.56120626290544
H            0.17962002499204       -2.05985777383486       -1.03449595823838
H            0.82248478400253        1.51374709307988       -0.13020215428303
H            1.09051743319183        0.26893691577246       -1.36953953492084
H            2.48831710968602       -0.72207498320663        0.19275819421824
18
 energy: -20.893498070449 gnorm: 0.000444992386 xtb: 6.7.1 (edcfbbe)
C           -1.92633684356562        1.48217717322980        0.02548089624230
C           -1.49544631208008        0.06971404390928       -0.35607065304870
C           -0.16741141822518       -0.37083889298936        0.27099534545793
H           -0.20730832620759       -0.19054238078545        1.35089990093737
C            0.05106228603203       -1.86577696058631        0.02902370722482
C            1.00353377741590        0.44544174193331       -0.29570834387761
O            2.23341307417404        0.20476176511260        0.35541813874588
H           -1.93396239840815        1.59824544422786        1.10685531794741
H           -1.25845939687925        2.22848155151074       -0.39606202908063
H           -2.92851662884532        1.67789993085487       -0.34791668294377
H           -1.41895388802950       -0.00683436765531       -1.44303722230592
H           -2.26999947156338       -0.62747158506467       -0.02956306643446
H           -0.80401461345422       -2.43216441861893        0.38934042305401
H            0.93188210441091       -2.22427358568442        0.55571647832999
H            0.16940266226418       -2.06372021933498       -1.03457015446133
H            0.82155782629797        1.51210988127616       -0.15168831595178
H            1.09986917196892        0.25248267463991       -1.37353356945038
H            2.49000722593743       -0.71605135345575        0.21156228114663
18
 energy: -20.893514785848 gnorm: 0.000579395562 xtb: 6.7.1 (edcfbbe)
C           -1.92926136978965        1.48026233331349        0.03352929829336
C           -1.49343148246325        0.07289057886878       -0.36126518623409
C           -0.16610018592507       -0.36942777983981        0.26608946810809
H           -0.20394215080109       -0.18449275799493        1.34531235750636
C            0.04748138502213       -1.86589523722742        0.02977195331894
C            1.00709326284521        0.44078610601354       -0.30476158957389
O            2.23186066953226        0.21593213220675        0.36144113618853
H           -1.94837669686639        1.58275903114495        1.11628447419849
H           -1.25769062199973        2.23278161324882       -0.37124434948577
H           -2.92767126835205        1.67985944643726       -0.34791615518792
H           -1.41271656449354        0.00762960180984       -1.44876510970696
H           -2.26740357416982       -0.62968150201504       -0.04477425686690
H           -0.80285064996470       -2.42973516079186        0.40556678970907
H            0.93576761805761       -2.22235375456099        0.54554137344149
H            0.15081362874071       -2.06994014665173       -1.03440080540562
H            0.82018428559728        1.50932709111190       -0.18163705704975
H            1.11342061893329        0.22920283722137       -1.37824329402986
H            2.49314192733990       -0.70626398977561        0.23661340430820
18
 energy: -20.893530371240 gnorm: 0.001138247724 xtb: 6.7.1 (edcfbbe)
C           -1.93351178733058        1.47752826280060        0.04415126911044
C           -1.48999676988235        0.07771371539636       -0.36846453009194
C           -0.16431708117759       -0.36788742348893        0.26007234065101
H           -0.19990616295669       -0.17661278577466        1.33833705810164
C            0.04298200724097       -1.86617283355687        0.03125960014996
C            1.01138766846165        0.43443661410819       -0.31688066750957
O            2.22947994351838        0.23089215341561        0.36837689731781
H           -1.96836857198412        1.56156234222720        1.12830338496327
H           -1.25659467270361        2.23764077794943       -0.33747762431142
H           -2.92645734794013        1.68312710505850       -0.34843017739955
H           -1.40322107735714        0.02792604474156       -1.45645585776138
H           -2.26320968520349       -0.63192838810397       -0.06609124664671
H           -0.80034752882055       -2.42641202399009        0.42823384894383
H            0.94139989416526       -2.22015721390700        0.53144209058086
H            0.12521504358528       -2.07841012352892       -1.03339590215281
H            0.81837381521678        1.50493839935032       -0.22066553514933
H            1.13074693318589        0.19891468561124       -1.38430750277978
H            2.49666421122514       -0.69345886578924        0.26913500551545
18
 energy: -20.893538963170 gnorm: 0.001440273492 xtb: 6.7.1 (edcfbbe)
C           -1.93838426079733        1.47362730268318        0.05592348718898
C           -1.48630717292444        0.08283740286248       -0.37750931597555
C           -0.16239011158833       -0.36553665641049        0.25298481231742
H           -0.19601653288284       -0.16681440623770        1.32995313446505
C            0.03711283937941       -1.86611013322818        0.03427239380574
C            1.01700719790820        0.42753729079917       -0.32912133496165
O            2.22775247376757        0.24584537255764        0.37482448374330
H           -1.99301661241014        1.53522503585773        1.14121364595385
H           -1.25522480709010        2.24271347448543       -0.29710368175212
H           -2.92439599372516        1.68654496958044       -0.35023330728401
H           -1.39089850210621        0.05184736102297       -1.46572791381788
H           -2.25882597899338       -0.63536061048039       -0.09320908983837
H           -0.79792445259775       -2.42157667028394        0.45556363297131
H            0.94640741873903       -2.21700272808840        0.51718163093023
H            0.09572213504115       -2.08846006638434       -1.03011966120332
H            0.81850838040790        1.49924053406127       -0.26156006753952
H            1.15007812642518        0.16716778266227       -1.38906313495206
H            2.50111468469031       -0.67808481293986        0.29887273748039
18
 energy: -20.893543271457 gnorm: 0.000685041029 xtb: 6.7.1 (edcfbbe)
C           -1.93932295198069        1.47248520964379        0.05803852401010
C           -1.48525692546689        0.08402610248624       -0.37913670728762
C           -0.16199056975050       -0.36511537178557        0.25215899822197
H           -0.19548385208109       -0.16469406265015        1.32880224221723
C            0.03652111689197       -1.86596659985642        0.03530844836462
C            1.01766687173242        0.42640601597926       -0.33155464561788
O            2.22747036766935        0.24845676315318        0.37380747051672
H           -1.99738646493461        1.52982418704269        1.14250856084405
H           -1.25517088671737        2.24207970672379       -0.28921944618681
H           -2.92365177755597        1.68774605294584       -0.35029080805265
H           -1.38824065984401        0.05692183482695       -1.46695174143072
H           -2.25751529790388       -0.63541150496996       -0.09874134266233
H           -0.79763853040324       -2.42011656534974        0.45804698096245
H            0.94580652598810       -2.21714591628878        0.51689598807737
H            0.09343238025928       -2.08969410773124       -1.02813914060581
H            0.81867114633801        1.49770368986667       -0.26818516425757
H            1.15169404294070        0.16247213437708       -1.38985610215741
H            2.50071429606148       -0.67633712589436        0.30365033657606
18
 energy: -20.893545855325 gnorm: 0.000869274864 xtb: 6.7.1 (edcfbbe)
C           -1.94078309750939        1.47076687618464        0.06305988938718
C           -1.48362417589323        0.08619550763225       -0.38262928502388
C           -0.16110006790656       -0.36425170101396        0.24965496916324
H           -0.19382099549004       -0.16043440610578        1.32570391244293
C            0.03505637038025       -1.86594564491398        0.03683116896970
C            1.01882589123767        0.42407445685062       -0.33760141722818
O            2.22657393105177        0.25468870352514        0.37429009255892
H           -2.00811504922113        1.51740057227589        1.14770594616143
H           -1.25288668510376        2.24314414684585       -0.27084196070932
H           -2.92160000615407        1.69037042344554       -0.35170368818215
H           -1.38312873690231        0.06681107008188       -1.47015004163256
H           -2.25530560858032       -0.63639762206412       -0.10945325067456
H           -0.79783969120759       -2.41742885778510        0.46512129876736
H            0.94604005024153       -2.21647865410639        0.51541922375426
H            0.08702599249445       -2.09291410545803       -1.02599829716792
H            0.81763249372312        1.49581910962548       -0.28540840987660
H            1.15726219754861        0.14949647474111       -1.39291303932841
H            2.50010601853408       -0.67127590724176        0.31605534015035
18
 energy: -20.893548926164 gnorm: 0.000898999896 xtb: 6.7.1 (edcfbbe)
C           -1.94284853021738        1.46849666915409        0.06866428522590
C           -1.48195817398120        0.08846606018240       -0.38700249184865
C           -0.16017448732979       -0.36290284664290        0.24692147968749
H           -0.19239716627467       -0.15528943449325        1.32219969277605
C            0.03380465644973       -1.86567877615762        0.03958790461791
C            1.02014602365565        0.42180183664236       -0.34379864687367
O            2.22656559052183        0.25919814097548        0.37245477398200
H           -2.02304462774805        1.50239005290065        1.15306045415274
H           -1.24959840591888        2.24348920598556       -0.24800836259136
H           -2.91855541124776        1.69415967121007       -0.35515882863705
H           -1.37678686640189        0.07773952168282       -1.47403911687170
H           -2.25299628883722       -0.63766356092656       -0.12227257088710
H           -0.79955193262065       -2.41364458519000        0.47152480596191
H            0.94485691234930       -2.21525403518235        0.51870734778176
H            0.08409400060329       -2.09665478897462       -1.02239061534387
H            0.81811635139856        1.49339724029089       -0.30115264317299
H            1.16222504305474        0.13828994514584       -1.39586228295317
H            2.49842214378746       -0.66669987408360        0.32370726652558
18
 energy: -20.893551135114 gnorm: 0.000676623664 xtb: 6.7.1 (edcfbbe)
C           -1.94522167636982        1.46657727729430        0.07377349471734
C           -1.48094634702176        0.09021294430405       -0.38989329380517
C           -0.15915699755137       -0.36142544981775        0.24409647767534
H           -0.19027175747050       -0.15062347151335        1.31871183641376
C            0.03269997192744       -1.86525262404249        0.04161622484453
C            1.02207927616710        0.41971787427431       -0.34953247191852
O            2.22758626286238        0.26363573050544        0.37010285135384
H           -2.03595051142081        1.49113423608568        1.15741711712781
H           -1.24806708665693        2.24370267852852       -0.22883898334226
H           -2.91635079047369        1.69734754860180       -0.35746063400089
H           -1.37282988825295        0.08700761729361       -1.47684339288544
H           -2.25160611515519       -0.63901550174966       -0.13195504087958
H           -0.80168786999821       -2.41129082019455        0.47450202771845
H            0.94314304822139       -2.21447551540533        0.52250782543086
H            0.08374352878517       -2.09961121708566       -1.01978768528289
H            0.81931981443021        1.49177035724617       -0.31575991491448
H            1.16666975385456        0.12850906041346       -1.39922419613439
H            2.49716621536602       -0.66428028221928        0.33371020941350
18
 energy: -20.893552550985 gnorm: 0.000485661220 xtb: 6.7.1 (edcfbbe)
C           -1.94542652089638        1.46663774730068        0.07330968665604
C           -1.48106678044212        0.09003787165375       -0.38905434505466
C           -0.15918099470579       -0.36097267585344        0.24479770460738
H           -0.19015852880064       -0.15011717069408        1.31941471769751
C            0.03377339612837       -1.86458321825791        0.04222346018502
C            1.02182130798699        0.42027397552394       -0.34923074970177
O            2.22841384949895        0.26048759579229        0.36705956378116
H           -2.03795451616795        1.49179922997974        1.15623943634174
H           -1.24792193948862        2.24293585244214       -0.22839590252748
H           -2.91547335181570        1.69779496516027       -0.35921110324292
H           -1.37430043386231        0.08570826502725       -1.47598776964669
H           -2.25155438037513       -0.63878599775585       -0.12989292062640
H           -0.80362415879284       -2.41133571237280        0.46829173584195
H            0.94072871250166       -2.21470734501347        0.52923645734638
H            0.09241627811740       -2.09838381485173       -1.01900421760856
H            0.82056944473485        1.49238992856591       -0.31197630438537
H            1.16369050127565        0.13211501681862       -1.40009776887797
H            2.49556694634665       -0.66765407094603        0.32942077074643
18
 energy: -20.893553009135 gnorm: 0.000320176289 xtb: 6.7.1 (edcfbbe)
C           -1.94637835519328        1.46612343539674        0.07497346297748
C           -1.48033245003119        0.09088189868357       -0.39008010820657
C           -0.15892516158529       -0.36046574647915        0.24428141913449
H           -0.18955011762413       -0.14815684866111        1.31868281041982
C            0.03365773564904       -1.86423761406599        0.04332769041132
C            1.02234938455803        0.41941138622615       -0.35122560497814
O            2.22861952359169        0.26092466925609        0.36548829037790
H           -2.04452783926091        1.48716894129405        1.15802384415091
H           -1.24657863832539        2.24350111775746       -0.22023679382388
H           -2.91427581595038        1.69903533408393       -0.36206330028871
H           -1.37270218643089        0.08870452878892       -1.47706571726463
H           -2.25062711056791       -0.63903835680700       -0.13307873161096
H           -0.80443455902901       -2.41040084896902        0.46877721384485
H            0.93979225983416       -2.21448944766178        0.53166185228750
H            0.09353264908222       -2.09911782755468       -1.01759615530320
H            0.82126771606022        1.49164208416067       -0.31599209220390
H            1.16401385808956        0.12957115481662       -1.40174318129194
H            2.49541793837655       -0.66741741774618        0.33100755289946
18
 energy: -20.893553255355 gnorm: 0.000250262463 xtb: 6.7.1 (edcfbbe)
C           -1.94609527391324        1.46636780190430        0.07408963886072
C           -1.48058831572341        0.09042680670455       -0.38946257906166
C           -0.15899832163068       -0.36071670425499        0.24465314393062
H           -0.18993300682004       -0.14896021488146        1.31913461893818
C            0.03383769097447       -1.86436234646696        0.04304808088635