
                                 *****************
                                 * O   R   C   A *
                                 *****************

                                            #,                                       
                                            ###                                      
                                            ####                                     
                                            #####                                    
                                            ######                                   
                                           ########,                                 
                                     ,,################,,,,,                         
                               ,,#################################,,                 
                          ,,##########################################,,             
                       ,#########################################, ''#####,          
                    ,#############################################,,   '####,        
                  ,##################################################,,,,####,       
                ,###########''''           ''''###############################       
              ,#####''   ,,,,##########,,,,          '''####'''          '####       
            ,##' ,,,,###########################,,,                        '##       
           ' ,,###''''                  '''############,,,                           
         ,,##''                                '''############,,,,        ,,,,,,###''
      ,#''                                            '''#######################'''  
     '                                                          ''''####''''         
             ,#######,   #######,   ,#######,      ##                                
            ,#'     '#,  ##    ##  ,#'     '#,    #''#        ,####,   ,####,        
            ##       ##  ##   ,#'  ##            #'  '#       #'       #'  '#        
            ##       ##  #######   ##           ,######,      #####,   #    #        
            '#,     ,#'  ##    ##  '#,     ,#' ,#      #,     #,   #   #,  ,#        
             '#######'   ##     ##  '#######'  #'      '#     '####' # '####'        



                #########################################################
                #                        -***-                          #
                #          Department of theory and spectroscopy        #
                #                                                       #
                #                      Frank Neese                      #
                #                                                       #
                #     Directorship, Architecture, Infrastructure        #
                #                    SHARK, DRIVERS                     #
                #        Core code/Algorithms in most modules           #
                #                                                       #
                #        Max Planck Institute fuer Kohlenforschung      #
                #                Kaiser Wilhelm Platz 1                 #
                #                 D-45470 Muelheim/Ruhr                 #
                #                      Germany                          #
                #                                                       #
                #                  All rights reserved                  #
                #                        -***-                          #
                #########################################################


                         Program Version 6.0.0  -   RELEASE  -


 With contributions from (in alphabetic order):
   Daniel Aravena         : Magnetic Suceptibility
   Michael Atanasov       : Ab Initio Ligand Field Theory (pilot matlab implementation)
   Alexander A. Auer      : GIAO ZORA, VPT2 properties, NMR spectrum
   Ute Becker             : All parallelization in ORCA, NUMFREQ, NUMCALC
   Giovanni Bistoni       : ED, misc. LED, open-shell LED, HFLD
   Martin Brehm           : Molecular dynamics
   Dmytro Bykov           : pre 5.0 version of the SCF Hessian
   Marcos Casanova-Páez   : Triplet and SCS-CIS(D). UHF-(DLPNO)-IP/EA/STEOM-CCSD. UHF-CVS-IP/STEOM-CCSD
   Vijay G. Chilkuri      : MRCI spin determinant printing, contributions to CSF-ICE
   Pauline Colinet        : FMM embedding
   Dipayan Datta          : RHF DLPNO-CCSD density
   Achintya Kumar Dutta   : EOM-CC, STEOM-CC
   Nicolas Foglia         : Exact transition moments, OPA infrastructure, MCD improvements
   Dmitry Ganyushin       : Spin-Orbit,Spin-Spin,Magnetic field MRCI
   Miquel Garcia          : C-PCM and meta-GGA Hessian, CCSD/C-PCM, Gaussian charge scheme
   Tiago L. C. Gouveia    : GS-ROHF, GS-ROCIS
   Yang Guo               : DLPNO-NEVPT2, F12-NEVPT2, CIM, IAO-localization
   Andreas Hansen         : Spin unrestricted coupled pair/coupled cluster methods
   Ingolf Harden          : AUTO-CI MPn and infrastructure 
   Benjamin Helmich-Paris : MC-RPA, TRAH-(SCF,CASSCF), AVAS, COSX integrals, SCF dyn. polar.
   Lee Huntington         : MR-EOM, pCC
   Robert Izsak           : Overlap fitted RIJCOSX, COSX-SCS-MP3, EOM
   Riya Kayal             : Wick's Theorem for AUTO-CI, AUTO-CI UHF-CCSDT
   Emily Kempfer          : AUTO-CI, RHF CISDT and CCSDT
   Christian Kollmar      : KDIIS, OOCD, Brueckner-CCSD(T), CCSD density, CASPT2, CASPT2-K, improved NEVPT2
   Axel Koslowski         : Symmetry handling
   Simone Kossmann        : Meta GGA functionals, TD-DFT gradient, OOMP2, (MP2 Hessian; deprecated post 5.0)
   Lucas Lang             : DCDCAS
   Marvin Lechner         : AUTO-CI (C++ implementation), FIC-MRCC
   Spencer Leger          : CASSCF response
   Dagmar Lenk            : GEPOL surface, SMD, ORCA-2-JSON
   Dimitrios Liakos       : Extrapolation schemes; Compound Job, initial MDCI parallelization
   Dimitrios Manganas     : Further ROCIS development; embedding schemes. LFT, Crystal Embedding
   Dimitrios Pantazis     : SARC Basis sets
   Anastasios Papadopoulos: AUTO-CI, single reference methods and gradients
   Taras Petrenko         : pre 6.0 DFT Hessian and TD-DFT gradient, (ASA, deprecated), ECA, 1-Electron XAS/XES, NRVS
   Peter Pinski           : DLPNO-MP2, DLPNO-MP2 Gradient
   Christoph Reimann      : Effective Core Potentials
   Marius Retegan         : Local ZFS, SOC
   Christoph Riplinger    : Optimizer, TS searches, QM/MM, DLPNO-CCSD(T), (RO)-DLPNO pert. Triples
   Michael Roemelt        : Original ROCIS implementation
   Masaaki Saitow         : Open-shell DLPNO-CCSD energy and density
   Barbara Sandhoefer     : DKH picture change effects
   Kantharuban Sivalingam : CASSCF convergence/infrastructure, NEVPT2 and variants, FIC-MRCI
   Bernardo de Souza      : ESD, SOC TD-DFT
   Georgi Stoychev        : AutoAux, RI-MP2 NMR, DLPNO-MP2 response, X2C
   Van Anh Tran           : RI-MP2 g-tensors
   Willem Van den Heuvel  : Paramagnetic NMR
   Zikuan Wang            : NOTCH, Electric field optimization 
   Frank Wennmohs         : Technical directorship and infrastructure
   Hang Xu                : AUTO-CI-Response properties 


 We gratefully acknowledge several colleagues who have allowed us to
 interface, adapt or use parts of their codes:
   Stefan Grimme, W. Hujo, H. Kruse, P. Pracht,  : VdW corrections, initial TS optimization,
                  C. Bannwarth, S. Ehlert,         DFT functionals, gCP, sTDA/sTD-DF
                  L. Wittmann, M. Mueller
   Ed Valeev, F. Pavosevic, A. Kumar             : LibInt (2-el integral package), F12 methods
   Garnet Chan, S. Sharma, J. Yang, R. Olivares  : DMRG
   Ulf Ekstrom                                   : XCFun DFT Library
   Mihaly Kallay                                 : mrcc  (arbitrary order and MRCC methods)
   Frank Weinhold                                : gennbo (NPA and NBO analysis)
   Simon Mueller                                 : openCOSMO-RS
   Christopher J. Cramer and Donald G. Truhlar   : smd solvation model
   Lars Goerigk                                  : TD-DFT with DH, B97 family of functionals
   V. Asgeirsson, H. Jonsson                     : NEB implementation
   FAccTs GmbH                                   : IRC, NEB, NEB-TS, DLPNO-Multilevel, CI-OPT
                                                   MM, QMMM, 2- and 3-layer-ONIOM, Crystal-QMMM,
                                                   LR-CPCM, SF, NACMEs, symmetry and pop. for TD-DFT,
                                                   nearIR, NL-DFT gradient (VV10), updates on ESD,
                                                   ML-optimized integration grids, MBIS, APM,
                                                   GOAT, DOCKER, SOLVATOR, interface openCOSMO-RS
   S Lehtola, MJT Oliveira, MAL Marques          : LibXC Library
   Liviu Ungur et al                             : ANISO software


 Your calculation uses the libint2 library for the computation of 2-el integrals
 For citations please refer to: http://libint.valeyev.net

 Your ORCA version has been built with support for libXC version: 6.2.2
 For citations please refer to: https://libxc.gitlab.io

 This ORCA versions uses:
   CBLAS   interface :  Fast vector & matrix operations
   LAPACKE interface :  Fast linear algebra routines
   SCALAPACK package :  Parallel linear algebra routines
   Shared memory     :  Shared parallel matrices
   BLAS/LAPACK       :  OpenBLAS 0.3.27  USE64BITINT DYNAMIC_ARCH NO_AFFINITY SkylakeX SINGLE_THREADED
        Core in use  :  SkylakeX
   Copyright (c) 2011-2014, The OpenBLAS Project


Your calculation utilizes the geometrical counterpoise correction gCP
Please cite in your paper:
H.Kruse, S. Grimme J.Chem.Phys., 136, (2012), 154101 
   

Your calculation utilizes the atom-pairwise dispersion correction
based on EEQ partial charges (D4)


Your calculation utilizes the SMD solvation module
Please cite in your paper:
A.V. Marenich, C.J. Cramer, D.G. Truhlar J. Phys. Chem. B, 113, (2009), 6378 

================================================================================

----- Orbital basis set information -----
Your calculation utilizes the basis: def2-mTZVPP
   Stefan Grimme, Andreas Hansen, Sebastian Ehlert, and Jan-Michael Mewes 
   J. Chem. Phys. 154, 064103 (2021). DOI: 10.1063/5.0040021

----- AuxJ basis set information -----
Your calculation utilizes the auxiliary basis: def2/J
   F. Weigend, Phys. Chem. Chem. Phys. 8, 1057 (2006).

================================================================================
                                        WARNINGS
                       Please study these warnings very carefully!
================================================================================

Using LibXC functional ID 497 : Re-regularized SCAN exchange by Furness et al
[ 1]  J. W. Furness, A. D. Kaplan, J. Ning, J. P. Perdew, and J. Sun.,  J. Phys. Chem. Lett. 11, 8208-8215 (2020)
[ 2]  J. W. Furness, A. D. Kaplan, J. Ning, J. P. Perdew, and J. Sun.,  J. Phys. Chem. Lett. 11, 9248-9248 (2020)
Using LibXC functional ID 498 : Re-regularized SCAN correlation by Furness et al
[ 1]  J. W. Furness, A. D. Kaplan, J. Ning, J. P. Perdew, and J. Sun.,  J. Phys. Chem. Lett. 11, 8208-8215 (2020)
[ 2]  J. W. Furness, A. D. Kaplan, J. Ning, J. P. Perdew, and J. Sun.,  J. Phys. Chem. Lett. 11, 9248-9248 (2020)
Using LibXC functional ID 497 : Re-regularized SCAN exchange by Furness et al
[ 1]  J. W. Furness, A. D. Kaplan, J. Ning, J. P. Perdew, and J. Sun.,  J. Phys. Chem. Lett. 11, 8208-8215 (2020)
[ 2]  J. W. Furness, A. D. Kaplan, J. Ning, J. P. Perdew, and J. Sun.,  J. Phys. Chem. Lett. 11, 9248-9248 (2020)
Using LibXC functional ID 498 : Re-regularized SCAN correlation by Furness et al
[ 1]  J. W. Furness, A. D. Kaplan, J. Ning, J. P. Perdew, and J. Sun.,  J. Phys. Chem. Lett. 11, 8208-8215 (2020)
[ 2]  J. W. Furness, A. D. Kaplan, J. Ning, J. P. Perdew, and J. Sun.,  J. Phys. Chem. Lett. 11, 9248-9248 (2020)

================================================================================
                                       INPUT FILE
================================================================================
NAME = sp_solv.inp
|  1> ! r2scan-3c def2/J RI DEFGRID2 scfconv6 printgap
|  2> %output
|  3>     printlevel normal
|  4> end
|  5> %cpcm
|  6>     smd true
|  7>     smdsolvent "water"
|  8> end
|  9> * xyz 0 1
| 10> C -2.7694468453 0.2413111082 0.4539442655
| 11> C -1.6764387072 0.5484553326 -0.5728821341
| 12> C -0.4098571364 -0.1735509212 -0.190254753
| 13> O -0.2484953202 -1.3737458496 -0.2686831351
| 14> O 0.50467375 0.6629781028 0.2827222779
| 15> C 1.7686660641 0.1291541051 0.7123394493
| 16> C 2.7393970702 0.0133580825 -0.4528949162
| 17> H -2.9236153376 -0.832783135 0.5229508917
| 18> H -2.4861075155 0.6163182697 1.4341871023
| 19> H -3.700071018 0.7129632856 0.1536799523
| 20> H -1.4743676547 1.6174942788 -0.6108314969
| 21> H -1.9888853025 0.1910742013 -1.554246915
| 22> H 2.126853799 0.8386039507 1.4588338643
| 23> H 1.5963844728 -0.850384368 1.1686429699
| 24> H 2.3663887398 -0.7066448704 -1.1779369129
| 25> H 2.8566665533 0.9778388888 -0.9394019874
| 26> H 3.7034255123 -0.3234059944 -0.0858939087
| 27> *
| 28> 
| 29>                          ****END OF INPUT****
================================================================================

                       ****************************
                       * Single Point Calculation *
                       ****************************

---------------------------------
CARTESIAN COORDINATES (ANGSTROEM)
---------------------------------
  C     -2.769447    0.241311    0.453944
  C     -1.676439    0.548455   -0.572882
  C     -0.409857   -0.173551   -0.190255
  O     -0.248495   -1.373746   -0.268683
  O      0.504674    0.662978    0.282722
  C      1.768666    0.129154    0.712339
  C      2.739397    0.013358   -0.452895
  H     -2.923615   -0.832783    0.522951
  H     -2.486108    0.616318    1.434187
  H     -3.700071    0.712963    0.153680
  H     -1.474368    1.617494   -0.610831
  H     -1.988885    0.191074   -1.554247
  H      2.126854    0.838604    1.458834
  H      1.596384   -0.850384    1.168643
  H      2.366389   -0.706645   -1.177937
  H      2.856667    0.977839   -0.939402
  H      3.703426   -0.323406   -0.085894

----------------------------
CARTESIAN COORDINATES (A.U.)
----------------------------
  NO LB      ZA    FRAG     MASS         X           Y           Z
   0 C     6.0000    0    12.011   -5.233496    0.456012    0.857830
   1 C     6.0000    0    12.011   -3.168010    1.036430   -1.082590
   2 C     6.0000    0    12.011   -0.774518   -0.327964   -0.359529
   3 O     8.0000    0    15.999   -0.469588   -2.596003   -0.507738
   4 O     8.0000    0    15.999    0.953695    1.252847    0.534268
   5 C     6.0000    0    12.011    3.342294    0.244066    1.346126
   6 C     6.0000    0    12.011    5.176710    0.025243   -0.855847
   7 H     1.0000    0     1.008   -5.524832   -1.573732    0.988234
   8 H     1.0000    0     1.008   -4.698062    1.164673    2.710221
   9 H     1.0000    0     1.008   -6.992121    1.347305    0.290413
  10 H     1.0000    0     1.008   -2.786151    3.056621   -1.154304
  11 H     1.0000    0     1.008   -3.758449    0.361078   -2.937101
  12 H     1.0000    0     1.008    4.019171    1.584732    2.756796
  13 H     1.0000    0     1.008    3.016729   -1.606994    2.208415
  14 H     1.0000    0     1.008    4.471827   -1.335365   -2.225978
  15 H     1.0000    0     1.008    5.398317    1.847848   -1.775212
  16 H     1.0000    0     1.008    6.998460   -0.611149   -0.162316

--------------------------------
INTERNAL COORDINATES (ANGSTROEM)
--------------------------------
 C      0   0   0     0.000000000000     0.00000000     0.00000000
 C      1   0   0     1.530809204130     0.00000000     0.00000000
 C      2   1   0     1.507290820905   109.48721194     0.00000000
 O      3   2   1     1.213530598297   124.68565052    71.18661827
 O      3   2   1     1.326595198971   111.57639071   252.95874385
 C      5   3   2     1.437781466213   118.58511697   179.13004319
 C      6   5   3     1.521018912307   111.12617814    86.24644392
 H      1   2   3     1.087294018080   109.99982358   303.13715873
 H      1   2   3     1.087100531729   110.45848483    63.12472024
 H      1   2   3     1.085668358681   109.83772161   183.19155705
 H      2   1   3     1.088630852442   110.66769408   240.00148263
 H      2   1   3     1.090147229100   109.47660686   118.46108801
 H      6   5   3     1.090353818025   104.58358194   206.52191042
 H      6   5   3     1.094252927753   108.57528607   324.39525423
 H      7   6   5     1.087761630005   110.00929429   295.56275299
 H      7   6   5     1.086583861336   110.13978010    55.77472953
 H      7   6   5     1.085103967449   109.36121909   175.94623474

---------------------------
INTERNAL COORDINATES (A.U.)
---------------------------
 C      0   0   0     0.000000000000     0.00000000     0.00000000
 C      1   0   0     2.892810159093     0.00000000     0.00000000
 C      2   1   0     2.848366855683   109.48721194     0.00000000
 O      3   2   1     2.293240485915   124.68565052    71.18661827
 O      3   2   1     2.506901616630   111.57639071   252.95874385
 C      5   3   2     2.717013211571   118.58511697   179.13004319
 C      6   5   3     2.874309188775   111.12617814    86.24644392
 H      1   2   3     2.054687921222   109.99982358   303.13715873
 H      1   2   3     2.054322285008   110.45848483    63.12472024
 H      1   2   3     2.051615870171   109.83772161   183.19155705
 H      2   1   3     2.057214172052   110.66769408   240.00148263
 H      2   1   3     2.060079708652   109.47660686   118.46108801
 H      6   5   3     2.060470105142   104.58358194   206.52191042
 H      6   5   3     2.067838354695   108.57528607   324.39525423
 H      7   6   5     2.055571579697   110.00929429   295.56275299
 H      7   6   5     2.053345919463   110.13978010    55.77472953
 H      7   6   5     2.050549325310   109.36121909   175.94623474

---------------------
BASIS SET INFORMATION
---------------------
There are 3 groups of distinct atoms

 Group   1 Type C   : 11s6p1d contracted to 5s3p1d pattern {62111/411/1}
 Group   2 Type O   : 11s6p2d contracted to 5s3p2d pattern {62111/411/11}
 Group   3 Type H   : 4s1p contracted to 2s1p pattern {31/1}

Atom   0C    basis set group =>   1
Atom   1C    basis set group =>   1
Atom   2C    basis set group =>   1
Atom   3O    basis set group =>   2
Atom   4O    basis set group =>   2
Atom   5C    basis set group =>   1
Atom   6C    basis set group =>   1
Atom   7H    basis set group =>   3
Atom   8H    basis set group =>   3
Atom   9H    basis set group =>   3
Atom  10H    basis set group =>   3
Atom  11H    basis set group =>   3
Atom  12H    basis set group =>   3
Atom  13H    basis set group =>   3
Atom  14H    basis set group =>   3
Atom  15H    basis set group =>   3
Atom  16H    basis set group =>   3
---------------------------------
AUXILIARY/J BASIS SET INFORMATION
---------------------------------
There are 3 groups of distinct atoms

 Group   1 Type C   : 12s5p4d2f1g contracted to 6s4p3d1f1g pattern {711111/2111/211/2/1}
 Group   2 Type O   : 12s5p4d2f1g contracted to 6s4p3d1f1g pattern {711111/2111/211/2/1}
 Group   3 Type H   : 5s2p1d contracted to 3s1p1d pattern {311/2/1}

Atom   0C    basis set group =>   1
Atom   1C    basis set group =>   1
Atom   2C    basis set group =>   1
Atom   3O    basis set group =>   2
Atom   4O    basis set group =>   2
Atom   5C    basis set group =>   1
Atom   6C    basis set group =>   1
Atom   7H    basis set group =>   3
Atom   8H    basis set group =>   3
Atom   9H    basis set group =>   3
Atom  10H    basis set group =>   3
Atom  11H    basis set group =>   3
Atom  12H    basis set group =>   3
Atom  13H    basis set group =>   3
Atom  14H    basis set group =>   3
Atom  15H    basis set group =>   3
Atom  16H    basis set group =>   3

Checking for AutoStart:
The File: sp_solv.gbw exists
Trying to determine its content:
     ... Fine, the file contains calculation information
     ... Fine, the calculation information was read
     ... Fine, the file contains a basis set
     ... Fine, the basis set was read
     ... Fine, the file contains a geometry
     ... Fine, the geometry was read
     ... Fine, the file contains a set of orbitals
     ... Fine, the orbitals can be read
     => possible old guess file was deleted
     => GBW file was renamed to GES file
     => GES file is set as startup file
     => Guess is set to MORead
     ... now leaving AutoStart

------------------------------------------------------------------------------
                             ORCA STARTUP CALCULATIONS
                           -- RI-GTO INTEGRALS CHOSEN --
------------------------------------------------------------------------------
------------------------------------------------------------------------------
                   ___                                                        
                  /   \      - P O W E R E D   B Y -                         
                 /     \                                                     
                 |  |  |   _    _      __       _____    __    __             
                 |  |  |  | |  | |    /  \     |  _  \  |  |  /  |          
                  \  \/   | |  | |   /    \    | | | |  |  | /  /          
                 / \  \   | |__| |  /  /\  \   | |_| |  |  |/  /          
                |  |  |   |  __  | /  /__\  \  |    /   |      \           
                |  |  |   | |  | | |   __   |  |    \   |  |\   \          
                \     /   | |  | | |  |  |  |  | |\  \  |  | \   \       
                 \___/    |_|  |_| |__|  |__|  |_| \__\ |__|  \__/        
                                                                              
                      - O R C A' S   B I G   F R I E N D -                    
                                      &                                       
                       - I N T E G R A L  F E E D E R -                       
                                                                              
 v1 FN, 2020, v2 2021, v3 2022-2024                                           
------------------------------------------------------------------------------


----------------------
SHARK INTEGRAL PACKAGE
----------------------

Number of atoms                             ...     17
Number of basis functions                   ...    193
Number of shells                            ...     95
Maximum angular momentum                    ...      2
Integral batch strategy                     ... SHARK/LIBINT Hybrid
RI-J (if used) integral strategy            ... SPLIT-RIJ (Revised 2003 algorithm where possible)
Printlevel                                  ...      1
Contraction scheme used                     ... SEGMENTED contraction
Prescreening option                         ... SCHWARTZ
   Thresh                                   ... 1.000e-10
   Tcut                                     ... 1.000e-11
   Tpresel                                  ... 1.000e-11 
Coulomb Range Separation                    ... NOT USED
Exchange Range Separation                   ... NOT USED
Multipole approximations                    ... NOT USED
Finite Nucleus Model                        ... NOT USED
CABS basis                                  ... NOT available
Auxiliary Coulomb fitting basis             ... AVAILABLE
   # of basis functions in Aux-J            ...    453
   # of shells in Aux-J                     ...    155
   Maximum angular momentum in Aux-J        ...      4
Auxiliary J/K fitting basis                 ... NOT available
Auxiliary Correlation fitting basis         ... NOT available
Auxiliary 'external' fitting basis          ... NOT available

Checking pre-screening integrals            ... done (  0.0 sec) Dimension = 95
Check shell pair data                       ... done (  0.0 sec)
Shell pair information
Shell pair cut-off parameter TPreSel        ...   1.0e-11
Total number of shell pairs                 ...      4560
Shell pairs after pre-screening             ...      4073
Total number of primitive shell pairs       ...     16115
Primitive shell pairs kept                  ...     10363
          la=0 lb=0:   1355 shell pairs
          la=1 lb=0:   1514 shell pairs
          la=1 lb=1:    442 shell pairs
          la=2 lb=0:    458 shell pairs
          la=2 lb=1:    260 shell pairs
          la=2 lb=2:     44 shell pairs

Calculating one electron integrals          ... done (  0.0 sec)
Calculating RI/J V-Matrix + Cholesky decomp.... done (  0.1 sec)
Calculating Nuclear repulsion               ... done (  0.0 sec) ENN=    317.677899298878 Eh

Diagonalization of the overlap matrix:
Smallest eigenvalue                        ... 2.439e-04
Time for diagonalization                   ...    0.003 sec
Threshold for overlap eigenvalues          ... 1.000e-07
Number of eigenvalues below threshold      ... 0
Time for construction of square roots      ...    0.024 sec
Total time needed                          ...    0.035 sec

-------------------
DFT GRID GENERATION
-------------------

General Integration Accuracy     IntAcc      ... 4.388
Radial Grid Type                 RadialGrid  ... OptM3 with GC (2021)
Angular Grid (max. ang.)         AngularGrid ... 4 (Lebedev-302)
Angular grid pruning method      GridPruning ... 4 (adaptive)
Weight generation scheme         WeightScheme... mBecke (2022)
Basis function cutoff            BFCut       ... 1.0000e-10
Integration weight cutoff        WCut        ... 1.0000e-14
Partially contracted basis set               ... off
Rotationally invariant grid construction     ... off
Angular grids for H and He will be reduced by one unit
Diffuse basis detected: some atoms will have their outermost
                        angular grid increased by 1.

Total number of grid points                  ...    75133
Total number of batches                      ...     1181
Average number of points per batch           ...       63
Average number of grid points per atom       ...     4420
Initializing property integral containers    ... done (  0.0 sec)

SHARK setup successfully completed in   1.0 seconds

Maximum memory used throughout the entire STARTUP-calculation: 33.6 MB
-------------------------------------------------------------------------------
                                 ORCA GUESS
                   Start orbitals & Density for SCF / CASSCF
-------------------------------------------------------------------------------

------------
SCF SETTINGS
------------
Hamiltonian:
 Density Functional     Method          .... DFT(GTOs)
  Functional kind                       .... Exchange
  Functional name                       .... Re-regularized SCAN exchange by Furness et al
  Functional family                     .... MGGA
  Functional refs                              
    [ 0] J. W. Furness, A. D. Kaplan, J. Ning, J. P. Perdew, and J. Sun.,  J. Phys. Chem. Lett. 11, 8208-8215 (2020), doi: 10.1021/acs.jpclett.0c02405
    [ 1] J. W. Furness, A. D. Kaplan, J. Ning, J. P. Perdew, and J. Sun.,  J. Phys. Chem. Lett. 11, 9248-9248 (2020), doi: 10.1021/acs.jpclett.0c03077
  Functional external parameters        .... 6
    Parameter  0 _c1        =  6.670000e-01 : c1 parameter        
    Parameter  1 _c2        =  8.000000e-01 : c2 parameter        
    Parameter  2 _d         =  1.240000e+00 : d parameter         
    Parameter  3 _k1        =  6.500000e-02 : k1 parameter        
    Parameter  4 _eta       =  1.000000e-03 : eta parameter       
    Parameter  5 _dp2       =  3.610000e-01 : dp2 parameter       
  Functional kind                       .... Correlation
  Functional name                       .... Re-regularized SCAN correlation by Furness et al
  Functional family                     .... MGGA
  Functional refs                              
    [ 0] J. W. Furness, A. D. Kaplan, J. Ning, J. P. Perdew, and J. Sun.,  J. Phys. Chem. Lett. 11, 8208-8215 (2020), doi: 10.1021/acs.jpclett.0c02405
    [ 1] J. W. Furness, A. D. Kaplan, J. Ning, J. P. Perdew, and J. Sun.,  J. Phys. Chem. Lett. 11, 9248-9248 (2020), doi: 10.1021/acs.jpclett.0c03077
  Functional external parameters        .... 1
    Parameter  0 _eta       =  1.000000e-03 : Regularization parameter
 Gradients option       PostSCFGGA      .... off
 RI-approximation to the Coulomb term is turned on
   Number of AuxJ basis functions       .... 453


General Settings:
 Integral files         IntName         .... sp_solv
 Hartree-Fock type      HFTyp           .... RHF
 Total Charge           Charge          ....    0
 Multiplicity           Mult            ....    1
 Number of Electrons    NEL             ....   56
 Basis Dimension        Dim             ....  193
 Nuclear Repulsion      ENuc            ....    317.6778992989 Eh

Convergence Acceleration:
 AO-DIIS                CNVDIIS         .... on
   Start iteration      DIISMaxIt       ....    12
   Startup error        DIISStart       ....  0.200000
   # of expansion vecs  DIISMaxEq       ....     5
   Bias factor          DIISBfac        ....   1.050
   Max. coefficient     DIISMaxC        ....  10.000
 MO-DIIS                CNVKDIIS        .... off
 Trust-Rad. Augm. Hess. CNVTRAH         .... auto
   Auto Start mean grad. ratio tolernc. ....  1.125000
   Auto Start start iteration           ....     1
   Auto Start num. interpolation iter.  ....    10
   Max. Number of Micro iterations      ....    24
   Max. Number of Macro iterations      .... Maxiter - #DIIS iter
   Number of Davidson start vectors     ....     2
   Converg. threshold    (grad. norm)   ....   3.330e-04
   Grad. Scal. Fac. for Micro threshold ....   0.100
   Minimum threshold for Micro iter.    ....   1.000e-02
   NR start threshold (gradient norm)   ....   1.000e-04
   Initial trust radius                 ....   0.400
   Minimum AH scaling param. (alpha)    ....   1.000
   Maximum AH scaling param. (alpha)    .... 1000.000
   Quad. conv. algorithm                .... NR
   White noise on init. David. guess    .... on
   Maximum white noise                  ....   0.010
   Pseudo random numbers                .... off
   Inactive MOs                         .... canonical
   Orbital update algorithm             .... Taylor
   Preconditioner                       .... Diag
   Full preconditioner red. dimension   ....   250
   COSX micro iterations for RIJONX calc.... off
 SOSCF                  CNVSOSCF        .... on
   Start iteration      SOSCFMaxIt      ....   150
   Startup grad/error   SOSCFStart      ....  0.003300
   Hessian update       SOSCFHessUp     .... L-BFGS
 Level Shifting         CNVShift        .... on
   Level shift para.    LevelShift      ....    0.2500
   Turn off err/grad.   ShiftErr        ....    0.0010
 Zerner damping         CNVZerner       .... off
 Static damping         CNVDamp         .... on
   Fraction old density DampFac         ....    0.7000
   Max. Damping (<1)    DampMax         ....    0.9800
   Min. Damping (>=0)   DampMin         ....    0.0000
   Turn off err/grad.   DampErr         ....    0.1000

SCF Procedure:
 Maximum # iterations   MaxIter         ....   125
 SCF integral mode      SCFMode         .... Direct
   Integral package                     .... SHARK and LIBINT hybrid scheme
 Reset frequency        DirectResetFreq ....    20
 Integral Threshold     Thresh          ....  1.000e-10 Eh
 Primitive CutOff       TCut            ....  1.000e-11 Eh

Convergence Tolerance:
 Convergence Check Mode ConvCheckMode   .... Total+1el-Energy
 Convergence forced     ConvForced      .... 0
 Energy Change          TolE            ....  1.000e-06 Eh
 1-El. energy change                    ....  1.000e-03 Eh
 Orbital Gradient       TolG            ....  3.330e-04
 Orbital Rotation angle TolX            ....  3.330e-04
 DIIS Error             TolErr          ....  1.000e-06

---------------------
INITIAL GUESS: MOREAD
---------------------
Guess MOs are being read from file: sp_solv.ges
Input Geometry matches current geometry (good)
Atom 0: N(Shells)= 9 and 6 - projection required
Input basis set needs projection
NBasis(read)= 118
NBasis(calc)= 193
Basis set overlap was calculated
Using GuessMode=FMatrix for the initial guess
C*T matrix was formed
Effective Fockian was calculated
Effective Fockian was diagonalized
Initial density was built
                      ------------------
                      INITIAL GUESS DONE (   0.0 sec)
                      ------------------
             **** ENERGY FILE WAS UPDATED (sp_solv.en.tmp) ****
Finished Guess after   0.3 sec
Maximum memory used throughout the entire GUESS-calculation: 12.9 MB

-------------------------------------------------------------------------------------------
                                      ORCA LEAN-SCF
                              memory conserving SCF solver
-------------------------------------------------------------------------------------------

--------------------
CPCM SOLVATION MODEL
--------------------
CPCM parameters:
  Epsilon                                         ...      78.3550
  Refrac                                          ...       1.3328
  Rsolv                                           ...       1.3000
  Surface type                                    ... GAUSSIAN VDW
  Discretization scheme                           ... Constant charge density
    Threshold for H atoms                         ...       5.0000 (charges/Ang^2)
    Threshold for non-H atoms                     ...       5.0000 (charges/Ang^2)
  Epsilon function type                           ...         CPCM
Solvent:                                          ... WATER
SMD-CDS solvent descriptors:
  Soln                                            ...       1.3328
  Soln25                                          ...       1.3323
  Sola                                            ...       0.0000
  Solb                                            ...       0.0000
  Solg                                            ...       0.0000
  Solc                                            ...       0.0000
  Solh                                            ...       0.0000
Radii:
  Scheme                                          ... Element-dependent radii
  Radius for C  used is    3.4960 Bohr (=   1.8500 Ang.)
  Radius for O  used is    2.8724 Bohr (=   1.5200 Ang.)
  Radius for H  used is    2.2677 Bohr (=   1.2000 Ang.)
Calculating surface                               ...        done! (  0.0s)
Cavity surface points                             ...         1304
Cavity Volume                                     ...     765.0771
Cavity Surface-area                               ...     521.1306
Calculating surface distance matrix               ...        done! (  0.0s)
Performing Cholesky decomposition & store         ...        done! (  0.1s)
Overall time for CPCM initialization              ...                 0.1s

----------------------------------------D-I-I-S--------------------------------------------
Iteration    Energy (Eh)           Delta-E    RMSDP     MaxDP     DIISErr   Damp  Time(sec)
-------------------------------------------------------------------------------------------
               ***  Starting incremental Fock matrix formation  ***
    1    -346.7766792510408891     0.00e+00  3.56e-03  1.29e-01  6.26e-01  0.700   2.9
    2    -346.8296192498996220    -5.29e-02  2.94e-03  9.60e-02  4.41e-01  0.700   2.5
    3    -346.8670734621539964    -3.75e-02  2.17e-03  6.80e-02  3.10e-01  0.700   2.1
    4    -346.8934013982671445    -2.63e-02  1.56e-03  4.80e-02  2.17e-01  0.700   2.2
                               ***Turning on AO-DIIS***
    5    -346.9118897359472271    -1.85e-02  1.14e-03  3.46e-02  1.52e-01  0.700   2.2
    6    -346.9248522334644917    -1.30e-02  8.11e-04  2.45e-02  1.06e-01  0.700   2.1
    7    -346.9339529101466155    -9.10e-03  5.73e-04  1.73e-02  7.42e-02  0.700   2.1
    8    -346.9403314355247971    -6.38e-03  1.35e-03  4.04e-02  5.21e-02  0.000   2.1
                              *** Initializing SOSCF ***
---------------------------------------S-O-S-C-F--------------------------------------
Iteration    Energy (Eh)           Delta-E    RMSDP     MaxDP     MaxGrad    Time(sec)
--------------------------------------------------------------------------------------
    9    -346.9552454415585885    -1.49e-02  1.23e-05  4.15e-04  1.89e-04     2.1
               *** Restarting incremental Fock matrix formation ***
   10    -346.9552455907939361    -1.49e-07  7.13e-06  1.91e-04  6.24e-05     2.4
                  *** Gradient check signals convergence ***

               *****************************************************
               *                     SUCCESS                       *
               *           SCF CONVERGED AFTER  10 CYCLES          *
               *****************************************************


SMD CDS free energy correction energy :                 4.77920     Kcal/mol
Total Energy after SMD CDS correction =              -346.947629457 Eh
             **** ENERGY FILE WAS UPDATED (sp_solv.en.tmp) ****

----------------
TOTAL SCF ENERGY
----------------

Total Energy       :       -346.94762945699620 Eh           -9440.92496 eV

Components:
Nuclear Repulsion  :        317.67789929887766 Eh            8644.45512 eV
Electronic Energy  :       -664.61786421704937 Eh          -18085.17152 eV
One Electron Energy:      -1100.86345925620617 Eh          -29956.01766 eV
Two Electron Energy:        436.24559503915685 Eh           11870.84614 eV
CPCM Dielectric    :         -0.01528067262219 Eh              -0.41581 eV
SMD CDS (Gcds)     :          0.00761613379774 Eh               0.20725 eV

Virial components:
Potential Energy   :       -692.47965097294980 Eh          -18843.32928 eV
Kinetic Energy     :        345.53202151595360 Eh            9402.40431 eV
Virial Ratio       :          2.00409689363907

DFT components:
N(Alpha)           :       27.999988841782 electrons
N(Beta)            :       27.999988841782 electrons
N(Total)           :       55.999977683563 electrons
E(X)               :      -46.162518458223 Eh       
E(C)               :       -1.787779709167 Eh       
E(XC)              :      -47.950298167389 Eh       

CPCM Solvation Model Properties:
Surface-charge          :         -0.04363238941486
Corrected charge        :          0.00000000000000
Outlying charge corr.   :          0.00015169332206 Eh               0.00413 eV
Free-energy (cav+disp)  :          0.00761613379774 Eh               0.20725 eV

---------------
SCF CONVERGENCE
---------------

  Last Energy change         ...    1.4924e-07  Tolerance :   1.0000e-06
  Last MAX-Density change    ...    1.9119e-04  Tolerance :   1.0000e-05
  Last RMS-Density change    ...    7.1270e-06  Tolerance :   1.0000e-06
  Last DIIS Error            ...    1.8879e-04  Tolerance :   1.0000e-06
  Last Orbital Gradient      ...    6.2364e-05  Tolerance :   3.3300e-04
  Last Orbital Rotation      ...    1.5113e-04  Tolerance :   3.3300e-04


----------------
ORBITAL ENERGIES
----------------

  NO   OCC          E(Eh)            E(eV) 
   0   2.0000     -19.002859      -517.0941 
   1   2.0000     -18.943003      -515.4653 
   2   2.0000     -10.161931      -276.5202 
   3   2.0000     -10.083222      -274.3784 
   4   2.0000     -10.037229      -273.1269 
   5   2.0000     -10.021769      -272.7062 
   6   2.0000     -10.018392      -272.6143 
   7   2.0000      -1.078868       -29.3575 
   8   2.0000      -0.988849       -26.9080 
   9   2.0000      -0.760652       -20.6984 
  10   2.0000      -0.723247       -19.6805 
  11   2.0000      -0.638894       -17.3852 
  12   2.0000      -0.590201       -16.0602 
  13   2.0000      -0.520987       -14.1768 
  14   2.0000      -0.472255       -12.8507 
  15   2.0000      -0.461469       -12.5572 
  16   2.0000      -0.435680       -11.8554 
  17   2.0000      -0.412773       -11.2321 
  18   2.0000      -0.408588       -11.1183 
  19   2.0000      -0.379213       -10.3189 
  20   2.0000      -0.356258        -9.6943 
  21   2.0000      -0.350258        -9.5310 
  22   2.0000      -0.331814        -9.0291 
  23   2.0000      -0.330253        -8.9866 
  24   2.0000      -0.314406        -8.5554 
  25   2.0000      -0.303497        -8.2586 
  26   2.0000      -0.278351        -7.5743 
  27   2.0000      -0.251059        -6.8316 
  28   0.0000      -0.022958        -0.6247 
  29   0.0000       0.078446         2.1346 
  30   0.0000       0.101311         2.7568 
  31   0.0000       0.128649         3.5007 
  32   0.0000       0.133120         3.6224 
  33   0.0000       0.135507         3.6873 
  34   0.0000       0.146338         3.9821 
  35   0.0000       0.165381         4.5002 
  36   0.0000       0.169749         4.6191 
  37   0.0000       0.176500         4.8028 
  38   0.0000       0.181470         4.9380 
*Only the first 10 virtual orbitals were printed.

                    ********************************
                    * MULLIKEN POPULATION ANALYSIS *
                    ********************************

-----------------------
MULLIKEN ATOMIC CHARGES
-----------------------
   0 C :   -0.492492
   1 C :   -0.313536
   2 C :    0.455051
   3 O :   -0.520839
   4 O :   -0.198268
   5 C :   -0.144359
   6 C :   -0.492667
   7 H :    0.166750
   8 H :    0.163395
   9 H :    0.172457
  10 H :    0.174748
  11 H :    0.180676
  12 H :    0.173850
  13 H :    0.171672
  14 H :    0.168030
  15 H :    0.165387
  16 H :    0.170145
Sum of atomic charges:   -0.0000000

--------------------------------
MULLIKEN REDUCED ORBITAL CHARGES
--------------------------------
  0 C s       :     3.334886  s :     3.334886
      pz      :     1.015689  p :     3.130933
      px      :     1.016324
      py      :     1.098920
      dz2     :     0.007193  d :     0.026673
      dxz     :     0.005844
      dyz     :     0.002951
      dx2y2   :     0.006633
      dxy     :     0.004051

  1 C s       :     3.245170  s :     3.245170
      pz      :     1.032381  p :     3.033726
      px      :     0.939169
      py      :     1.062176
      dz2     :     0.008636  d :     0.034640
      dxz     :     0.006492
      dyz     :     0.004057
      dx2y2   :     0.007716
      dxy     :     0.007738

  2 C s       :     3.124929  s :     3.124929
      pz      :     0.736289  p :     2.294855
      px      :     0.805600
      py      :     0.752966
      dz2     :     0.009572  d :     0.125164
      dxz     :     0.009605
      dyz     :     0.029169
      dx2y2   :     0.028322
      dxy     :     0.048495

  3 O s       :     3.831819  s :     3.831819
      pz      :     1.550097  p :     4.664844
      px      :     1.782980
      py      :     1.331766
      dz2     :     0.003828  d :     0.024176
      dxz     :     0.002525
      dyz     :     0.007130
      dx2y2   :     0.008899
      dxy     :     0.001794

  4 O s       :     3.705006  s :     3.705006
      pz      :     1.634044  p :     4.457190
      px      :     1.199307
      py      :     1.623839
      dz2     :     0.004611  d :     0.036072
      dxz     :     0.009885
      dyz     :     0.009890
      dx2y2   :     0.007075
      dxy     :     0.004612

  5 C s       :     3.265089  s :     3.265089
      pz      :     0.992043  p :     2.826275
      px      :     0.752398
      py      :     1.081835
      dz2     :     0.007218  d :     0.052995
      dxz     :     0.013498
      dyz     :     0.010050
      dx2y2   :     0.012497
      dxy     :     0.009732

  6 C s       :     3.336417  s :     3.336417
      pz      :     0.997515  p :     3.130722
      px      :     1.031110
      py      :     1.102098
      dz2     :     0.002935  d :     0.025527
      dxz     :     0.006983
      dyz     :     0.007495
      dx2y2   :     0.005288
      dxy     :     0.002826

  7 H s       :     0.815003  s :     0.815003
      pz      :     0.003613  p :     0.018248
      px      :     0.003674
      py      :     0.010961

  8 H s       :     0.818369  s :     0.818369
      pz      :     0.009788  p :     0.018237
      px      :     0.003951
      py      :     0.004498

  9 H s       :     0.809159  s :     0.809159
      pz      :     0.004079  p :     0.018384
      px      :     0.009238
      py      :     0.005066

 10 H s       :     0.807328  s :     0.807328
      pz      :     0.003280  p :     0.017924
      px      :     0.003416
      py      :     0.011227

 11 H s       :     0.801268  s :     0.801268
      pz      :     0.010014  p :     0.018056
      px      :     0.004021
      py      :     0.004021

 12 H s       :     0.808617  s :     0.808617
      pz      :     0.007520  p :     0.017533
      px      :     0.003455
      py      :     0.006558

 13 H s       :     0.810463  s :     0.810463
      pz      :     0.004751  p :     0.017865
      px      :     0.002608
      py      :     0.010506

 14 H s       :     0.813702  s :     0.813702
      pz      :     0.006985  p :     0.018268
      px      :     0.004376
      py      :     0.006908

 15 H s       :     0.816322  s :     0.816322
      pz      :     0.005173  p :     0.018291
      px      :     0.003623
      py      :     0.009496

 16 H s       :     0.811340  s :     0.811340
      pz      :     0.004287  p :     0.018514
      px      :     0.009777
      py      :     0.004450


------------------------
MULLIKEN OVERLAP CHARGES
------------------------
B(  0-C ,  1-C ) :   0.4719 B(  0-C ,  2-C ) :  -0.1230 B(  0-C ,  7-H ) :   0.8498 
B(  0-C ,  8-H ) :   0.8311 B(  0-C ,  9-H ) :   0.8175 B(  0-C , 11-H ) :  -0.0602 
B(  1-C ,  2-C ) :   0.4594 B(  1-C ,  3-O ) :  -0.1118 B(  1-C ,  4-O ) :  -0.0503 
B(  1-C ,  7-H ) :  -0.0653 B(  1-C ,  8-H ) :  -0.0739 B(  1-C ,  9-H ) :  -0.0950 
B(  1-C , 10-H ) :   0.8643 B(  1-C , 11-H ) :   0.8391 B(  2-C ,  3-O ) :   0.9292 
B(  2-C ,  4-O ) :   0.3919 B(  2-C ,  5-C ) :  -0.1916 B(  2-C , 10-H ) :  -0.1403 
B(  2-C , 11-H ) :  -0.0643 B(  3-O ,  4-O ) :  -0.2176 B(  4-O ,  5-C ) :   0.3156 
B(  4-O ,  6-C ) :  -0.1097 B(  4-O , 12-H ) :  -0.0859 B(  4-O , 13-H ) :  -0.0678 
B(  5-C ,  6-C ) :   0.5404 B(  5-C , 12-H ) :   0.7975 B(  5-C , 13-H ) :   0.8565 
B(  5-C , 14-H ) :  -0.0838 B(  5-C , 15-H ) :  -0.0681 B(  5-C , 16-H ) :  -0.0682 
B(  6-C , 13-H ) :  -0.0816 B(  6-C , 14-H ) :   0.8387 B(  6-C , 15-H ) :   0.8293 
B(  6-C , 16-H ) :   0.8061 


                     *******************************
                     * LOEWDIN POPULATION ANALYSIS *
                     *******************************

----------------------
LOEWDIN ATOMIC CHARGES
----------------------
   0 C :   -0.395132
   1 C :   -0.233476
   2 C :    0.366935
   3 O :   -0.495575
   4 O :   -0.598216
   5 C :    0.031643
   6 C :   -0.393027
   7 H :    0.160898
   8 H :    0.160045
   9 H :    0.160254
  10 H :    0.181404
  11 H :    0.183611
  12 H :    0.189069
  13 H :    0.189378
  14 H :    0.162373
  15 H :    0.161994
  16 H :    0.167823

-------------------------------
LOEWDIN REDUCED ORBITAL CHARGES
-------------------------------
  0 C s       :     2.969789  s :     2.969789
      pz      :     1.113484  p :     3.363100
      px      :     1.091038
      py      :     1.158578
      dz2     :     0.016582  d :     0.062243
      dxz     :     0.013870
      dyz     :     0.006662
      dx2y2   :     0.015902
      dxy     :     0.009228

  1 C s       :     2.927074  s :     2.927074
      pz      :     1.108029  p :     3.233232
      px      :     1.017263
      py      :     1.107939
      dz2     :     0.018290  d :     0.073171
      dxz     :     0.014353
      dyz     :     0.007658
      dx2y2   :     0.017669
      dxy     :     0.015201

  2 C s       :     2.738529  s :     2.738529
      pz      :     0.724842  p :     2.622892
      px      :     0.916724
      py      :     0.981325
      dz2     :     0.022286  d :     0.271644
      dxz     :     0.018522
      dyz     :     0.058289
      dx2y2   :     0.065381
      dxy     :     0.107166

  3 O s       :     3.544079  s :     3.544079
      pz      :     1.520230  p :     4.732364
      px      :     1.721450
      py      :     1.490684
      dz2     :     0.026253  d :     0.219132
      dxz     :     0.015992
      dyz     :     0.045277
      dx2y2   :     0.061482
      dxy     :     0.070129

  4 O s       :     3.464936  s :     3.464936
      pz      :     1.641046  p :     4.656930
      px      :     1.378144
      py      :     1.637740
      dz2     :     0.054915  d :     0.476350
      dxz     :     0.118949
      dyz     :     0.057459
      dx2y2   :     0.129415
      dxy     :     0.115612

  5 C s       :     2.871239  s :     2.871239
      pz      :     1.046147  p :     2.978183
      px      :     0.855269
      py      :     1.076767
      dz2     :     0.013828  d :     0.118935
      dxz     :     0.031526
      dyz     :     0.022624
      dx2y2   :     0.029199
      dxy     :     0.021759

  6 C s       :     2.974328  s :     2.974328
      pz      :     1.102373  p :     3.358786
      px      :     1.098189
      py      :     1.158225
      dz2     :     0.006637  d :     0.059913
      dxz     :     0.016096
      dyz     :     0.017944
      dx2y2   :     0.012908
      dxy     :     0.006328

  7 H s       :     0.795026  s :     0.795026
      pz      :     0.007977  p :     0.044077
      px      :     0.008134
      py      :     0.027966

  8 H s       :     0.795993  s :     0.795993
      pz      :     0.024325  p :     0.043962
      px      :     0.009127
      py      :     0.010511

  9 H s       :     0.795537  s :     0.795537
      pz      :     0.009397  p :     0.044210
      px      :     0.022835
      py      :     0.011977

 10 H s       :     0.774356  s :     0.774356
      pz      :     0.007787  p :     0.044239
      px      :     0.008040
      py      :     0.028412

 11 H s       :     0.772160  s :     0.772160
      pz      :     0.024783  p :     0.044229
      px      :     0.009626
      py      :     0.009820

 12 H s       :     0.770366  s :     0.770366
      pz      :     0.017086  p :     0.040566
      px      :     0.006879
      py      :     0.016600

 13 H s       :     0.767723  s :     0.767723
      pz      :     0.010920  p :     0.042899
      px      :     0.006719
      py      :     0.025260

 14 H s       :     0.793463  s :     0.793463
      pz      :     0.016920  p :     0.044164
      px      :     0.010302
      py      :     0.016942

 15 H s       :     0.794117  s :     0.794117
      pz      :     0.012053  p :     0.043889
      px      :     0.007931
      py      :     0.023905

 16 H s       :     0.787598  s :     0.787598
      pz      :     0.010142  p :     0.044579
      px      :     0.024236
      py      :     0.010200


---------------------------------
LOEWDIN BOND ORDERS (THRESH 0.050000)
---------------------------------
B(  0-C ,  1-C ) :   1.1140 B(  0-C ,  2-C ) :   0.0818 B(  0-C ,  7-H ) :   0.9228 
B(  0-C ,  8-H ) :   0.9260 B(  0-C ,  9-H ) :   0.9244 B(  1-C ,  2-C ) :   0.9312 
B(  1-C ,  3-O ) :   0.1828 B(  1-C ,  4-O ) :   0.1866 B(  1-C , 10-H ) :   0.8674 
B(  1-C , 11-H ) :   0.8685 B(  2-C ,  3-O ) :   2.1381 B(  2-C ,  4-O ) :   1.4693 
B(  2-C ,  5-C ) :   0.0838 B(  3-O ,  4-O ) :   0.4554 B(  3-O ,  5-C ) :   0.0646 
B(  4-O ,  5-C ) :   1.3057 B(  4-O ,  6-C ) :   0.1573 B(  4-O , 12-H ) :   0.0972 
B(  4-O , 13-H ) :   0.0918 B(  5-C ,  6-C ) :   1.0837 B(  5-C , 12-H ) :   0.8284 
B(  5-C , 13-H ) :   0.8167 B(  6-C , 14-H ) :   0.9203 B(  6-C , 15-H ) :   0.9230 
B(  6-C , 16-H ) :   0.9151 

------------------------------------------
LOEWDIN REDUCED ORBITAL POPULATIONS PER MO
-------------------------------------------
THRESHOLD FOR PRINTING IS 0.1%%
                      0         1         2         3         4         5   
                 -19.00286 -18.94300 -10.16193 -10.08322 -10.03723 -10.02177
                   2.00000   2.00000   2.00000   2.00000   2.00000   2.00000
                  --------  --------  --------  --------  --------  --------
 0 C  s               0.0       0.0       0.0       0.0       0.0      99.7
 1 C  s               0.0       0.0       0.0       0.0      99.7       0.0
 2 C  s               0.0       0.0      98.9       0.0       0.0       0.0
 3 O  s               0.0      99.9       0.0       0.0       0.0       0.0
 3 O  py              0.0       0.0       0.2       0.0       0.0       0.0
 3 O  dx2y2           0.0       0.0       0.2       0.0       0.0       0.0
 4 O  s              99.9       0.0       0.0       0.0       0.0       0.0
 4 O  dxy             0.0       0.0       0.2       0.1       0.0       0.0
 5 C  s               0.0       0.0       0.0      99.4       0.0       0.0

                      6         7         8         9        10        11   
                 -10.01839  -1.07887  -0.98885  -0.76065  -0.72325  -0.63889
                   2.00000   2.00000   2.00000   2.00000   2.00000   2.00000
                  --------  --------  --------  --------  --------  --------
 0 C  s               0.0       0.1       0.0      11.0      11.4      12.5
 0 C  pz              0.0       0.0       0.0       0.9       0.5       0.2
 0 C  px              0.0       0.2       0.1       1.4       0.4       0.6
 1 C  s               0.0       1.0       0.2      20.7       9.5       0.5
 1 C  pz              0.0       0.2       0.0       0.9       0.3       0.9
 1 C  px              0.0       1.5       0.0       0.1       1.5       6.5
 1 C  py              0.0       0.3       0.4       0.1       0.1       0.0
 1 C  dxz             0.0       0.0       0.0       0.0       0.1       0.1
 2 C  s               0.0      17.0       3.2       4.3       0.4       3.9
 2 C  pz              0.0       0.7       1.0       0.2       0.4       0.4
 2 C  px              0.0       4.1       1.2       5.4       3.1       0.1
 2 C  py              0.0       0.1      21.6       6.0       0.2       3.5
 2 C  dz2             0.0       0.4       0.2       0.0       0.0       0.0
 2 C  dxz             0.0       0.2       0.1       0.0       0.0       0.0
 2 C  dyz             0.0       0.2       0.0       0.0       0.0       0.0
 2 C  dx2y2           0.0       0.2       1.1       0.1       0.0       0.0
 2 C  dxy             0.0       0.2       0.6       0.0       0.2       0.0
 3 O  s               0.0      14.4      40.8       1.8       0.0       1.0
 3 O  px              0.0       0.0       0.2       0.2       0.1       0.0
 3 O  py              0.0       3.2       3.0       0.6       0.0       0.9
 3 O  dz2             0.0       0.3       0.0       0.2       0.0       0.1
 3 O  dyz             0.0       0.1       0.0       0.0       0.0       0.0
 3 O  dx2y2           0.0       0.8       0.1       0.3       0.1       0.3
 3 O  dxy             0.0       0.1       0.2       0.5       0.1       0.0
 4 O  s               0.0      39.5      18.7       0.0       1.4       0.8
 4 O  pz              0.0       0.1       0.1       1.2       0.5       4.1
 4 O  px              0.0       0.2       0.5       9.7       5.1      10.8
 4 O  py              0.0       2.6       0.4       0.0       0.2       0.2
 4 O  dz2             0.0       0.3       0.1       0.0       0.2       0.0
 4 O  dxz             0.0       0.2       0.0       0.1       0.2       0.0
 4 O  dyz             0.0       0.1       0.2       0.0       0.0       0.1
 4 O  dx2y2           0.0       0.0       0.5       0.0       1.1       0.2
 4 O  dxy             0.0       0.2       0.6       0.6       0.5       0.1
 5 C  s               0.0       4.0       2.0       9.1      14.2       1.0
 5 C  pz              0.1       0.6       0.2       0.3       0.8       2.4
 5 C  px              0.0       4.3       1.3       0.3       2.5       5.6
 5 C  py              0.0       0.3       0.6       0.1       0.0       1.0
 5 C  dxz             0.0       0.1       0.0       0.0       0.1       0.2
 5 C  dx2y2           0.0       0.2       0.1       0.0       0.0       0.0
 5 C  dxy             0.0       0.1       0.1       0.0       0.0       0.1
 6 C  s              99.7       0.3       0.1       5.4      18.4      15.8
 6 C  pz              0.0       0.2       0.1       0.6       1.0       0.4
 6 C  px              0.0       0.6       0.1       0.4       0.5       0.5
 7 H  s               0.0       0.0       0.0       1.5       1.9       3.1
 7 H  py              0.0       0.0       0.0       0.1       0.2       0.3
 8 H  s               0.0       0.0       0.0       1.5       1.8       3.0
 8 H  pz              0.0       0.0       0.0       0.1       0.1       0.2
 9 H  s               0.0       0.0       0.0       1.5       1.9       3.4
 9 H  px              0.0       0.0       0.0       0.1       0.1       0.2
10 H  s               0.0       0.1       0.0       3.3       1.3       0.3
10 H  py              0.0       0.0       0.0       0.3       0.1       0.0
11 H  s               0.0       0.1       0.0       2.8       1.7       0.1
11 H  pz              0.0       0.0       0.0       0.2       0.1       0.0
12 H  s               0.0       0.2       0.2       1.5       2.6       0.5
12 H  pz              0.0       0.0       0.0       0.1       0.1       0.0
13 H  s               0.0       0.3       0.1       1.3       2.3       0.2
13 H  py              0.0       0.0       0.0       0.1       0.2       0.0
14 H  s               0.0       0.0       0.0       0.7       2.9       4.0
14 H  pz              0.0       0.0       0.0       0.0       0.1       0.1
14 H  py              0.0       0.0       0.0       0.0       0.1       0.1
15 H  s               0.0       0.0       0.0       0.8       3.0       3.7
15 H  py              0.0       0.0       0.0       0.1       0.2       0.3
16 H  s               0.0       0.0       0.0       0.7       3.2       4.4
16 H  px              0.0       0.0       0.0       0.1       0.2       0.3

                     12        13        14        15        16        17   
                  -0.59020  -0.52099  -0.47226  -0.46147  -0.43568  -0.41277
                   2.00000   2.00000   2.00000   2.00000   2.00000   2.00000
                  --------  --------  --------  --------  --------  --------
 0 C  s              12.3       0.2       0.0       0.0       0.4       0.0
 0 C  pz              2.5       0.9       3.1       0.3       1.0       0.0
 0 C  px              2.5       0.0       0.5       0.3       4.0       0.4
 0 C  py              0.1       0.1       3.3       1.2       0.0      12.4
 1 C  s               8.7       1.2       2.6       0.0       0.6       0.0
 1 C  pz              3.8       1.7       4.9       1.9       1.2       0.1
 1 C  px              2.4       0.7       5.3       0.3       1.7       0.9
 1 C  py              0.1       0.3       9.0       5.3       0.0      13.0
 1 C  dxy             0.0       0.0       0.2       0.0       0.0       0.0
 2 C  s               0.3       3.0       1.9       1.8       0.1       0.5
 2 C  pz              1.8       2.0       0.4       3.0      14.6       0.5
 2 C  px              5.8       0.5      10.7       0.2       1.7       3.0
 2 C  py              0.2       0.5       0.2       3.6       1.7       4.4
 2 C  dx2y2           0.0       0.0       0.0       0.3       0.0       0.2
 2 C  dxy             0.2       0.0       0.0       0.0       0.0       0.1
 3 O  s               0.1       2.7       1.3      11.3       0.4       2.3
 3 O  pz              0.2       1.1       0.0       0.4      10.6       0.8
 3 O  px              0.7       0.3       9.6       0.1       0.8       0.5
 3 O  py              0.0       3.8       3.1      29.2       0.5      16.6
 3 O  dz2             0.0       0.0       0.0       0.2       0.0       0.1
 3 O  dyz             0.1       0.2       0.0       0.1       1.0       0.0
 3 O  dx2y2           0.0       0.1       0.1       0.2       0.1       0.2
 3 O  dxy             0.3       0.0       1.1       0.0       0.1       0.1
 4 O  s               0.3       5.2       0.6       0.8       0.0       0.2
 4 O  pz              1.7       0.2       2.2       2.0      24.9       0.3
 4 O  px              4.6       8.5       0.1       9.5       0.3       0.1
 4 O  py              0.6      11.2       7.9       7.4       3.2       0.0
 4 O  dz2             0.0       0.1       0.0       0.0       0.1       0.0
 4 O  dxz             1.2       0.7       0.1       0.1       0.4       0.1
 4 O  dyz             0.1       0.1       0.0       0.3       0.5       0.0
 4 O  dx2y2           0.6       0.0       0.9       0.2       0.3       0.0
 4 O  dxy             0.1       0.1       1.2       0.1       0.0       0.5
 5 C  s               4.7       6.6       0.0       0.3       0.9       0.0
 5 C  pz              2.9       7.0       1.0       5.2       0.5       1.3
 5 C  px              0.6       2.4       0.7       2.9       7.3       1.2
 5 C  py              0.3       9.1       8.3       0.2       1.6       8.4
 5 C  dz2             0.0       0.0       0.0       0.0       0.1       0.0
 5 C  dx2y2           0.0       0.1       0.0       0.0       0.1       0.0
 5 C  dxy             0.0       0.3       0.0       0.0       0.0       0.0
 6 C  s               5.5       1.5       0.1       0.0       0.7       0.0
 6 C  pz              1.7       5.2       0.1       1.0       4.7       0.3
 6 C  px              0.8       0.4       1.0       2.0       2.9       2.5
 6 C  py              0.1       0.8       2.0       0.0       1.7       7.1
 6 C  dxz             0.0       0.0       0.0       0.0       0.1       0.0
 7 H  s               4.1       0.2       1.1       0.4       0.4       4.1
 7 H  py              0.3       0.0       0.0       0.0       0.0       0.1
 8 H  s               4.5       0.3       0.5       0.2       0.3       0.4
 8 H  pz              0.2       0.0       0.0       0.0       0.0       0.0
 9 H  s               4.4       0.0       0.6       0.0       1.3       1.5
 9 H  px              0.2       0.0       0.0       0.0       0.0       0.1
10 H  s               2.7       0.8       5.1       2.0       0.0       4.5
10 H  py              0.2       0.0       0.2       0.1       0.0       0.1
11 H  s               3.9       1.4       3.2       1.1       0.0       0.3
11 H  pz              0.2       0.1       0.1       0.1       0.0       0.0
11 H  py              0.0       0.0       0.1       0.0       0.0       0.1
12 H  s               2.6       2.8       2.3       2.5       1.8       3.3
12 H  py              0.1       0.2       0.0       0.1       0.0       0.0
13 H  s               1.4      10.2       1.7       0.3       0.2       2.2
13 H  py              0.1       0.5       0.0       0.0       0.0       0.0
14 H  s               2.2       1.0       0.4       0.3       2.0       2.2
15 H  s               1.8       2.4       0.6       0.0       0.3       2.0
15 H  py              0.1       0.1       0.0       0.0       0.0       0.0
16 H  s               1.9       0.2       0.2       0.8       1.3       0.3

                     18        19        20        21        22        23   
                  -0.40859  -0.37921  -0.35626  -0.35026  -0.33181  -0.33025
                   2.00000   2.00000   2.00000   2.00000   2.00000   2.00000
                  --------  --------  --------  --------  --------  --------
 0 C  s               0.0       0.1       0.1       0.0       0.0       0.5
 0 C  pz             10.1       2.6       4.6       8.3       0.1       9.7
 0 C  px              7.5       4.2       2.0      11.5       6.2       7.6
 0 C  py              5.1       2.9       0.2       2.8      13.0       8.9
 0 C  dz2             0.0       0.0       0.0       0.1       0.0       0.0
 0 C  dxz             0.0       0.1       0.1       0.0       0.1       0.1
 0 C  dx2y2           0.0       0.0       0.0       0.1       0.2       0.3
 0 C  dxy             0.1       0.0       0.0       0.1       0.2       0.0
 1 C  s               0.0       0.3       0.0       0.2       0.1       0.3
 1 C  pz             12.2       1.1       2.7       0.2       0.1      12.1
 1 C  px              5.1       2.2       4.0       0.1       2.4       6.5
 1 C  py              5.5       1.0       0.0       0.0       2.6       7.1
 1 C  dz2             0.0       0.0       0.0       0.1       0.0       0.0
 1 C  dxz             0.0       0.0       0.0       0.0       0.0       0.2
 1 C  dx2y2           0.0       0.0       0.0       0.0       0.1       0.3
 1 C  dxy             0.0       0.1       0.0       0.0       0.2       0.0
 2 C  s               0.1       0.0       0.2       0.2       0.4       0.0
 2 C  pz              0.2       5.1       1.3       1.4       0.0       1.9
 2 C  px              1.5       0.4       0.1       1.9       3.6       0.3
 2 C  py              0.1       0.9       1.2       0.1       1.6       0.5
 2 C  dyz             0.0       0.1       0.0       0.0       0.0       0.4
 2 C  dx2y2           0.0       0.2       0.0       0.2       0.2       0.2
 2 C  dxy             0.2       0.0       0.1       0.1       0.1       0.0
 3 O  s               0.0       0.4       0.1       0.0       0.3       0.0
 3 O  pz              0.0       7.3       2.7       2.8       0.0      14.1
 3 O  px              0.0       0.3       1.4       4.0       5.6       2.0
 3 O  py              0.0       3.7       1.1       0.2       4.6       0.2
 3 O  dxz             0.0       0.0       0.0       0.0       0.2       0.0
 3 O  dyz             0.0       0.3       0.0       0.0       0.0       0.1
 3 O  dx2y2           0.0       0.0       0.0       0.0       0.2       0.0
 4 O  s               0.5       1.2       1.2       0.2       0.1       0.0
 4 O  pz              1.2       2.0       2.7       0.2       0.3       0.4
 4 O  px              3.9       0.2       0.3       2.5       1.3       0.1
 4 O  py              0.1       6.4       3.9       5.4       6.4       0.3
 4 O  dz2             0.3       0.4       0.3       0.1       0.0       0.2
 4 O  dxz             0.1       0.5       0.6       0.1       0.0       0.1
 4 O  dyz             0.0       0.0       0.0       0.0       0.1       0.3
 4 O  dx2y2           0.3       0.5       0.0       0.1       0.2       0.0
 4 O  dxy             0.2       0.1       0.0       0.0       0.0       0.1
 5 C  s               0.1       0.2       0.1       0.2       0.2       0.0
 5 C  pz              5.4       3.5       8.4       0.2       2.6       2.9
 5 C  px              1.1       1.4       4.1       1.3       1.6       0.1
 5 C  py              0.7       2.4       0.2       0.1       1.8       0.3
 5 C  dz2             0.0       0.1       0.0       0.1       0.1       0.0
 5 C  dyz             0.0       0.0       0.0       0.0       0.1       0.0
 5 C  dx2y2           0.0       0.0       0.1       0.1       0.2       0.0
 5 C  dxy             0.0       0.2       0.2       0.0       0.0       0.0
 6 C  s               0.1       0.1       0.2       0.0       0.0       0.1
 6 C  pz              0.7       0.4      24.0       3.1       3.6       2.2
 6 C  px              8.3       4.8       0.4      18.2       3.4       0.3
 6 C  py              0.2      21.4       7.3       0.3       4.6       0.2
 6 C  dxz             0.0       0.2       0.0       0.0       0.0       0.0
 6 C  dyz             0.0       0.0       0.0       0.1       0.2       0.0
 6 C  dx2y2           0.0       0.0       0.3       0.1       0.0       0.0
 7 H  s               2.2       0.5       0.3       1.0       6.2       6.9
 8 H  s               6.5       1.3       1.2       4.6       0.3       0.4
 8 H  pz              0.2       0.0       0.0       0.1       0.0       0.0
 8 H  py              0.0       0.0       0.0       0.1       0.1       0.1
 9 H  s               1.9       2.2       0.1      10.4       7.7       0.0
 9 H  px              0.0       0.0       0.0       0.1       0.1       0.1
 9 H  py              0.1       0.0       0.0       0.0       0.0       0.1
10 H  s               2.6       0.3       0.0       0.1       1.9       6.6
10 H  pz              0.1       0.0       0.0       0.0       0.0       0.1
11 H  s               7.9       0.0       0.4       0.5       0.0       1.2
11 H  pz              0.2       0.0       0.0       0.0       0.0       0.0
11 H  py              0.0       0.0       0.0       0.0       0.0       0.1
12 H  s               2.1       0.1       1.8       0.1       4.2       1.5
13 H  s               0.0       1.4       1.0       0.1       0.2       0.0
14 H  s               0.9       3.5       1.8       4.6       6.8       0.8
14 H  px              0.0       0.1       0.0       0.0       0.0       0.0
14 H  py              0.0       0.0       0.2       0.1       0.0       0.0
15 H  s               0.1       5.1      10.9       0.0       1.0       0.0
15 H  pz              0.0       0.1       0.0       0.0       0.1       0.0
15 H  px              0.0       0.1       0.0       0.1       0.0       0.0
15 H  py              0.0       0.0       0.3       0.0       0.0       0.0
16 H  s               3.2       5.2       4.3       9.6       1.6       0.0
16 H  px              0.0       0.1       0.2       0.1       0.0       0.0

                     24        25        26        27        28        29   
                  -0.31441  -0.30350  -0.27835  -0.25106  -0.02296   0.07845
                   2.00000   2.00000   2.00000   2.00000   0.00000   0.00000
                  --------  --------  --------  --------  --------  --------
 0 C  s               0.0       0.0       0.0       0.0       1.8       5.5
 0 C  pz             10.6       0.1       0.0       0.0       1.1       1.4
 0 C  px              2.1       2.2       0.0       0.9       1.3       4.1
 0 C  py              7.1       0.1       0.5       0.1       0.3       0.1
 0 C  dz2             0.6       0.1       0.0       0.0       0.0       0.0
 0 C  dxz             0.0       0.0       0.0       0.0       0.0       0.5
 0 C  dyz             0.2       0.0       0.0       0.0       0.0       0.0
 0 C  dx2y2           0.0       0.0       0.0       0.1       0.1       0.0
 1 C  s               0.1       0.0       0.0       0.5       0.1      11.3
 1 C  pz             10.9       0.1       0.0       0.2       0.0       1.1
 1 C  px              2.4       2.6       0.0       4.5       0.7       1.0
 1 C  py              6.0       0.2       0.3       4.0       0.0       0.3
 1 C  dz2             0.6       0.0       0.0       0.0       0.2       0.0
 1 C  dxz             0.1       0.0       0.0       0.0       1.4       0.0
 1 C  dyz             0.1       0.0       0.0       0.0       0.0       0.0
 1 C  dx2y2           0.0       0.0       0.0       0.1       0.3       0.0
 2 C  s               0.1       0.5       0.0       0.4       0.0      12.8
 2 C  pz              1.0       0.3       0.0       0.2      34.8       0.2
 2 C  px              0.4       0.1       0.0       1.7       5.4       1.2
 2 C  py              0.1       1.8       0.0       0.7       0.5       1.0
 2 C  dz2             0.0       0.0       0.3       0.0       0.1       1.2
 2 C  dxz             0.1       0.1       0.1       0.0       0.2       0.8
 2 C  dyz             0.0       0.0       1.4       0.5       0.5       0.0
 2 C  dx2y2           0.0       0.3       0.0       0.1       0.1       0.0
 2 C  dxy             0.1       0.1       0.2       3.3       0.0       0.0
 3 O  s               0.0       0.2       0.0       0.0       0.0       2.9
 3 O  pz              1.7       0.2      25.7       8.3      18.2       0.1
 3 O  px              0.0       0.1       2.0      58.1       2.8       0.2
 3 O  py              0.1       2.9       0.5       0.3       0.3       0.5
 3 O  dz2             0.0       0.1       0.0       0.0       0.0       1.9
 3 O  dxz             0.0       0.2       0.0       0.0       0.2       0.6
 3 O  dyz             0.0       0.0       0.1       0.1       5.7       0.1
 3 O  dx2y2           0.0       0.2       0.0       0.0       0.3       0.1
 3 O  dxy             0.0       0.0       0.0       0.8       0.8       0.3
 4 O  s               0.1       2.2       0.0       0.3       0.0       6.0
 4 O  pz              0.5       0.4      35.6       1.4       9.3       0.0
 4 O  px              2.4       1.5       6.3       0.9       1.4       0.4
 4 O  py              0.1      19.3       0.5       5.8       0.1       0.9
 4 O  dz2             0.0       0.0       0.1       0.3       2.7       1.8
 4 O  dxz             0.4       0.5       0.5       0.0       2.1       1.4
 4 O  dyz             0.1       0.4       0.3       0.1       0.9       0.0
 4 O  dx2y2           0.0       1.2       0.2       0.1       0.3       0.5
 4 O  dxy             0.2       0.5       0.2       0.1       0.4       0.5
 5 C  s               0.0       0.2       0.1       0.1       0.0       3.0
 5 C  pz              0.1       0.2       6.1       0.7       0.0       1.5
 5 C  px              2.5       0.2       1.0       0.4       0.0      10.1
 5 C  py              1.1      17.1       0.0       0.2       0.0       2.2
 5 C  dz2             0.0       0.0       0.0       0.0       0.0       0.1
 5 C  dxz             0.0       0.1       0.7       0.0       0.2       0.3
 5 C  dyz             0.1       0.7       0.0       0.0       0.0       0.0
 5 C  dx2y2           0.0       0.3       0.3       0.0       0.1       0.4
 5 C  dxy             0.0       0.0       0.0       0.0       0.0       0.3
 6 C  s               0.0       0.0       0.6       0.0       0.4       2.6
 6 C  pz              0.1       0.0       5.5       0.4       0.3       0.9
 6 C  px              3.7       0.1       4.0       0.1       0.2       1.4
 6 C  py              1.2      10.3       0.5       0.0       0.0       0.2
 6 C  dz2             0.0       0.0       0.0       0.0       0.0       0.4
 6 C  dxz             0.0       0.0       0.1       0.0       0.0       0.2
 6 C  dyz             0.1       0.5       0.0       0.0       0.0       0.0
 6 C  dx2y2           0.0       0.1       0.0       0.0       0.0       0.1
 7 H  s               5.2       0.1       0.3       0.2       0.1       0.7
 7 H  py              0.1       0.0       0.0       0.0       0.0       0.3
 8 H  s              12.3       0.5       0.1       0.1       0.1       0.9
 8 H  pz              0.1       0.0       0.0       0.0       0.1       0.1
 8 H  px              0.0       0.0       0.0       0.0       0.0       0.4
 9 H  s               0.7       1.0       0.1       1.0       0.6       1.3
 9 H  pz              0.1       0.0       0.0       0.0       0.0       0.3
 9 H  px              0.0       0.0       0.0       0.0       0.2       0.0
 9 H  py              0.1       0.0       0.0       0.0       0.0       0.1
10 H  s               4.9       0.2       0.2       1.7       0.2       0.7
10 H  px              0.0       0.0       0.0       0.1       0.0       0.0
10 H  py              0.1       0.0       0.0       0.0       0.0       0.5
11 H  s              13.3       0.5       0.0       0.0       2.0       1.1
11 H  pz              0.1       0.0       0.0       0.0       0.0       0.6
12 H  s               0.8       5.4       1.9       0.3       0.1       0.5
12 H  pz              0.0       0.1       0.0       0.0       0.0       0.0
12 H  px              0.0       0.0       0.0       0.0       0.0       0.1
12 H  py              0.0       0.0       0.0       0.0       0.0       0.5
13 H  s               1.2      12.7       1.6       0.1       0.2       1.2
13 H  px              0.0       0.0       0.0       0.0       0.0       0.7
13 H  py              0.0       0.1       0.0       0.1       0.0       0.3
14 H  s               1.2       3.5       0.5       0.2       0.0       0.5
14 H  px              0.0       0.0       0.1       0.0       0.0       0.3
15 H  s               1.0       7.0       0.0       0.0       0.0       0.3
16 H  s               1.0       0.6       0.8       0.1       0.0       2.7
16 H  px              0.0       0.0       0.0       0.0       0.0       0.2

                     30        31        32        33        34        35   
                   0.10131   0.12865   0.13312   0.13551   0.14634   0.16538
                   0.00000   0.00000   0.00000   0.00000   0.00000   0.00000
                  --------  --------  --------  --------  --------  --------
 0 C  s               0.1      25.0       2.1       5.5       0.1       2.7
 0 C  pz              0.2       2.5       2.7       0.7       3.5       5.1
 0 C  px              0.1       6.1       2.2       7.3       0.1       0.9
 0 C  py              0.1       0.1       0.5       0.3       4.1       3.4
 0 C  dz2             0.1       0.0       0.2       0.0       0.1       0.5
 0 C  dxz             0.0       0.0       0.4       0.3       0.1       0.0
 0 C  dyz             0.0       0.0       0.0       0.1       0.7       0.0
 0 C  dx2y2           0.0       0.0       0.1       0.1       0.0       0.4
 0 C  dxy             0.0       0.0       0.1       0.3       0.1       0.0
 1 C  s               0.3       0.4       8.9       0.8       5.1       1.0
 1 C  pz              0.1       2.4       4.0       6.1       0.8       0.7
 1 C  px              0.7       6.5       0.6       1.2       6.4       1.3
 1 C  py              0.1       0.4       0.7       1.2       8.4       1.5
 1 C  dz2             0.0       0.3       0.1       0.1       0.0       0.0
 1 C  dxz             0.1       0.2       0.0       0.2       0.1       0.1
 1 C  dyz             0.0       0.1       0.0       0.4       0.1       0.3
 1 C  dx2y2           0.3       0.2       0.0       0.1       1.2       0.4
 1 C  dxy             0.0       0.2       0.0       0.0       1.0       0.0
 2 C  s               1.5       0.2       0.9       0.5       2.7       0.5
 2 C  pz              2.0       5.2       2.7       0.7       1.3       0.8
 2 C  px              0.4       1.8       1.0       0.1       0.6       1.0
 2 C  py              3.3       1.7       0.1       0.3       5.1      10.3
 2 C  dz2             0.1       0.0       0.1       0.2       0.3       0.0
 2 C  dxz             0.1       0.0       0.1       0.1       0.2       0.1
 2 C  dx2y2           1.0       0.3       0.0       0.0       0.1       0.1
 3 O  s               1.1       0.1       0.1       0.1       0.5       1.8
 3 O  pz              0.2       0.1       0.5       0.5       0.4       0.1
 3 O  px              0.1       1.6       0.9       0.6       0.4       0.0
 3 O  py              0.6       0.1       0.0       0.3       0.1       3.4
 3 O  dz2             0.1       0.1       0.0       1.1       0.4       0.0
 3 O  dxz             0.5       0.0       0.4       1.0       0.8       2.1
 3 O  dyz             0.1       0.6       0.0       0.2       0.1       0.0
 3 O  dx2y2           0.2       0.0       0.0       1.6       0.7       1.6
 3 O  dxy             0.3       0.0       0.0       0.1       0.0       0.2
 4 O  s               4.7       1.0       0.4       0.2       0.1       0.2
 4 O  pz              2.1       0.2       0.5       0.1       0.1       0.6
 4 O  px              4.1       0.7       0.1       2.3       0.0       0.3
 4 O  py              1.6       0.2       0.2       0.4       2.4       0.0
 4 O  dz2             0.6       0.3       0.6       3.5       0.0       3.3
 4 O  dxz             2.0       0.1       0.5       0.1       0.5       1.0
 4 O  dyz             0.0       0.3       0.2       1.0       0.1       0.0
 4 O  dx2y2           1.3       0.0       0.4       0.1       2.4       0.2
 4 O  dxy             1.6       0.1       0.2       0.7       4.1       0.0
[...]
 3 O  py              0.3       0.0       0.9       0.9       0.2      21.4
 3 O  dz2             0.0       0.0       0.0       0.3       0.2       7.9
 3 O  dxz             0.1       0.0       0.5       0.1       0.2       0.0
 3 O  dyz             0.0       0.8       3.3       0.1       0.2       0.4
 3 O  dx2y2           0.2       0.0       0.0       1.7       0.1      23.7
 3 O  dxy             1.4       0.0      15.3       0.0       1.5       1.6
 4 O  s               0.8       0.5       4.0      26.9       5.4       1.2
 4 O  pz              0.2       0.0       0.2       0.4       4.4       0.1
 4 O  px              0.1       0.0       0.1       7.1      23.6       0.5
 4 O  py              1.4       0.0       5.5       6.7       3.5       0.2
 4 O  dz2             1.0       0.1       0.7       6.3       0.8       0.4
 4 O  dxz             0.8       0.0       0.1       9.1       1.7       0.7
 4 O  dyz             0.2       0.0       0.6       0.0       5.0       0.0
 4 O  dx2y2           1.0       0.1       8.5       8.2       0.2       0.6
 4 O  dxy             0.0       0.1       0.0       0.9      22.3       0.4
 5 C  s               0.0       0.1       0.1       1.3       0.5       0.1
 5 C  pz              0.6       0.0       0.0       1.2       0.3       0.0
 5 C  px              0.6       0.0       0.3       5.6       1.5       0.3
 5 C  py              9.9       0.6       0.8       0.8       0.4       0.0
 5 C  dz2             1.0       0.1       0.4       1.5       0.2       0.0
 5 C  dxz             2.2       0.1       0.2       2.0       0.4       0.0
 5 C  dyz            15.4       0.5       2.1       0.5       0.1       0.0
 5 C  dx2y2           0.7       0.1       1.0       4.4       1.4       0.2
 5 C  dxy             0.0       0.0       0.7       4.4       0.9       0.3
 6 C  s               0.1       0.0       0.1       0.0       0.0       0.0
 6 C  px              0.3       0.0       0.0       0.1       0.0       0.0
 6 C  py              0.4       0.1       0.6       0.0       0.0       0.0
 6 C  dz2             0.0       0.0       0.1       0.2       0.0       0.0
 6 C  dxz             0.7       0.0       0.1       0.1       0.0       0.0
 6 C  dyz             0.8       0.3       1.8       0.1       0.0       0.0
 6 C  dx2y2           0.5       0.1       0.7       0.1       0.0       0.0
 6 C  dxy             0.1       0.0       0.0       0.1       0.0       0.0
 7 H  s               0.3       1.4       0.0       0.0       0.0       0.0
 7 H  px              0.1       0.4       0.0       0.0       0.0       0.0
 7 H  py              0.7       3.3       0.0       0.0       0.0       0.0
 8 H  s               0.1       1.1       0.3       0.0       0.0       0.0
 8 H  pz              0.1       2.7       0.7       0.0       0.0       0.0
 8 H  py              0.1       0.3       0.1       0.0       0.0       0.0
 9 H  s               0.3       0.1       0.7       0.0       0.0       0.0
 9 H  px              0.6       0.0       1.3       0.0       0.0       0.0
 9 H  py              0.2       0.2       0.3       0.0       0.0       0.0
10 H  s               0.9       6.0       0.4       0.0       0.1       0.0
10 H  pz              0.0       0.2       0.0       0.0       0.0       0.0
10 H  px              0.1       0.7       0.1       0.0       0.1       0.0
10 H  py              2.3      12.5       1.0       0.0       0.0       0.0
11 H  s               0.0       7.0       0.4       0.0       0.0       0.0
11 H  pz              0.0      14.0       0.9       0.0       0.0       0.0
11 H  px              0.0       0.8       0.0       0.0       0.0       0.0
11 H  py              0.0       1.0       0.0       0.0       0.0       0.0
12 H  s               6.5       0.2       0.6       0.4       0.1       0.0
12 H  pz              7.8       0.2       0.8       0.2       0.0       0.0
12 H  px              1.8       0.0       0.0       0.1       0.0       0.0
12 H  py              4.8       0.1       0.7       1.0       0.1       0.0
13 H  s               6.1       0.3       0.7       0.3       0.1       0.0
13 H  pz              4.1       0.2       0.2       0.0       0.0       0.0
13 H  px              0.2       0.0       0.9       0.3       0.2       0.0
13 H  py              9.9       0.7       1.4       0.4       0.1       0.0
14 H  s               0.1       0.1       0.3       0.0       0.0       0.0
14 H  pz              0.3       0.1       0.2       0.1       0.0       0.0
14 H  py              0.2       0.1       0.2       0.0       0.0       0.0
15 H  s               0.4       0.1       0.8       0.0       0.0       0.0
15 H  pz              0.3       0.0       0.4       0.0       0.0       0.0
15 H  px              0.4       0.0       0.1       0.0       0.0       0.0
15 H  py              0.6       0.2       1.5       0.0       0.0       0.0
16 H  s               0.2       0.0       0.0       0.1       0.0       0.0
16 H  px              0.2       0.0       0.0       0.2       0.0       0.0
16 H  py              0.5       0.0       0.0       0.0       0.0       0.0

                    186       187       188       189       190       191   
                  21.91001  21.95596  21.99540  22.08065  22.25616  43.67529
                   0.00000   0.00000   0.00000   0.00000   0.00000   0.00000
                  --------  --------  --------  --------  --------  --------
 0 C  s              88.6       1.0       5.6       0.0       4.5       0.0
 1 C  s               5.7       1.8      67.0      24.6       0.5       0.0
 2 C  s               3.5       0.0       1.6       0.0      93.9       0.0
 3 O  s               0.0       0.0       0.0       0.0       0.2      96.5
 3 O  py              0.0       0.0       0.0       0.0       0.1       0.0
 4 O  s               0.0       0.0       0.0       0.1       0.1       3.4
 5 C  s               1.5       0.2      23.2      74.7       0.1       0.0
 6 C  s               0.4      96.7       2.4       0.1       0.1       0.0

                    192   
                  43.75292
                   0.00000
                  --------
 3 O  s               3.4
 4 O  s              96.5


                      *****************************
                      * MAYER POPULATION ANALYSIS *
                      *****************************

  NA   - Mulliken gross atomic population
  ZA   - Total nuclear charge
  QA   - Mulliken gross atomic charge
  VA   - Mayer's total valence
  BVA  - Mayer's bonded valence
  FA   - Mayer's free valence

  ATOM       NA         ZA         QA         VA         BVA        FA
  0 C      6.4925     6.0000    -0.4925     3.8042     3.8042    -0.0000
  1 C      6.3135     6.0000    -0.3135     3.7522     3.7522    -0.0000
  2 C      5.5449     6.0000     0.4551     3.7083     3.7083    -0.0000
  3 O      8.5208     8.0000    -0.5208     1.8750     1.8750     0.0000
  4 O      8.1983     8.0000    -0.1983     1.9343     1.9343     0.0000
  5 C      6.1444     6.0000    -0.1444     3.6526     3.6526     0.0000
  6 C      6.4927     6.0000    -0.4927     3.8136     3.8136    -0.0000
  7 H      0.8333     1.0000     0.1667     0.9587     0.9587     0.0000
  8 H      0.8366     1.0000     0.1634     0.9587     0.9587    -0.0000
  9 H      0.8275     1.0000     0.1725     0.9554     0.9554    -0.0000
 10 H      0.8253     1.0000     0.1747     0.9567     0.9567    -0.0000
 11 H      0.8193     1.0000     0.1807     0.9526     0.9526    -0.0000
 12 H      0.8262     1.0000     0.1738     0.9468     0.9468     0.0000
 13 H      0.8283     1.0000     0.1717     0.9564     0.9564    -0.0000
 14 H      0.8320     1.0000     0.1680     0.9575     0.9575     0.0000
 15 H      0.8346     1.0000     0.1654     0.9583     0.9583     0.0000
 16 H      0.8299     1.0000     0.1701     0.9583     0.9583    -0.0000

  Mayer bond orders larger than 0.100000
B(  0-C ,  1-C ) :   0.8859 B(  0-C ,  7-H ) :   0.9745 B(  0-C ,  8-H ) :   0.9710 
B(  0-C ,  9-H ) :   0.9661 B(  1-C ,  2-C ) :   0.9475 B(  1-C , 10-H ) :   0.9754 
B(  1-C , 11-H ) :   0.9551 B(  2-C ,  3-O ) :   1.7520 B(  2-C ,  4-O ) :   1.0828 
B(  4-O ,  5-C ) :   0.8049 B(  5-C ,  6-C ) :   0.9368 B(  5-C , 12-H ) :   0.9515 
B(  5-C , 13-H ) :   0.9630 B(  6-C , 14-H ) :   0.9689 B(  6-C , 15-H ) :   0.9694 
B(  6-C , 16-H ) :   0.9602 

-------
TIMINGS
-------

Total SCF time: 0 days 0 hours 0 min 23 sec 

Total time                  ....      23.180 sec
Sum of individual times     ....      22.165 sec  ( 95.6%)

SCF preparation             ....       0.259 sec  (  1.1%)
Fock matrix formation       ....      20.941 sec  ( 90.3%)
  Startup                   ....       0.066 sec  (  0.3% of F)
  Split-RI-J                ....       3.123 sec  ( 14.9% of F)
  XC integration            ....      13.477 sec  ( 64.4% of F)
    XC Preparation          ....       0.000 sec  (  0.0% of XC)
    Basis function eval.    ....       2.481 sec  ( 18.4% of XC)
    Density eval.           ....       3.733 sec  ( 27.7% of XC)
    XC-Functional eval.     ....       1.843 sec  ( 13.7% of XC)
    XC-Potential eval.      ....       4.424 sec  ( 32.8% of XC)
  CPCM terms                ....       3.683 sec  ( 17.6% of F)
Diagonalization             ....       0.000 sec  (  0.0%)
Density matrix formation    ....       0.274 sec  (  1.2%)
Total Energy calculation    ....       0.051 sec  (  0.2%)
Population analysis         ....       0.107 sec  (  0.5%)
Orbital Transformation      ....       0.057 sec  (  0.2%)
Orbital Orthonormalization  ....       0.000 sec  (  0.0%)
DIIS solution               ....       0.430 sec  (  1.9%)
  MO trafo                  ....       0.000 sec  (  0.0 % of DIIS)
  Orb grad                  ....       0.000 sec  (  0.0 % of DIIS)
  Energy W gradient         ....       0.000 sec  (  0.0 % of DIIS)
  DIIS error                ....       0.008 sec  (  2.0 % of DIIS)
  DIIS work                 ....       0.354 sec  ( 82.2 % of DIIS)
  Form Q                    ....       0.000 sec  (  0.0 % of DIIS)
  Form QpQm                 ....       0.000 sec  (  0.0 % of DIIS)
  Exp/Cayley                ....       0.000 sec  (  0.0 % of DIIS)
  Orb update                ....       0.000 sec  (  0.0 % of DIIS)
  Wake-sleep                ....       0.035 sec  (  8.1 % of DIIS)
SOSCF solution              ....       0.047 sec  (  0.2%)
  MO trafo                  ....       0.037 sec  ( 78.8 % of SOSCF)
  Orb grad                  ....       0.001 sec  (  1.3 % of SOSCF)
  Rot update                ....       0.000 sec  (  0.1 % of SOSCF)
  Step                      ....       0.009 sec  ( 19.7 % of SOSCF)
Finished LeanSCF after  23.3 sec

Maximum memory used throughout the entire LEANSCF-calculation: 24.1 MB


-------------------------------------------------------------------------------
                          DFT DISPERSION CORRECTION                            
                                                                               
                                DFTD4 V3.4.0                                   
-------------------------------------------------------------------------------
The R2SCAN3C composite method is recognized
Using three-body term ABC
Active option DFTDOPT                   ...         5   

-------------------------   ----------------
Dispersion correction           -0.003971204
-------------------------   ----------------

------------------   -----------------
gCP correction             0.010407832
------------------   -----------------

-------------------------   --------------------
FINAL SINGLE POINT ENERGY      -346.941192828834
-------------------------   --------------------


------------------------------------------------------------------------------
                              ORCA PROPERTY CALCULATIONS
------------------------------------------------------------------------------

GBWName                                 ... sp_solv.gbw
Number of atoms                         ...     17
Number of basis functions               ...    193
Max core memory                         ...   1024 MB

Electric properties:
Dipole moment                           ... YES
Quadrupole moment                       ...  NO
Static polarizability (Dipole/Dipole)   ...  NO
Static polarizability (Dipole/Quad.)    ...  NO
Static polarizability (Quad./Quad.)     ...  NO
Static polarizability (Velocity)        ...  NO

Atomic electric properties:
Dipole moment                           ...  NO
Quadrupole moment                       ...  NO
Static polarizability                   ...  NO

Choice of electric origin               ... Center of mass
Position of electric origin             ...    -0.000002     0.000009     0.000001

General magnetic properties:
Magnetizability                         ...  NO

EPR properties:
g-Tensor (aka g-matrix)                 ...  NO
Zero-Field splitting spin-orbit         ...  NO
Zero-field splitting spin-spin          ...  NO
Hyperfine couplings                     ...  NO (   0 nuclei)
Quadrupole couplings                    ...  NO (   0 nuclei)
Contact density                         ...  NO (   0 nuclei)

NMR properties:
Chemical shifts                         ...  NO (   0 nuclei)
Spin-rotation constants                 ...  NO (   0 nuclei)
Spin-spin couplings                     ...  NO (   0 nuclei,    0 pairs)

Choice of magnetic origin               ... GIAO
Position of magnetic origin             ...     0.000000     0.000000     0.000000

Properties with geometric perturbations:
SCF Hessian                             ...  NO
IR spectrum                             ...  NO
VCD spectrum                            ...  NO
X-ray spectroscopy properties:
SCF XES/XAS/RIXS spectra                ...  NO


-------------
DIPOLE MOMENT
-------------

Method             : SCF
Type of density    : Electron Density
Multiplicity       :   1
Irrep              :   0
Energy             :  -346.9476294569961965 Eh
Relativity type    : 
Basis              : AO
                                X                 Y                 Z
Electronic contribution:      0.172002574      -1.029395199      -0.122906668
Nuclear contribution   :      0.075729531       2.091964645       0.347314587
                        -----------------------------------------
Total Dipole Moment    :      0.247732104       1.062569446       0.224407919
                        -----------------------------------------
Magnitude (a.u.)       :      1.113904815
Magnitude (Debye)      :      2.831321032



--------------------
Rotational spectrum 
--------------------
 
Rotational constants in cm-1:             0.216223             0.047210             0.044126 
Rotational constants in MHz :          6482.188659          1415.318018          1322.851874 

Dipole components along the rotational axes: 
x,y,z [a.u.] :     0.214397     1.087317    -0.112075 
x,y,z [Debye]:     0.544953     2.763739    -0.284871 

 

Dipole moment calculation done in   0.0 sec 

Maximum memory used throughout the entire PROP-calculation: 11.5 MB

--------------------------------
SUGGESTED CITATIONS FOR THIS RUN
--------------------------------

Below you find a list of papers that are relevant to this ORCA run
We neither can nor want to force you to cite these papers, but we appreciate if you do
You receive ORCA, which is the product of decades of hard work by many enthusiastic individuals, for free
The only thing we kindly ask in return is that you cite our papers,
We deeply appreciate it, if you show your appreciation for ORCA by not just citing the generic ORCA reference.

Please note that relegating all ORCA citations to the supporting information does *not* help us.
SI sections are not indexed - citations you put there will not count into any citation statistics
But we need these citations in order to attract the funding resources that allow us to do what we are doing

Therefore, if you are a happy ORCA user, please consider citing a few of the papers listed below in the main body of your paper

In addition to the list printed below, the program has created the file sp_solv.bibtex that contains the list in bibtex format
You can import this file easily into all common literature databanks and citation aid programs


List of essential papers. We consider these as the minimum necessary citations

  1. Neese,F.
     Software update: the ORCA program system, version 5.0
     WIRES Comput. Molec. Sci., 2022 12(1)e1606
     doi.org/10.1002/wcms.1606
  2. Grimme,S.; Hansen,A.; Ehlert,S.; Mewes,J.
     r2SCAN-3c: A 'Swiss army knife' composite electronic-structure method
     J. Chem. Phys., 2021 154 064103
     doi.org/10.1063/5.0040021

List of papers to cite with high priority. The work reported in these papers was absolutely
necessary for this run to complete.
Our perspective: the developers of density functionals and basis sets usually get cited in chemistry papers
Good! But without the algorithms to do something with them, the functionals or basis sets would not do anything.
Hence, in our opinion, the algorithm design and method developments papers are equally worthy of getting cited

  1. Neese,F.
     An improvement of the resolution of the identity approximation for the formation of the Coulomb matrix
     J. Comp. Chem., 2003 24(14)1740-1747
     doi.org/10.1002/jcc.10318
  2. Garcia-Rates,M.; Neese,F.
     Effect of the Solute Cavity on the Solvation Energy and its Derivatives within the Framework of the Gaussian Charge Scheme
     J. Comput. Chem., 2020 41 922-939
     doi.org/10.1002/jcc.26139
  3. Neese,F.
     The SHARK Integral Generation and Digestion System
     J. Comp. Chem., 2022  1-16
     doi.org/10.1002/jcc.26942
  4. Lehtola,S.; Steigemann,C.; Oliveira,M.; Marques,M.
     Recent developments in Libxc - A comprehensive library of functionals for density functional theory
     Software X, 2018 7 
     doi.org/10.1016/j.softx.2017.11.002
  5. Caldeweyher,E.; Bannwarth,C.; Grimme,S.
     Extension of the D3 dispersion coefficient model
     J. Chem. Phys., 2017 147 034112-XXXX
     doi.org/10.1063/1.4993215
  6. Caldeweyher,E.; Ehlert,S.; Hansen,A.; Neugebauer,H.; Spicher,S.; Bannwarth,C.; Grimme,S.
     A generally applicable atomic-charge dependent London dispersion correction
     J. Chem. Phys., 2019 150 154122-XXXX
     doi.org/10.1063/1.5090222
  7. Caldeweyher,E.; Mewes,J.; Ehlert,S.; Grimme,S.
     Extension and evaluation of the D4 London-dispersion model for periodic systems
     Phys. Chem. Chem. Phys., 2020 22(16)8499-8512
     doi.org/10.1039/D0CP00502A

List of suggested additional citations. These are papers that are important in the 'surrounding' of 
of this run, or papers that preceded the highly important papers. If you like your results we are grateful for a citation.

  1. Neese,F.
     The ORCA program system
     WIRES Comput. Molec. Sci., 2012 2(1)73-78
     doi.org/10.1002/wcms.81
  2. Neese,F.
     Software update: the ORCA program system, version 4.0
     WIRES Comput. Molec. Sci., 2018 8(1)1-6
     doi.org/10.1002/wcms.1327
  3. Neese,F.; Wennmohs,F.; Becker,U.; Riplinger,C.
     The ORCA quantum chemistry program package
     J. Chem. Phys., 2020 152 Art. No. L224108
     doi.org/10.1063/5.0004608

List of optional additional citations

  1. Neese,F.
     Approximate second-order SCF convergence for spin unrestricted wavefunctions
     Chem. Phys. Lett., 2000 325(1-3)93-98
     doi.org/10.1016/s0009-2614(00)00662-x

Timings for individual modules:

Sum of individual times          ...       24.813 sec (=   0.414 min)
Startup calculation              ...        1.057 sec (=   0.018 min)   4.3 %
SCF iterations                   ...       23.644 sec (=   0.394 min)  95.3 %
Property calculations            ...        0.111 sec (=   0.002 min)   0.4 %
                             ****ORCA TERMINATED NORMALLY****
TOTAL RUN TIME: 0 days 0 hours 0 minutes 25 seconds 588 msec
