 Entering Gaussian System
 *********************************************
 Gaussian 98:
 frequency output generated by the xtb code
 *********************************************
                         Standard orientation:
 --------------------------------------------------------------------
  Center     Atomic     Atomic              Coordinates (Angstroms)
  Number     Number      Type              X           Y           Z
 --------------------------------------------------------------------
    1          6             0       -2.675519   -2.056973    1.442178
    2          6             0       -3.421261   -0.892798    0.802159
    3          6             0       -2.809163   -0.336836   -0.492188
    4          1             0       -3.426416    0.522351   -0.782967
    5          6             0       -2.813259   -1.321109   -1.653968
    6          7             0       -1.479856    0.260797   -0.239887
    7          6             0       -0.307242   -0.492993   -0.300044
    8          8             0       -0.299766   -1.691643   -0.504445
    9          6             0        0.906615    0.274945   -0.098192
   10          6             0        0.914626    1.599199    0.191053
   11          7             0       -0.297778    2.211607    0.288512
   12          6             0       -1.507397    1.597079    0.094333
   13          8             0       -2.539891    2.235815    0.210650
   14          6             0        2.136300    2.411173    0.416137
   15         35             0        2.522658   -0.714350   -0.236117
   16          1             0       -3.219583   -2.397498    2.319558
   17          1             0       -2.580654   -2.889663    0.751564
   18          1             0       -1.675844   -1.764243    1.755897
   19          1             0       -4.437512   -1.207513    0.561887
   20          1             0       -3.489915   -0.069171    1.517685
   21          1             0       -2.340132   -0.875082   -2.525943
   22          1             0       -2.289589   -2.239586   -1.413064
   23          1             0       -3.845542   -1.553017   -1.899318
   24          1             0       -0.346248    3.197796    0.525064
   25          1             0        2.832921    2.272623   -0.408674
   26          1             0        2.643487    2.074581    1.319376
   27          1             0        1.893390    3.463670    0.513572
 --------------------------------------------------------------------
     1 basis functions        1 primitive gaussians
     1 alpha electrons        1 beta electrons
 
 Harmonic frequencies (cm**-1), IR intensities (km*mol⁻¹),
 Raman scattering activities (A**4/amu), Raman depolarization ratios,
 reduced masses (AMU), force constants (mDyne/A) and normal coordinates:
                      1                      2                      3
                        a                      a                      a 
 Frequencies --    45.6523                42.4641               -43.7405
 Red. masses --    20.8943                11.1334                 4.2089
 Frc consts  --     0.0000                 0.0000                 0.0000
 IR Inten    --     0.5938                 3.0607                 0.2389
 Raman Activ --     0.0000                 0.0000                 0.0000
 Depolar     --     0.0000                 0.0000                 0.0000
 Atom AN      X      Y      Z        X      Y      Z        X      Y      Z
   1   6    -0.48   0.02  -0.03    -0.16  -0.50  -0.30     0.05  -0.02  -0.04
   2   6    -0.22   0.12  -0.15     0.07  -0.14   0.10     0.01  -0.04  -0.04
   3   6     0.04  -0.01  -0.08    -0.01   0.03   0.13     0.01   0.01  -0.01
   4   1     0.04   0.00  -0.07    -0.01   0.02   0.08     0.00   0.00   0.00
   5   6     0.21  -0.09  -0.01    -0.04   0.19  -0.00     0.04   0.05  -0.05
   6   7     0.03  -0.05   0.09    -0.00   0.04   0.10     0.01   0.02   0.01
   7   6     0.03  -0.05   0.20    -0.01   0.03   0.08     0.01   0.03  -0.01
   8   8     0.03  -0.10   0.47    -0.03   0.02   0.17     0.02   0.03  -0.01
   9   6     0.03  -0.01   0.05     0.01   0.03  -0.00     0.02   0.04  -0.04
  10   6     0.02  -0.01   0.04     0.03   0.06  -0.14     0.01   0.05  -0.10
  11   7     0.01  -0.04   0.13     0.05   0.08  -0.16     0.00   0.03  -0.04
  12   6     0.02  -0.04   0.08     0.03   0.07  -0.01    -0.00  -0.00   0.07
  13   8     0.01  -0.06   0.06     0.05   0.10   0.01    -0.01  -0.04   0.23
  14   6     0.01   0.03  -0.04     0.06   0.06  -0.29    -0.03   0.11  -0.12
  15  35     0.14   0.12  -0.32    -0.01  -0.01   0.18    -0.06  -0.11   0.07
  16   1    -0.17   0.06  -0.01    -0.02  -0.14  -0.07     0.01  -0.02  -0.02
  17   1    -0.18  -0.02   0.01    -0.17  -0.11  -0.14     0.03   0.00  -0.02
  18   1    -0.13  -0.05  -0.00     0.00  -0.26  -0.13     0.00   0.01   0.00
  19   1    -0.07   0.08  -0.08    -0.01   0.05   0.05     0.01  -0.02  -0.02
  20   1    -0.05   0.05  -0.05     0.11  -0.08   0.09    -0.01  -0.02  -0.01
  21   1     0.09  -0.05   0.01    -0.07   0.11  -0.00     0.02   0.02  -0.01
  22   1     0.05  -0.02   0.04     0.04   0.07  -0.06     0.01   0.01  -0.02
  23   1     0.07  -0.03  -0.04    -0.01   0.02   0.04     0.01   0.02  -0.02
  24   1    -0.00  -0.01   0.04     0.02   0.03  -0.07     0.00   0.00   0.00
  25   1     0.01  -0.02   0.00    -0.03   0.05  -0.13     0.22  -0.36   0.23
  26   1    -0.01   0.05   0.01     0.08  -0.01  -0.13    -0.30   0.39   0.26
  27   1    -0.00   0.01  -0.06     0.02   0.01  -0.03     0.02   0.09  -0.55
                      4                      5                      6
                        a                      a                      a 
 Frequencies --    65.7914                78.3755               133.8897
 Red. masses --    11.7224                17.3635                33.5353
 Frc consts  --     0.0000                 0.0000                 0.0000
 IR Inten    --    11.0585                 0.7911                 0.7295
 Raman Activ --     0.0000                 0.0000                 0.0000
 Depolar     --     0.0000                 0.0000                 0.0000
 Atom AN      X      Y      Z        X      Y      Z        X      Y      Z
   1   6    -0.12  -0.19  -0.02     0.31  -0.04   0.01    -0.05   0.03   0.05
   2   6     0.11   0.08   0.20     0.04  -0.26  -0.07    -0.16  -0.06   0.02
   3   6    -0.01  -0.03   0.10     0.02  -0.01   0.03    -0.14   0.06   0.08
   4   1    -0.01  -0.01   0.03    -0.01  -0.00   0.04    -0.02   0.04   0.06
   5   6    -0.11  -0.11   0.18     0.15   0.17  -0.12    -0.30   0.23  -0.06
   6   7     0.01   0.01  -0.04    -0.02   0.05   0.12    -0.07  -0.08   0.09
   7   6     0.02   0.02  -0.03    -0.04   0.01   0.21    -0.09  -0.15   0.02
   8   8     0.03   0.02  -0.04    -0.07  -0.01   0.43    -0.24  -0.16  -0.05
   9   6     0.02   0.02   0.01    -0.02   0.01   0.10    -0.05  -0.18   0.01
  10   6     0.01  -0.01   0.14    -0.00   0.01   0.09    -0.03  -0.17  -0.02
  11   7     0.00  -0.00   0.04     0.00   0.04   0.07     0.02  -0.12  -0.01
  12   6     0.01   0.04  -0.17    -0.00   0.08  -0.06    -0.00  -0.05  -0.02
  13   8     0.03   0.13  -0.47     0.02   0.18  -0.35     0.05   0.05  -0.14
  14   6    -0.02  -0.05   0.41     0.01  -0.00   0.08     0.01  -0.21  -0.07
  15  35     0.03   0.05  -0.18    -0.20  -0.10  -0.21     0.47   0.33   0.06
  16   1     0.01   0.01   0.05     0.04  -0.12  -0.07    -0.06  -0.07  -0.04
  17   1    -0.20  -0.07  -0.01     0.28   0.03  -0.03     0.11   0.05  -0.01
  18   1     0.03  -0.16  -0.10     0.02   0.10   0.13    -0.06   0.07   0.11
  19   1    -0.01   0.11   0.11     0.05  -0.17  -0.07    -0.03  -0.05  -0.02
  20   1     0.14   0.02   0.07    -0.09  -0.09  -0.01    -0.10  -0.03   0.01
  21   1    -0.08  -0.04   0.02     0.06   0.10  -0.01    -0.09   0.09  -0.01
  22   1     0.00  -0.01   0.04     0.05   0.05  -0.06    -0.11   0.04  -0.07
  23   1    -0.04  -0.06   0.10     0.05   0.05  -0.07    -0.10   0.11  -0.01
  24   1    -0.00  -0.00   0.01     0.01   0.01  -0.00     0.02  -0.03  -0.02
  25   1     0.11  -0.12   0.23     0.01  -0.02   0.04     0.03  -0.14   0.02
  26   1    -0.15   0.07   0.23    -0.01   0.01   0.04    -0.04   0.00   0.03
  27   1     0.01   0.00  -0.02     0.01   0.00   0.00     0.02  -0.05  -0.11
                      7                      8                      9
                        a                      a                      a 
 Frequencies --   156.7314               173.2338               199.8618
 Red. masses --    12.6698                 9.6929                13.1218
 Frc consts  --     0.0000                 0.0000                 0.0000
 IR Inten    --     7.0151                 0.4112                 0.9488
 Raman Activ --     0.0000                 0.0000                 0.0000
 Depolar     --     0.0000                 0.0000                 0.0000
 Atom AN      X      Y      Z        X      Y      Z        X      Y      Z
   1   6     0.15   0.05  -0.09     0.19   0.11  -0.16    -0.14   0.05   0.05
   2   6     0.14   0.10   0.00     0.18   0.18  -0.00    -0.14   0.02   0.00
   3   6    -0.03   0.04  -0.10    -0.01   0.05  -0.14    -0.03   0.02   0.06
   4   1    -0.02   0.01  -0.02    -0.00   0.01  -0.04     0.01   0.02   0.03
   5   6    -0.14   0.00  -0.07    -0.16  -0.03  -0.07    -0.19   0.11  -0.00
   6   7    -0.01   0.05  -0.30     0.01   0.01  -0.19     0.03  -0.07   0.06
   7   6    -0.04  -0.02  -0.04    -0.01  -0.05   0.07     0.10   0.04   0.01
   8   8    -0.12  -0.12   0.50    -0.01  -0.06   0.11     0.26   0.05  -0.05
   9   6    -0.02  -0.00  -0.23    -0.02  -0.06   0.15     0.10   0.08   0.04
  10   6    -0.02  -0.02  -0.13    -0.04  -0.06   0.17     0.02   0.09   0.01
  11   7    -0.00   0.03  -0.25    -0.06  -0.15   0.50    -0.05   0.00  -0.07
  12   6    -0.01  -0.00  -0.07    -0.02  -0.05   0.05    -0.01  -0.05  -0.02
  13   8    -0.03  -0.11   0.33    -0.03  -0.02  -0.15    -0.04  -0.09  -0.04
  14   6    -0.02  -0.14   0.26    -0.04   0.07  -0.30    -0.14   0.31   0.08
  15  35     0.05   0.07   0.02     0.00  -0.00   0.03     0.15  -0.27  -0.05
  16   1     0.06   0.01  -0.02     0.12   0.07   0.01    -0.15  -0.12  -0.10
  17   1     0.03   0.02  -0.04    -0.05   0.02  -0.04     0.15   0.09  -0.05
  18   1     0.05   0.00  -0.04     0.10  -0.02  -0.14    -0.12   0.08   0.20
  19   1     0.02   0.05   0.05     0.02   0.09   0.08    -0.03  -0.01  -0.03
  20   1     0.09   0.03  -0.00     0.13   0.06  -0.00    -0.08   0.00   0.00
  21   1    -0.19   0.05  -0.08    -0.20   0.03  -0.09    -0.35   0.16  -0.10
  22   1     0.08   0.06  -0.07     0.08   0.05  -0.07     0.20   0.14  -0.14
  23   1    -0.04  -0.11   0.10    -0.06  -0.12   0.12    -0.06  -0.19   0.23
  24   1     0.00  -0.01  -0.01    -0.02  -0.04   0.15    -0.03   0.00  -0.03
  25   1     0.05  -0.00   0.11    -0.07  -0.03  -0.13    -0.04   0.16   0.01
  26   1    -0.07  -0.10   0.09     0.06   0.11  -0.10    -0.01   0.09   0.01
  27   1     0.01  -0.04   0.13    -0.03   0.02  -0.16    -0.11   0.07   0.06
                     10                     11                     12
                        a                      a                      a 
 Frequencies --   221.0567               232.6859               251.5670
 Red. masses --    25.3998                10.8160                11.3703
 Frc consts  --     0.0000                 0.0000                 0.0000
 IR Inten    --     3.1348                 3.5423                 0.6085
 Raman Activ --     0.0000                 0.0000                 0.0000
 Depolar     --     0.0000                 0.0000                 0.0000
 Atom AN      X      Y      Z        X      Y      Z        X      Y      Z
   1   6    -0.07  -0.03  -0.02    -0.04  -0.12  -0.12     0.09   0.05  -0.27
   2   6    -0.04  -0.02  -0.04     0.05   0.02   0.01     0.06   0.18   0.01
   3   6     0.03  -0.04  -0.01    -0.00  -0.00  -0.03     0.01   0.06  -0.04
   4   1     0.01  -0.02  -0.03    -0.02  -0.02  -0.03     0.03   0.02  -0.04
   5   6     0.03  -0.19   0.10    -0.07  -0.27   0.19    -0.12  -0.09   0.10
   6   7     0.03  -0.03  -0.01    -0.03   0.15  -0.18     0.04  -0.04   0.01
   7   6     0.01  -0.02  -0.04    -0.04   0.11  -0.10     0.01  -0.08   0.22
   8   8     0.15  -0.02  -0.10    -0.20   0.10   0.07     0.04  -0.04  -0.06
   9   6    -0.05   0.01  -0.01     0.03   0.06  -0.23    -0.02  -0.12   0.59
  10   6     0.09  -0.02   0.01    -0.00   0.02  -0.02    -0.01  -0.02   0.14
  11   7     0.12   0.01   0.06    -0.01  -0.02   0.23     0.01   0.08  -0.35
  12   6     0.12  -0.01   0.01    -0.04   0.09   0.01     0.02  -0.02  -0.05
  13   8     0.16   0.02   0.00    -0.01   0.16   0.03    -0.01  -0.11   0.10
  14   6     0.29  -0.29  -0.07    -0.05   0.10  -0.03    -0.02   0.03   0.03
  15  35    -0.39   0.32   0.06     0.19  -0.13   0.04    -0.05   0.04  -0.12
  16   1    -0.13  -0.14  -0.13    -0.19  -0.26  -0.23    -0.02  -0.12  -0.16
  17   1     0.16   0.07  -0.07     0.25   0.10  -0.16     0.12   0.10  -0.17
  18   1    -0.09   0.04   0.18    -0.12   0.02   0.26    -0.01   0.03   0.03
  19   1    -0.00  -0.01  -0.04     0.01   0.03   0.00    -0.00   0.09   0.05
  20   1    -0.03  -0.01  -0.01     0.04  -0.01   0.03     0.08   0.04   0.02
  21   1    -0.20  -0.01  -0.06     0.12  -0.21   0.07     0.07  -0.12   0.04
  22   1     0.20   0.04  -0.02    -0.16  -0.13   0.16    -0.15  -0.08   0.09
  23   1     0.01  -0.24   0.20    -0.03   0.04  -0.02    -0.05   0.08  -0.03
  24   1     0.03   0.00   0.02     0.01  -0.02   0.11    -0.00   0.03  -0.15
  25   1     0.07  -0.17  -0.02    -0.02   0.05  -0.02    -0.01  -0.00   0.00
  26   1     0.06  -0.09  -0.01     0.00   0.03  -0.02     0.01   0.04   0.01
  27   1     0.17  -0.06  -0.06    -0.03   0.02   0.00    -0.02   0.01  -0.02
                     13                     14                     15
                        a                      a                      a 
 Frequencies --   261.8185               281.0884               294.8070
 Red. masses --    15.5313                10.7822                10.6561
 Frc consts  --     0.0000                 0.0000                 0.0000
 IR Inten    --     7.9658                 4.5375                 3.5126
 Raman Activ --     0.0000                 0.0000                 0.0000
 Depolar     --     0.0000                 0.0000                 0.0000
 Atom AN      X      Y      Z        X      Y      Z        X      Y      Z
   1   6    -0.09  -0.03   0.14    -0.14  -0.12   0.34     0.10   0.14  -0.26
   2   6     0.19   0.16   0.16     0.28   0.04   0.10    -0.01   0.27   0.14
   3   6     0.09   0.04   0.05     0.13  -0.07  -0.06     0.01   0.10   0.12
   4   1     0.04   0.03   0.06    -0.02  -0.05   0.00     0.02   0.02  -0.02
   5   6    -0.07   0.29  -0.14     0.28   0.06  -0.19     0.39   0.10   0.14
   6   7     0.16  -0.12  -0.11     0.01   0.15  -0.19    -0.02  -0.05   0.32
   7   6     0.12  -0.11  -0.07    -0.07   0.03   0.01    -0.04  -0.06  -0.03
   8   8     0.22  -0.16   0.08    -0.27   0.06  -0.15    -0.01  -0.07  -0.09
   9   6     0.02   0.04  -0.17    -0.05  -0.10   0.26    -0.06  -0.03  -0.22
  10   6     0.01   0.01  -0.04    -0.10  -0.06   0.09    -0.15  -0.06  -0.12
  11   7    -0.01  -0.06   0.10    -0.06   0.06  -0.07    -0.12  -0.00   0.01
  12   6     0.08  -0.14  -0.04    -0.09   0.10  -0.05    -0.11  -0.01   0.09
  13   8     0.01  -0.30  -0.12    -0.14   0.03   0.08    -0.19  -0.08  -0.12
  14   6    -0.02   0.05   0.00    -0.05  -0.09  -0.05    -0.12  -0.16  -0.01
  15  35    -0.28   0.11   0.04     0.11  -0.04  -0.05     0.09  -0.05   0.02
  16   1    -0.15  -0.09  -0.07    -0.19  -0.03   0.01     0.04  -0.09  -0.12
  17   1     0.07   0.05  -0.02     0.02  -0.02   0.09     0.07   0.13  -0.18
  18   1    -0.07  -0.04   0.20    -0.07  -0.09   0.25     0.01   0.05  -0.04
  19   1     0.02   0.12   0.08     0.05   0.09   0.07    -0.03   0.12   0.09
  20   1     0.14   0.06   0.04     0.16   0.05  -0.00     0.08   0.07   0.05
  21   1     0.16   0.07   0.05    -0.02   0.12  -0.06     0.07   0.10   0.05
  22   1    -0.20  -0.02  -0.04     0.19   0.06  -0.13     0.21   0.08   0.03
  23   1    -0.03   0.27  -0.18     0.09  -0.09  -0.01     0.14  -0.09   0.02
  24   1    -0.02  -0.02   0.05     0.01   0.02  -0.01    -0.01   0.01  -0.02
  25   1     0.00   0.03   0.00    -0.04  -0.06  -0.03    -0.02  -0.05   0.01
  26   1    -0.01   0.02   0.00     0.00  -0.01  -0.02    -0.06  -0.08   0.00
  27   1    -0.02   0.01   0.01     0.00  -0.02  -0.04    -0.01  -0.04   0.01
                     16                     17                     18
                        a                      a                      a 
 Frequencies --   340.9394               407.9588               431.8393
 Red. masses --    15.5838                12.6277                10.9096
 Frc consts  --     0.0000                 0.0000                 0.0000
 IR Inten    --     0.3560                21.4525                20.0382
 Raman Activ --     0.0000                 0.0000                 0.0000
 Depolar     --     0.0000                 0.0000                 0.0000
 Atom AN      X      Y      Z        X      Y      Z        X      Y      Z
   1   6    -0.02  -0.01   0.01     0.00   0.01  -0.01    -0.02  -0.04  -0.03
   2   6    -0.03  -0.03  -0.01     0.16   0.01  -0.18    -0.11  -0.11  -0.07
   3   6    -0.03   0.02   0.01     0.33  -0.02  -0.07     0.09   0.27   0.18
   4   1    -0.01   0.01   0.01     0.12   0.01  -0.04     0.01   0.07   0.07
   5   6    -0.16   0.05  -0.00    -0.16  -0.10  -0.03     0.13   0.17   0.38
   6   7    -0.01   0.07  -0.05     0.21  -0.01   0.39     0.20   0.15  -0.34
   7   6     0.07   0.17   0.04     0.06  -0.01   0.10     0.03  -0.07  -0.15
   8   8     0.27   0.19   0.09    -0.48   0.03  -0.06    -0.17  -0.12  -0.00
   9   6     0.02   0.18   0.06     0.06   0.05  -0.09    -0.01  -0.06   0.05
  10   6    -0.10   0.17   0.06     0.03   0.09  -0.12    -0.03  -0.07   0.15
  11   7    -0.18   0.19   0.05     0.04   0.15   0.03     0.05   0.12   0.02
  12   6    -0.16   0.06  -0.01     0.07   0.02   0.15     0.12   0.07  -0.14
  13   8    -0.39  -0.23  -0.07    -0.13  -0.28  -0.14    -0.09  -0.34  -0.04
  14   6     0.25  -0.33  -0.07     0.06   0.05   0.04    -0.06   0.03  -0.02
  15  35     0.19  -0.15  -0.03    -0.06   0.01   0.01    -0.03   0.01  -0.01
  16   1    -0.00   0.00   0.01    -0.03   0.06  -0.00     0.02   0.02   0.02
  17   1    -0.00  -0.01   0.01    -0.01  -0.03   0.03    -0.03  -0.04   0.02
  18   1    -0.01   0.00  -0.00     0.00  -0.02   0.01     0.00   0.01  -0.05
  19   1    -0.00  -0.02  -0.02     0.05   0.01  -0.09     0.03  -0.12  -0.18
  20   1    -0.03  -0.01   0.00     0.02   0.01  -0.06    -0.21  -0.09   0.03
  21   1    -0.00  -0.02   0.01    -0.15  -0.08  -0.09     0.02   0.02   0.08
  22   1    -0.11  -0.02   0.01    -0.08  -0.06  -0.06     0.07   0.08   0.16
  23   1    -0.06   0.08  -0.02    -0.10   0.04   0.15     0.05  -0.01   0.13
  24   1    -0.05   0.05   0.02     0.03   0.05  -0.05     0.03   0.01   0.08
  25   1     0.03  -0.23  -0.04     0.04   0.04   0.03    -0.05   0.00  -0.03
  26   1     0.05  -0.16  -0.03    -0.02  -0.02   0.02     0.03   0.06  -0.02
  27   1     0.25  -0.05  -0.03     0.02   0.01   0.04    -0.05   0.01  -0.04
                     19                     20                     21
                        a                      a                      a 
 Frequencies --   451.1163               512.7723               563.7290
 Red. masses --    11.9147                10.6784                14.5006
 Frc consts  --     0.0000                 0.0000                 0.0000
 IR Inten    --     0.9802                 0.1237                15.3030
 Raman Activ --     0.0000                 0.0000                 0.0000
 Depolar     --     0.0000                 0.0000                 0.0000
 Atom AN      X      Y      Z        X      Y      Z        X      Y      Z
   1   6    -0.02  -0.05   0.04    -0.00   0.02  -0.02     0.00   0.00   0.00
   2   6     0.17  -0.04  -0.19     0.01   0.02  -0.01    -0.08  -0.01   0.09
   3   6     0.24   0.15  -0.05     0.08  -0.07  -0.00    -0.09  -0.10  -0.01
   4   1     0.07   0.05   0.00     0.03  -0.01  -0.01    -0.03  -0.03  -0.01
   5   6    -0.11   0.02   0.09    -0.04  -0.04  -0.06     0.01  -0.08  -0.10
   6   7     0.17   0.08   0.07     0.02  -0.04   0.19     0.02  -0.07  -0.03
   7   6     0.10  -0.15   0.03     0.04   0.03  -0.16    -0.08  -0.30  -0.06
   8   8     0.36  -0.18  -0.02    -0.00  -0.01   0.08    -0.05  -0.38  -0.07
   9   6    -0.05  -0.10  -0.02     0.03   0.07  -0.34    -0.29   0.20   0.01
  10   6    -0.27  -0.10  -0.12    -0.06  -0.16   0.71    -0.15   0.29   0.05
  11   7    -0.11   0.10   0.03    -0.01   0.08  -0.28    -0.03   0.53   0.14
  12   6    -0.07   0.16   0.08    -0.02   0.03  -0.04     0.18   0.06  -0.01
  13   8     0.02   0.37   0.08     0.01   0.06   0.05     0.19   0.02   0.02
  14   6    -0.33  -0.19  -0.04    -0.03  -0.02  -0.03     0.05   0.08   0.02
  15  35    -0.02  -0.02  -0.00    -0.01   0.00   0.01     0.12  -0.10  -0.02
  16   1    -0.06   0.06   0.01     0.00  -0.00  -0.01     0.03  -0.03   0.01
  17   1    -0.01  -0.06   0.07     0.00   0.01  -0.01     0.00   0.02  -0.02
  18   1    -0.01  -0.04   0.05    -0.00   0.01  -0.00     0.00   0.02  -0.02
  19   1     0.07  -0.03  -0.12    -0.00   0.02   0.01    -0.04   0.01   0.06
  20   1    -0.02  -0.03  -0.04     0.03   0.02  -0.01     0.01   0.01   0.01
  21   1    -0.06  -0.09  -0.04    -0.02  -0.01  -0.02     0.01   0.01  -0.01
  22   1    -0.08  -0.01   0.06    -0.03  -0.03  -0.05     0.01  -0.02  -0.05
  23   1    -0.06   0.06   0.11    -0.03   0.03   0.01     0.01  -0.03  -0.06
  24   1     0.02   0.03  -0.01    -0.00   0.00  -0.00    -0.07   0.13   0.05
  25   1    -0.08  -0.05   0.00    -0.17  -0.11  -0.13    -0.01  -0.03  -0.00
  26   1    -0.12  -0.08  -0.01     0.19   0.16  -0.06     0.00  -0.02  -0.00
  27   1    -0.08  -0.05   0.00    -0.02   0.00  -0.13     0.09   0.04   0.01
                     22                     23                     24
                        a                      a                      a 
 Frequencies --   588.4075               617.9382               638.1416
 Red. masses --     9.8302                 3.3785                11.5661
 Frc consts  --     0.0000                 0.0000                 0.0000
 IR Inten    --     3.4744                99.4300                18.1781
 Raman Activ --     0.0000                 0.0000                 0.0000
 Depolar     --     0.0000                 0.0000                 0.0000
 Atom AN      X      Y      Z        X      Y      Z        X      Y      Z
   1   6     0.05  -0.11   0.09    -0.01   0.01  -0.01     0.01  -0.01  -0.00
   2   6     0.27  -0.03  -0.22    -0.03   0.00   0.03     0.10   0.01  -0.10
   3   6    -0.30   0.36  -0.25     0.04  -0.03   0.04     0.00   0.11  -0.02
   4   1    -0.09   0.11  -0.03     0.01  -0.01   0.01     0.03   0.06   0.02
   5   6     0.00   0.07   0.10     0.01   0.01   0.02     0.04   0.10   0.13
   6   7    -0.23  -0.03   0.13     0.05  -0.01  -0.15     0.00  -0.21  -0.01
   7   6    -0.24  -0.06   0.03     0.08   0.05  -0.16     0.12   0.12   0.03
   8   8     0.12  -0.07  -0.02    -0.07   0.02   0.07    -0.21   0.18   0.01
   9   6    -0.17   0.02  -0.11     0.03   0.04   0.01     0.01   0.21   0.06
  10   6     0.10  -0.01   0.09    -0.06   0.04   0.08    -0.21   0.22   0.03
  11   7     0.06   0.01  -0.04    -0.07  -0.07   0.21    -0.26  -0.12  -0.11
  12   6     0.03  -0.05   0.16    -0.01  -0.12   0.15     0.04  -0.42  -0.06
  13   8    -0.04  -0.13  -0.08     0.09   0.04  -0.00     0.42   0.05   0.01
  14   6     0.12   0.09   0.03    -0.04  -0.03  -0.01    -0.10  -0.09  -0.03
  15  35     0.06  -0.02   0.00    -0.01  -0.00  -0.01     0.03  -0.04  -0.01
  16   1    -0.13   0.10  -0.01     0.02  -0.01   0.00    -0.05   0.05  -0.01
  17   1     0.02  -0.11   0.13    -0.00   0.01  -0.02     0.00  -0.03   0.03
  18   1    -0.00  -0.09   0.14    -0.00   0.01  -0.02     0.00  -0.03   0.03
  19   1     0.05  -0.01   0.03    -0.00  -0.01  -0.02     0.03  -0.01  -0.04
  20   1     0.12  -0.03  -0.03    -0.03  -0.00   0.01     0.01  -0.01  -0.01
  21   1     0.04  -0.11  -0.02     0.00   0.02   0.01     0.01  -0.01   0.02
  22   1     0.04   0.10   0.24     0.00  -0.00  -0.01     0.03   0.06   0.10
  23   1     0.03  -0.10   0.01     0.00   0.01   0.00     0.02  -0.01   0.04
  24   1     0.01   0.04  -0.16    -0.02   0.20  -0.87    -0.25  -0.08   0.16
  25   1     0.03   0.04   0.00    -0.02  -0.04  -0.00    -0.07  -0.12  -0.02
  26   1     0.05   0.06   0.01    -0.02  -0.02  -0.00    -0.04  -0.10  -0.03
  27   1     0.00   0.02  -0.00     0.02  -0.00   0.00     0.10   0.00  -0.00
                     25                     26                     27
                        a                      a                      a 
 Frequencies --   648.8633               673.7912               689.8490
 Red. masses --    12.6281                12.0272                12.5097
 Frc consts  --     0.0000                 0.0000                 0.0000
 IR Inten    --     7.8569                 9.8607                94.8240
 Raman Activ --     0.0000                 0.0000                 0.0000
 Depolar     --     0.0000                 0.0000                 0.0000
 Atom AN      X      Y      Z        X      Y      Z        X      Y      Z
   1   6    -0.00   0.02  -0.02    -0.00  -0.01   0.01     0.01  -0.00  -0.00
   2   6     0.05   0.02  -0.04    -0.02  -0.00   0.02     0.05  -0.01  -0.07
   3   6     0.11   0.03   0.05    -0.02  -0.01  -0.01    -0.01   0.03  -0.03
   4   1     0.03   0.01   0.02    -0.01  -0.00  -0.01     0.00   0.02   0.00
   5   6     0.03   0.07   0.10    -0.01  -0.02  -0.03    -0.00   0.01   0.01
   6   7     0.04  -0.08  -0.07     0.01   0.02   0.01    -0.06  -0.10   0.39
   7   6     0.12  -0.25  -0.07     0.04   0.11  -0.62     0.01   0.09  -0.53
   8   8    -0.10  -0.34  -0.06     0.00  -0.03   0.20     0.00  -0.04   0.16
   9   6     0.08   0.06   0.02    -0.00  -0.08   0.27    -0.02  -0.05   0.24
  10   6     0.13   0.16   0.03     0.00  -0.01  -0.06     0.01   0.02  -0.08
  11   7    -0.20  -0.22  -0.08     0.04   0.09  -0.18    -0.02  -0.06   0.21
  12   6    -0.36  -0.04   0.01    -0.01  -0.10   0.58     0.01   0.14  -0.58
  13   8    -0.25   0.34   0.06    -0.01   0.04  -0.21    -0.01  -0.03   0.18
  14   6     0.40   0.21   0.06    -0.01  -0.01  -0.01     0.02   0.01  -0.01
  15  35    -0.03   0.00  -0.00    -0.00   0.00  -0.01     0.00  -0.00  -0.00
  16   1    -0.01   0.02  -0.01     0.00  -0.01   0.00    -0.03   0.03  -0.01
  17   1    -0.01  -0.00   0.00     0.01   0.00  -0.00     0.02  -0.02   0.03
  18   1     0.00  -0.01   0.00    -0.00   0.00  -0.00    -0.01   0.01   0.02
  19   1     0.03  -0.01  -0.06    -0.01   0.00   0.01    -0.00   0.03   0.02
  20   1    -0.03  -0.01  -0.00     0.00   0.00   0.00     0.07   0.00  -0.02
  21   1    -0.00   0.02   0.02    -0.00  -0.00  -0.01    -0.01  -0.03  -0.02
  22   1     0.01   0.02   0.02    -0.01  -0.01  -0.01    -0.01   0.01   0.03
  23   1     0.01   0.02   0.04    -0.00  -0.00  -0.01    -0.00   0.00   0.02
  24   1    -0.09  -0.07   0.01     0.02  -0.03   0.19    -0.01   0.01  -0.04
  25   1     0.10   0.03   0.01     0.00   0.01   0.00     0.01   0.01   0.00
  26   1     0.11   0.04   0.01    -0.01   0.00  -0.00    -0.00  -0.00   0.00
  27   1     0.16   0.07   0.02    -0.02  -0.00  -0.00     0.01   0.00   0.00
                     28                     29                     30
                        a                      a                      a 
 Frequencies --   768.4295               816.5877               877.7813
 Red. masses --    10.4947                 3.6928                 8.0393
 Frc consts  --     0.0000                 0.0000                 0.0000
 IR Inten    --    30.5345                11.3457                 2.1114
 Raman Activ --     0.0000                 0.0000                 0.0000
 Depolar     --     0.0000                 0.0000                 0.0000
 Atom AN      X      Y      Z        X      Y      Z        X      Y      Z
   1   6     0.03  -0.11   0.06     0.09   0.01   0.11    -0.03   0.22  -0.20
   2   6    -0.17  -0.09   0.05     0.11   0.21   0.22     0.30  -0.03  -0.25
   3   6    -0.35   0.16  -0.18    -0.13   0.14  -0.08    -0.27  -0.32   0.21
   4   1    -0.04   0.09  -0.01    -0.02   0.03  -0.05    -0.11  -0.11   0.08
   5   6    -0.04  -0.03  -0.11    -0.05  -0.11  -0.16    -0.11  -0.01   0.22
   6   7     0.20   0.00   0.04     0.02  -0.01   0.09    -0.05  -0.06  -0.02
   7   6     0.44  -0.07   0.04     0.09  -0.01  -0.02     0.13  -0.02   0.01
   8   8    -0.16  -0.08  -0.04    -0.03  -0.03   0.00    -0.04  -0.02  -0.01
   9   6     0.45  -0.03  -0.00     0.10  -0.00   0.01     0.19  -0.03   0.00
  10   6    -0.05   0.00   0.00    -0.01   0.01   0.00    -0.00  -0.02  -0.00
  11   7     0.01   0.11   0.02    -0.00   0.01   0.01     0.07   0.15   0.04
  12   6    -0.02   0.06  -0.00    -0.00   0.01  -0.03     0.00   0.03   0.02
  13   8    -0.08   0.04   0.01    -0.01   0.00   0.01    -0.03   0.02   0.00
  14   6    -0.09  -0.05  -0.01    -0.02  -0.01  -0.00    -0.04  -0.03  -0.01
  15  35    -0.09   0.03   0.00    -0.02   0.01   0.00    -0.03   0.01   0.00
  16   1     0.05  -0.02   0.05    -0.07  -0.11  -0.08    -0.22   0.24  -0.11
  17   1     0.10  -0.07   0.08    -0.26   0.16  -0.21    -0.06  -0.02   0.04
  18   1    -0.02   0.09   0.00     0.12  -0.39   0.07    -0.01  -0.07   0.08
  19   1    -0.12   0.08   0.18     0.20  -0.37  -0.14     0.09  -0.07  -0.04
  20   1     0.15  -0.03   0.04    -0.44   0.07  -0.01     0.04   0.00  -0.08
  21   1     0.05  -0.08  -0.03     0.03  -0.04  -0.03     0.05   0.27   0.24
  22   1     0.06   0.08   0.16     0.03   0.01   0.01     0.06   0.01  -0.09
  23   1     0.04  -0.17  -0.11     0.02  -0.10  -0.11     0.03  -0.04  -0.16
  24   1     0.06   0.03   0.01     0.01   0.00   0.00     0.06   0.04   0.01
  25   1    -0.03  -0.03  -0.01    -0.01  -0.01  -0.00    -0.01   0.00  -0.00
  26   1    -0.03  -0.03  -0.01    -0.01  -0.01  -0.00    -0.01  -0.00  -0.00
  27   1     0.01  -0.01  -0.00     0.01   0.00   0.00    -0.02  -0.01  -0.00
                     31                     32                     33
                        a                      a                      a 
 Frequencies --   990.3962              1000.7264              1011.2753
 Red. masses --     5.6209                 6.2196                 4.5873
 Frc consts  --     0.0000                 0.0000                 0.0000
 IR Inten    --    18.2736                11.4846                10.2628
 Raman Activ --     0.0000                 0.0000                 0.0000
 Depolar     --     0.0000                 0.0000                 0.0000
 Atom AN      X      Y      Z        X      Y      Z        X      Y      Z
   1   6    -0.00   0.01  -0.04    -0.10   0.07  -0.17     0.00   0.00   0.00
   2   6     0.01  -0.00   0.01     0.14  -0.01   0.13    -0.01  -0.00  -0.00
   3   6    -0.02   0.04   0.04     0.08   0.14   0.26    -0.01  -0.01  -0.01
   4   1    -0.04  -0.03  -0.02     0.03   0.09   0.23    -0.00  -0.00  -0.01
   5   6     0.01  -0.07  -0.02    -0.21  -0.20  -0.29     0.01   0.01   0.01
   6   7    -0.04   0.17   0.04     0.20   0.05   0.04    -0.01   0.00  -0.01
   7   6    -0.04  -0.05  -0.02    -0.03   0.02  -0.00    -0.01  -0.01   0.03
   8   8     0.01  -0.11  -0.02     0.00   0.04   0.01     0.00  -0.00  -0.01
   9   6     0.00   0.08   0.02    -0.21   0.04   0.00     0.03  -0.02   0.03
  10   6     0.01   0.12   0.04     0.01   0.00  -0.02    -0.00   0.07  -0.35
  11   7     0.18  -0.30  -0.07    -0.05  -0.12  -0.03    -0.01  -0.00   0.03
  12   6     0.07   0.12   0.03     0.00   0.02   0.01     0.01   0.00   0.02
  13   8    -0.01  -0.07  -0.02    -0.01  -0.00  -0.00     0.01  -0.00  -0.00
  14   6    -0.28   0.26   0.04     0.04  -0.02   0.02    -0.02  -0.08   0.43
  15  35    -0.00  -0.00  -0.00     0.02  -0.01  -0.00    -0.00   0.00  -0.00
  16   1    -0.03   0.05  -0.01    -0.04   0.15   0.00    -0.00  -0.00  -0.00
  17   1     0.01  -0.03   0.03     0.08  -0.09   0.10    -0.01   0.00  -0.00
  18   1    -0.01   0.02   0.01    -0.08   0.17  -0.02     0.00  -0.01   0.00
  19   1     0.00  -0.00  -0.00     0.06   0.07  -0.18    -0.00  -0.01   0.01
  20   1    -0.00  -0.03   0.04    -0.05  -0.17   0.23     0.00   0.01  -0.01
  21   1    -0.01   0.03   0.01     0.11  -0.05   0.01    -0.01  -0.00  -0.01
  22   1    -0.01  -0.04  -0.08     0.12   0.09   0.12    -0.01  -0.01  -0.00
  23   1    -0.01   0.02  -0.00     0.07  -0.32  -0.32    -0.00   0.02   0.02
  24   1     0.21  -0.08  -0.01    -0.04  -0.03  -0.01     0.00   0.01  -0.02
  25   1    -0.20  -0.35  -0.04     0.00   0.02  -0.01    -0.42  -0.20  -0.23
  26   1    -0.11  -0.28  -0.10     0.04   0.04   0.01     0.49   0.31  -0.06
  27   1     0.49   0.19   0.05    -0.05  -0.02  -0.02    -0.02   0.01  -0.25
                     34                     35                     36
                        a                      a                      a 
 Frequencies --  1020.2041              1035.9730              1047.8207
 Red. masses --     4.7457                 5.5347                10.0878
 Frc consts  --     0.0000                 0.0000                 0.0000
 IR Inten    --     4.8954                31.0413                18.0485
 Raman Activ --     0.0000                 0.0000                 0.0000
 Depolar     --     0.0000                 0.0000                 0.0000
 Atom AN      X      Y      Z        X      Y      Z        X      Y      Z
   1   6    -0.16   0.29  -0.01     0.03   0.17  -0.26     0.06   0.08  -0.06
   2   6     0.13  -0.28   0.02    -0.03  -0.12   0.22    -0.09  -0.08   0.03
   3   6     0.07  -0.20   0.04    -0.04   0.13   0.12    -0.07  -0.02  -0.03
   4   1    -0.09  -0.01   0.36    -0.07  -0.02  -0.00    -0.01  -0.01  -0.04
   5   6     0.02   0.23  -0.12     0.24  -0.06  -0.17     0.06   0.03   0.01
   6   7    -0.05  -0.06  -0.03    -0.10   0.11  -0.01     0.12   0.05   0.00
   7   6    -0.02   0.01   0.01    -0.03  -0.02  -0.00     0.30  -0.05   0.01
   8   8    -0.01  -0.00  -0.01     0.03  -0.03  -0.00    -0.06  -0.03  -0.01
   9   6     0.03  -0.01  -0.00     0.20  -0.10  -0.01    -0.40   0.39   0.07
  10   6     0.01  -0.00   0.00    -0.06  -0.04  -0.00     0.19   0.20   0.04
  11   7     0.04   0.03   0.01    -0.12   0.06   0.01     0.27  -0.22  -0.04
  12   6     0.00   0.02   0.02     0.03  -0.04  -0.01    -0.08  -0.01  -0.01
  13   8    -0.02   0.01  -0.00     0.07  -0.04  -0.01    -0.12   0.03   0.00
  14   6    -0.04   0.04   0.00     0.07   0.02  -0.00    -0.14  -0.24  -0.05
  15  35    -0.00   0.00   0.00    -0.02   0.01   0.00     0.03  -0.03  -0.00
  16   1     0.02  -0.10  -0.04    -0.26   0.33  -0.11    -0.12   0.10  -0.07
  17   1    -0.14   0.21  -0.18    -0.02  -0.12   0.13    -0.06  -0.01   0.02
  18   1     0.00  -0.00  -0.08    -0.03  -0.05   0.14     0.02  -0.10   0.08
  19   1     0.01  -0.07   0.10    -0.00  -0.14   0.17    -0.04  -0.10   0.18
  20   1     0.10   0.08  -0.17    -0.01  -0.16   0.21     0.04  -0.00  -0.01
  21   1     0.03  -0.33  -0.21    -0.10  -0.17  -0.21    -0.03  -0.03  -0.04
  22   1    -0.01   0.15   0.37    -0.12  -0.13  -0.10    -0.03  -0.02  -0.01
  23   1     0.00  -0.10   0.12    -0.06   0.18   0.24    -0.02   0.06   0.08
  24   1     0.06   0.01   0.01    -0.12   0.01  -0.00     0.12  -0.06  -0.01
  25   1    -0.02  -0.04  -0.00     0.04   0.03   0.01    -0.01   0.05  -0.01
  26   1    -0.02  -0.04  -0.01     0.01   0.02   0.01    -0.02   0.05   0.02
  27   1     0.07   0.03   0.01     0.00   0.00   0.01    -0.27  -0.11  -0.03
                     37                     38                     39
                        a                      a                      a 
 Frequencies --  1082.7888              1092.9283              1127.5125
 Red. masses --     7.6692                 9.6770                 9.9696
 Frc consts  --     0.0000                 0.0000                 0.0000
 IR Inten    --    15.1516                13.5295                10.6794
 Raman Activ --     0.0000                 0.0000                 0.0000
 Depolar     --     0.0000                 0.0000                 0.0000
 Atom AN      X      Y      Z        X      Y      Z        X      Y      Z
   1   6    -0.22  -0.03   0.03    -0.11   0.11   0.09    -0.17   0.06  -0.00
   2   6     0.30   0.05   0.04     0.08  -0.19  -0.10     0.18  -0.09   0.07
   3   6    -0.06   0.13   0.05    -0.18   0.06  -0.02    -0.16   0.09  -0.09
   4   1    -0.19  -0.08   0.06    -0.16  -0.06   0.02    -0.09  -0.02  -0.04
   5   6     0.11  -0.07  -0.05    -0.01  -0.10   0.05     0.08  -0.04   0.04
   6   7    -0.38   0.03   0.02     0.21   0.54   0.16     0.07  -0.00   0.03
   7   6     0.09  -0.07  -0.00     0.03  -0.05  -0.01     0.38   0.03   0.03
   8   8    -0.02  -0.15  -0.02     0.04  -0.08  -0.01    -0.01   0.17   0.03
   9   6     0.23   0.18   0.04    -0.04  -0.02  -0.01    -0.39  -0.25  -0.07
  10   6     0.13   0.15   0.03    -0.08   0.02   0.00    -0.22  -0.16  -0.04
  11   7     0.13   0.02   0.01    -0.22  -0.23  -0.06     0.11   0.14   0.04
  12   6    -0.01  -0.05  -0.01     0.13   0.08   0.02    -0.18  -0.26  -0.07
  13   8    -0.02  -0.03  -0.01     0.13  -0.12  -0.02     0.02   0.03   0.01
  14   6    -0.12  -0.18  -0.04     0.11  -0.01  -0.00     0.14   0.19   0.05
  15  35    -0.01   0.00  -0.00     0.00  -0.00  -0.00     0.01  -0.00  -0.00
  16   1     0.19  -0.13   0.11     0.07  -0.13   0.02     0.07  -0.05   0.04
  17   1     0.09   0.05  -0.03    -0.07   0.15  -0.13     0.02   0.06  -0.04
  18   1    -0.07   0.25  -0.16     0.01   0.01  -0.08    -0.05   0.13  -0.09
  19   1     0.12   0.09  -0.30    -0.02  -0.03   0.10     0.06  -0.05  -0.03
  20   1    -0.08  -0.07   0.08     0.10   0.05  -0.13    -0.02  -0.07   0.06
  21   1    -0.05  -0.04  -0.07    -0.02   0.09   0.06    -0.04   0.03  -0.01
  22   1    -0.06  -0.09  -0.10    -0.01  -0.06  -0.13    -0.04  -0.07  -0.10
  23   1    -0.03   0.09   0.10    -0.01   0.03  -0.04    -0.02   0.10   0.06
  24   1    -0.04   0.00   0.00    -0.34  -0.07  -0.03     0.27   0.04   0.02
  25   1    -0.02   0.02  -0.01     0.05   0.05   0.01     0.03   0.01   0.01
  26   1    -0.03   0.02   0.01     0.02   0.04   0.02     0.05   0.02  -0.00
  27   1    -0.16  -0.08  -0.02    -0.05  -0.02  -0.00     0.14   0.07   0.01
                     40                     41                     42
                        a                      a                      a 
 Frequencies --  1152.4477              1182.0992              1197.7956
 Red. masses --     8.4304                 8.0229                 8.9782
 Frc consts  --     0.0000                 0.0000                 0.0000
 IR Inten    --    12.2715                16.1890                41.2348
 Raman Activ --     0.0000                 0.0000                 0.0000
 Depolar     --     0.0000                 0.0000                 0.0000
 Atom AN      X      Y      Z        X      Y      Z        X      Y      Z
   1   6    -0.21   0.24  -0.01    -0.15  -0.11  -0.18    -0.04  -0.05   0.03
   2   6     0.12  -0.36   0.19     0.14   0.14   0.29     0.09   0.08  -0.10
   3   6     0.15   0.22  -0.31    -0.10  -0.38  -0.35    -0.35  -0.01   0.13
   4   1     0.15   0.10  -0.16    -0.01  -0.13  -0.21     0.00   0.08   0.11
   5   6    -0.06  -0.08   0.15    -0.02   0.27   0.11     0.17  -0.05  -0.05
   6   7     0.05  -0.28  -0.04     0.18   0.08   0.07     0.37  -0.24  -0.04
   7   6    -0.21   0.03  -0.01    -0.06   0.01  -0.00    -0.26   0.02  -0.01
   8   8    -0.01   0.01   0.00     0.01  -0.01  -0.00    -0.01   0.03   0.01
   9   6     0.12   0.09   0.02    -0.02   0.01  -0.00     0.08   0.21   0.05
  10   6     0.09   0.02   0.01     0.02  -0.00  -0.00    -0.15   0.01   0.00
  11   7    -0.03   0.01   0.00    -0.05  -0.07  -0.02    -0.24  -0.15  -0.04
  12   6     0.02   0.09   0.02     0.07   0.11   0.03     0.08   0.18   0.05
  13   8    -0.04   0.04   0.01     0.01  -0.01   0.00     0.04   0.01   0.00
  14   6    -0.05  -0.04  -0.01     0.00   0.00   0.00     0.09  -0.05  -0.01
  15  35     0.00   0.00   0.00     0.00  -0.00  -0.00     0.01  -0.01  -0.00
  16   1     0.02  -0.04   0.00     0.04   0.09   0.05     0.05  -0.04   0.03
  17   1    -0.08   0.14  -0.10     0.15  -0.14   0.13     0.04   0.00  -0.01
  18   1    -0.04   0.08  -0.07    -0.11   0.22  -0.04    -0.01   0.04  -0.04
  19   1     0.02  -0.17   0.20     0.13  -0.19  -0.04     0.03   0.00  -0.05
  20   1     0.09  -0.17   0.15    -0.19   0.02   0.06    -0.03   0.04  -0.05
  21   1     0.02   0.19   0.16     0.01  -0.03  -0.01    -0.07  -0.05  -0.09
  22   1     0.06  -0.02  -0.14    -0.01   0.12   0.20    -0.07  -0.10  -0.08
  23   1     0.01   0.02  -0.11    -0.01   0.01   0.08    -0.02   0.10   0.13
  24   1     0.06   0.01   0.00    -0.13  -0.02  -0.01     0.46  -0.02   0.01
  25   1    -0.02  -0.01  -0.00    -0.00  -0.01  -0.00     0.04   0.09   0.00
  26   1    -0.02  -0.01  -0.00    -0.00  -0.01  -0.00     0.01   0.06   0.03
  27   1    -0.02  -0.01  -0.00    -0.00  -0.00   0.00    -0.03  -0.02  -0.00
                     43                     44                     45
                        a                      a                      a 
 Frequencies --  1216.3223              1267.6343              1299.3894
 Red. masses --     8.2039                 3.0461                10.7157
 Frc consts  --     0.0000                 0.0000                 0.0000
 IR Inten    --    15.1331                15.9611               308.7445
 Raman Activ --     0.0000                 0.0000                 0.0000
 Depolar     --     0.0000                 0.0000                 0.0000
 Atom AN      X      Y      Z        X      Y      Z        X      Y      Z
   1   6    -0.03  -0.02   0.03     0.14   0.18   0.13     0.05  -0.01  -0.02
   2   6     0.07   0.04  -0.08    -0.04  -0.12  -0.01    -0.04   0.00   0.09
   3   6    -0.27   0.03   0.10    -0.14  -0.18  -0.10     0.06   0.02  -0.19
   4   1     0.06   0.12   0.09    -0.03  -0.11  -0.21    -0.07   0.06   0.28
   5   6     0.13  -0.07  -0.03     0.02   0.13   0.02     0.04  -0.05   0.06
   6   7     0.31  -0.25  -0.05     0.11  -0.00   0.03    -0.26  -0.29  -0.07
   7   6    -0.06   0.04   0.00    -0.02   0.01  -0.00     0.36  -0.00   0.02
   8   8    -0.01   0.12   0.02    -0.00   0.00   0.00    -0.05   0.07   0.01
   9   6    -0.13  -0.12  -0.03    -0.01   0.01  -0.00    -0.16   0.01  -0.01
  10   6     0.38  -0.09  -0.01     0.00  -0.01  -0.00    -0.17  -0.10  -0.03
  11   7     0.11   0.12   0.03    -0.02  -0.02  -0.01    -0.10  -0.17  -0.05
  12   6     0.01   0.03   0.01     0.01   0.04   0.01     0.34   0.48   0.14
  13   8    -0.19   0.12   0.02     0.01   0.00   0.00    -0.05  -0.04  -0.01
  14   6    -0.16   0.05   0.00     0.00   0.00   0.00     0.08   0.04   0.01
  15  35     0.00   0.00   0.00     0.00  -0.00   0.00     0.01  -0.01  -0.00
  16   1     0.04  -0.03   0.02    -0.07  -0.05  -0.06    -0.03   0.04  -0.02
  17   1     0.02   0.02  -0.02    -0.16   0.13  -0.10    -0.01  -0.02   0.01
  18   1    -0.00   0.02  -0.03     0.09  -0.18   0.04     0.00  -0.01   0.03
  19   1     0.02  -0.01  -0.01    -0.06   0.42  -0.41    -0.00   0.07  -0.10
  20   1    -0.01   0.01  -0.02     0.07  -0.37   0.39    -0.02   0.02  -0.00
  21   1    -0.06  -0.03  -0.06    -0.01  -0.04  -0.04    -0.01   0.06   0.04
  22   1    -0.05  -0.09  -0.08    -0.03   0.03   0.08     0.01  -0.03  -0.05
  23   1    -0.02   0.08   0.09    -0.01   0.01   0.06    -0.01   0.07   0.02
  24   1    -0.52   0.02  -0.02    -0.02  -0.01  -0.00    -0.16  -0.04  -0.02
  25   1    -0.07  -0.15  -0.00    -0.00  -0.00  -0.00     0.04   0.03   0.01
  26   1    -0.04  -0.12  -0.05    -0.00  -0.00  -0.00     0.03   0.03   0.00
  27   1     0.05   0.03   0.00     0.00   0.00  -0.00     0.05   0.02   0.01
                     46                     47                     48
                        a                      a                      a 
 Frequencies --  1305.9059              1347.2706              1366.9037
 Red. masses --     6.0991                 4.3520                 3.8961
 Frc consts  --     0.0000                 0.0000                 0.0000
 IR Inten    --    75.5122                 7.7151                14.0092
 Raman Activ --     0.0000                 0.0000                 0.0000
 Depolar     --     0.0000                 0.0000                 0.0000
 Atom AN      X      Y      Z        X      Y      Z        X      Y      Z
   1   6     0.10  -0.01  -0.07    -0.08   0.04   0.08    -0.02   0.00   0.01
   2   6    -0.13  -0.03   0.20    -0.04   0.34  -0.33    -0.06   0.09  -0.11
   3   6     0.06   0.01  -0.42     0.04  -0.17  -0.12     0.18   0.19   0.08
   4   1    -0.30  -0.00   0.56     0.01   0.08   0.34    -0.64  -0.51  -0.14
   5   6     0.03  -0.09   0.13     0.02  -0.04  -0.01    -0.06   0.08   0.01
   6   7     0.19   0.09   0.08    -0.03   0.08   0.01     0.15  -0.23  -0.01
   7   6    -0.18   0.00  -0.01    -0.00   0.01  -0.00     0.00  -0.01   0.00
   8   8     0.02  -0.01   0.00     0.01  -0.03  -0.00    -0.02   0.08   0.01
   9   6     0.06   0.00  -0.00     0.01  -0.01  -0.00    -0.04   0.02  -0.00
  10   6     0.11   0.03   0.01    -0.03   0.02   0.00     0.13  -0.07  -0.01
  11   7     0.02   0.08   0.02     0.03  -0.00   0.00    -0.13   0.02  -0.00
  12   6    -0.13  -0.21  -0.06    -0.02  -0.02  -0.01     0.01   0.08   0.03
  13   8     0.01   0.03   0.01     0.01  -0.01  -0.00     0.02   0.02   0.00
  14   6    -0.04  -0.02  -0.00     0.01  -0.00  -0.00    -0.04   0.01   0.00
  15  35    -0.00   0.00   0.00    -0.00   0.00  -0.00     0.00   0.00   0.00
  16   1    -0.06   0.08  -0.03     0.12  -0.16   0.04     0.04  -0.04   0.01
  17   1    -0.03  -0.06   0.04     0.07  -0.00   0.04     0.03  -0.02   0.03
  18   1     0.00  -0.03   0.07     0.03  -0.10  -0.02     0.01  -0.04   0.01
  19   1    -0.04   0.16  -0.17     0.01  -0.26   0.30    -0.02  -0.09   0.13
  20   1    -0.05   0.09  -0.07    -0.00  -0.37   0.44     0.02  -0.05   0.06
  21   1    -0.03   0.11   0.07     0.02   0.08   0.05     0.02  -0.09  -0.04
  22   1     0.03  -0.04  -0.08     0.02   0.02   0.06    -0.01   0.01  -0.04
  23   1    -0.01   0.10  -0.02    -0.02   0.06   0.08     0.02  -0.08  -0.08
  24   1     0.08   0.02   0.01    -0.00  -0.00  -0.00     0.02   0.01   0.00
  25   1    -0.02  -0.02  -0.01    -0.00   0.01  -0.00     0.01  -0.03   0.02
  26   1    -0.02  -0.02  -0.00    -0.00   0.01   0.01     0.02  -0.03  -0.03
  27   1    -0.02  -0.01  -0.00    -0.00  -0.00   0.00     0.01   0.00  -0.00
                     49                     50                     51
                        a                      a                      a 
 Frequencies --  1387.1422              1403.7254              1415.3677
 Red. masses --     3.1843                 3.2997                 4.5910
 Frc consts  --     0.0000                 0.0000                 0.0000
 IR Inten    --    83.1429                20.5072                69.3277
 Raman Activ --     0.0000                 0.0000                 0.0000
 Depolar     --     0.0000                 0.0000                 0.0000
 Atom AN      X      Y      Z        X      Y      Z        X      Y      Z
   1   6     0.00   0.00   0.00    -0.01   0.05  -0.03    -0.15   0.28  -0.16
   2   6     0.00  -0.00   0.00     0.02  -0.06   0.02    -0.01  -0.06   0.07
   3   6    -0.01  -0.02  -0.00     0.00   0.07   0.07    -0.01   0.04   0.02
   4   1     0.03   0.03   0.01    -0.07  -0.08  -0.10    -0.01  -0.02  -0.05
   5   6     0.00  -0.01  -0.01    -0.03  -0.27  -0.33     0.02   0.01   0.02
   6   7    -0.01   0.04   0.01     0.02  -0.03  -0.00     0.06  -0.05  -0.01
   7   6     0.01   0.01   0.00     0.01   0.00   0.00    -0.08   0.01  -0.00
   8   8     0.00  -0.02  -0.00    -0.00   0.00  -0.00     0.00   0.01   0.00
   9   6    -0.02   0.01   0.00    -0.01  -0.01  -0.00     0.05   0.02   0.01
  10   6     0.10   0.01  -0.00     0.07  -0.01   0.00    -0.24   0.04  -0.00
  11   7    -0.07   0.01   0.00    -0.07   0.01   0.00     0.27  -0.06  -0.00
  12   6    -0.00  -0.02  -0.00    -0.00   0.01   0.00     0.01  -0.02  -0.01
  13   8     0.01  -0.00  -0.00     0.02  -0.00   0.00    -0.08   0.04   0.01
  14   6    -0.38  -0.15  -0.09    -0.00   0.01   0.00     0.03  -0.06  -0.03
  15  35     0.00  -0.00  -0.00     0.00   0.00   0.00     0.00  -0.00  -0.00
  16   1    -0.00   0.00  -0.00     0.03  -0.08  -0.02     0.28  -0.31   0.03
  17   1    -0.00   0.00  -0.00    -0.01  -0.05   0.06     0.17  -0.24   0.33
  18   1    -0.00   0.00  -0.00     0.00  -0.03   0.03     0.06  -0.38   0.15
  19   1     0.00   0.00  -0.00    -0.01   0.05  -0.01     0.02   0.01  -0.10
  20   1    -0.00  -0.00   0.00    -0.02   0.05  -0.07     0.06   0.07  -0.08
  21   1     0.00   0.01   0.01     0.13   0.39   0.25    -0.05   0.00  -0.03
  22   1     0.00   0.00   0.01     0.15   0.18   0.44    -0.04  -0.03  -0.02
  23   1    -0.00   0.01   0.01    -0.18   0.31   0.36     0.02  -0.03  -0.05
  24   1     0.01   0.00   0.00     0.03   0.01   0.00    -0.13  -0.02  -0.01
  25   1     0.41   0.10   0.36    -0.00  -0.03   0.00    -0.03   0.10  -0.05
  26   1     0.48   0.28  -0.19    -0.00  -0.04  -0.01    -0.04   0.19   0.10
  27   1     0.35   0.05   0.14    -0.03  -0.00  -0.01     0.13   0.01   0.11
                     52                     53                     54
                        a                      a                      a 
 Frequencies --  1418.0489              1422.9000              1450.9798
 Red. masses --     6.2061                 2.4310                 4.8278
 Frc consts  --     0.0000                 0.0000                 0.0000
 IR Inten    --   145.4909                45.1716                52.4129
 Raman Activ --     0.0000                 0.0000                 0.0000
 Depolar     --     0.0000                 0.0000                 0.0000
 Atom AN      X      Y      Z        X      Y      Z        X      Y      Z
   1   6    -0.09   0.17  -0.10    -0.01   0.02  -0.01    -0.00   0.01  -0.00
   2   6     0.00  -0.03   0.04     0.00  -0.00   0.00     0.00   0.00   0.00
   3   6    -0.03  -0.04  -0.01    -0.01  -0.01  -0.00    -0.00  -0.02  -0.01
   4   1     0.12   0.09   0.00     0.03   0.03   0.00     0.04   0.03   0.00
   5   6     0.02   0.04   0.05     0.00   0.01   0.01     0.01   0.01   0.00
   6   7    -0.11   0.10   0.01    -0.04   0.03   0.00    -0.06   0.06   0.01
   7   6     0.14  -0.01   0.00     0.06  -0.00   0.01     0.11  -0.03  -0.00
   8   8    -0.01  -0.01  -0.00    -0.00  -0.00  -0.00    -0.01   0.01   0.00
   9   6    -0.08  -0.02  -0.01    -0.04  -0.04  -0.00    -0.09  -0.02  -0.01
  10   6     0.34  -0.07   0.01     0.16  -0.01  -0.04     0.37  -0.08   0.01
  11   7    -0.40   0.08   0.01    -0.19   0.04  -0.00    -0.29   0.08   0.01
  12   6     0.01   0.03   0.01     0.00   0.02   0.01    -0.00   0.01   0.00
  13   8     0.12  -0.06  -0.01     0.05  -0.03  -0.00     0.08  -0.03  -0.00
  14   6    -0.05   0.10   0.07     0.05   0.06  -0.18    -0.08  -0.21  -0.01
  15  35    -0.00   0.00   0.00    -0.00   0.00   0.00     0.00   0.00   0.00
  16   1     0.17  -0.19   0.02     0.02  -0.02   0.00     0.01  -0.01   0.00
  17   1     0.10  -0.14   0.20     0.01  -0.01   0.02    -0.01  -0.00   0.00
  18   1     0.03  -0.23   0.09     0.00  -0.02   0.01    -0.00  -0.00   0.01
  19   1     0.02   0.00  -0.07     0.00  -0.00  -0.01     0.00   0.00  -0.00
  20   1     0.04   0.03  -0.03     0.01   0.00   0.00    -0.00  -0.00   0.01
  21   1    -0.05  -0.02  -0.04    -0.01  -0.01  -0.01    -0.00   0.01   0.00
  22   1    -0.06  -0.04  -0.05    -0.01  -0.01  -0.01    -0.02  -0.01   0.00
  23   1     0.03  -0.06  -0.06     0.01  -0.01  -0.01     0.00  -0.02   0.00
  24   1     0.19   0.03   0.01     0.10   0.01   0.01     0.08   0.02   0.01
  25   1     0.08  -0.11   0.10    -0.10  -0.52  -0.02    -0.25   0.38  -0.26
  26   1     0.09  -0.34  -0.18    -0.03   0.33   0.12    -0.30   0.23   0.25
  27   1    -0.21  -0.01  -0.24    -0.17  -0.09   0.65     0.42   0.07  -0.02
                     55                     56                     57
                        a                      a                      a 
 Frequencies --  1472.1281              1481.1060              1488.9268
 Red. masses --     1.6620                 1.7889                 1.5983
 Frc consts  --     0.0000                 0.0000                 0.0000
 IR Inten    --     4.2830                 1.4434                18.6662
 Raman Activ --     0.0000                 0.0000                 0.0000
 Depolar     --     0.0000                 0.0000                 0.0000
 Atom AN      X      Y      Z        X      Y      Z        X      Y      Z
   1   6    -0.04   0.02  -0.01    -0.00   0.03  -0.02     0.10   0.03   0.05
   2   6     0.14  -0.09  -0.03     0.20  -0.08  -0.08     0.00   0.02   0.00
   3   6     0.01   0.02  -0.05     0.02  -0.02   0.02     0.05   0.02  -0.00
   4   1    -0.00   0.02   0.03     0.02  -0.01  -0.03    -0.02  -0.02   0.00
   5   6    -0.02   0.13  -0.10     0.02  -0.08   0.09     0.18   0.01  -0.04
   6   7     0.00  -0.00   0.00    -0.02  -0.00  -0.00    -0.01  -0.01   0.00
   7   6    -0.00  -0.01  -0.00     0.01   0.00   0.00    -0.01  -0.03  -0.00
   8   8     0.00   0.01   0.00    -0.00  -0.00  -0.00     0.00   0.03   0.00
   9   6     0.00   0.01   0.00    -0.00  -0.00  -0.00     0.01   0.02   0.00
  10   6    -0.01  -0.01  -0.00     0.01   0.00   0.00    -0.02  -0.01  -0.00
  11   7     0.01  -0.00   0.00    -0.01   0.00   0.00     0.02  -0.00   0.00
  12   6     0.00  -0.00  -0.00     0.00   0.01   0.00     0.01  -0.01  -0.00
  13   8    -0.00   0.00   0.00     0.00  -0.00   0.00    -0.01   0.00   0.00
  14   6     0.00   0.00   0.00    -0.00  -0.00   0.00     0.00   0.01   0.00
  15  35     0.00  -0.00  -0.00     0.00  -0.00   0.00     0.00  -0.00   0.00
  16   1     0.00   0.04   0.01     0.02  -0.05  -0.02    -0.17  -0.22  -0.19
  17   1     0.12   0.01   0.01    -0.00  -0.04   0.05    -0.21  -0.12   0.12
  18   1     0.04  -0.09  -0.04     0.00  -0.01   0.00    -0.01   0.20  -0.14
  19   1    -0.14   0.29   0.23    -0.18   0.36   0.34     0.01  -0.04   0.02
  20   1    -0.41  -0.02  -0.03    -0.55  -0.04  -0.01     0.01   0.01  -0.00
  21   1     0.33   0.07   0.21    -0.28  -0.06  -0.17    -0.37   0.36  -0.03
  22   1    -0.27  -0.17  -0.14     0.17   0.11   0.10    -0.47  -0.19   0.31
  23   1     0.01  -0.43   0.36     0.01   0.28  -0.31     0.10  -0.24  -0.14
  24   1    -0.00  -0.00  -0.00     0.00   0.00  -0.00    -0.01  -0.00  -0.00
  25   1     0.00  -0.00   0.00    -0.00   0.00  -0.00     0.00  -0.01   0.00
  26   1     0.00  -0.00  -0.00    -0.00  -0.00   0.00     0.01  -0.00  -0.00
  27   1    -0.00  -0.00   0.00     0.00   0.00  -0.00    -0.00  -0.00   0.00
                     58                     59                     60
                        a                      a                      a 
 Frequencies --  1500.1961              1506.5613              1593.7404
 Red. masses --     1.5711                 1.5871                11.8014
 Frc consts  --     0.0000                 0.0000                 0.0000
 IR Inten    --     5.8404                10.5045               439.4854
 Raman Activ --     0.0000                 0.0000                 0.0000
 Depolar     --     0.0000                 0.0000                 0.0000
 Atom AN      X      Y      Z        X      Y      Z        X      Y      Z
   1   6     0.17   0.06  -0.05     0.02  -0.09  -0.18     0.01  -0.00  -0.01
   2   6     0.05   0.03  -0.03     0.01  -0.01  -0.05     0.00   0.00  -0.00
   3   6    -0.03  -0.01   0.00     0.01   0.00   0.01    -0.01   0.01   0.00
   4   1     0.01   0.02   0.01    -0.00  -0.00  -0.01    -0.02  -0.01  -0.00
   5   6    -0.09   0.04   0.02     0.06   0.00  -0.02     0.01   0.01   0.00
   6   7     0.00   0.00  -0.00    -0.00   0.00   0.00     0.04  -0.09  -0.02
   7   6     0.00  -0.01  -0.00    -0.00  -0.04  -0.01     0.00   0.16   0.03
   8   8    -0.00   0.01   0.00     0.00   0.03   0.01     0.02  -0.04  -0.01
   9   6     0.00   0.01   0.00     0.01   0.02   0.01    -0.05  -0.62  -0.13
  10   6    -0.00  -0.01  -0.00    -0.01  -0.02  -0.01     0.04   0.69   0.16
  11   7     0.00  -0.00  -0.00     0.01  -0.00   0.00    -0.04  -0.10  -0.02
  12   6     0.00  -0.00   0.00     0.01  -0.01  -0.00     0.06   0.08   0.02
  13   8    -0.00   0.00   0.00    -0.01   0.01   0.00    -0.02  -0.00  -0.00
  14   6     0.00   0.00   0.00     0.00   0.00   0.00    -0.04  -0.10  -0.02
  15  35     0.00  -0.00  -0.00     0.00  -0.00  -0.00    -0.00   0.01   0.00
  16   1     0.00  -0.39  -0.16     0.42   0.18   0.32     0.01  -0.00   0.01
  17   1    -0.55  -0.25   0.22    -0.26   0.12  -0.20    -0.02  -0.00   0.00
  18   1    -0.14   0.35   0.17    -0.21   0.06   0.62    -0.01   0.01   0.02
  19   1     0.00   0.00   0.04    -0.02   0.02   0.03    -0.00   0.00   0.00
  20   1    -0.05  -0.01   0.01    -0.01  -0.03   0.02    -0.00   0.00  -0.00
  21   1     0.24  -0.18   0.04    -0.11   0.12  -0.00    -0.01   0.01  -0.00
  22   1     0.16   0.04  -0.22    -0.16  -0.06   0.11    -0.03  -0.02  -0.00
  23   1    -0.04   0.01   0.12     0.03  -0.08  -0.03     0.00  -0.01   0.00
  24   1    -0.00  -0.00   0.00    -0.00  -0.00   0.00     0.10  -0.01   0.00
  25   1     0.00  -0.00   0.00     0.00  -0.00   0.00     0.00   0.05  -0.01
  26   1     0.00  -0.00  -0.00     0.00  -0.00  -0.00    -0.02   0.01   0.01
  27   1     0.00   0.00   0.00    -0.00   0.00   0.00    -0.08  -0.03  -0.03
                     61                     62                     63
                        a                      a                      a 
 Frequencies --  1648.6362              1689.3141              2920.8620
 Red. masses --    13.2197                13.2773                 1.7437
 Frc consts  --     0.0000                 0.0000                 0.0000
 IR Inten    --  1691.5159               343.9555                24.3509
 Raman Activ --     0.0000                 0.0000                 0.0000
 Depolar     --     0.0000                 0.0000                 0.0000
 Atom AN      X      Y      Z        X      Y      Z        X      Y      Z
   1   6    -0.01   0.00   0.01    -0.00   0.00   0.00    -0.00   0.00  -0.00
   2   6    -0.00   0.00  -0.00     0.01  -0.00   0.01    -0.00   0.00   0.01
   3   6     0.02  -0.02  -0.00    -0.01  -0.01  -0.01     0.14  -0.20   0.07
   4   1     0.01  -0.01  -0.02     0.03   0.03   0.02    -0.55   0.75  -0.25
   5   6    -0.02   0.00  -0.00     0.00  -0.00   0.00    -0.00   0.00  -0.01
   6   7    -0.04   0.10   0.02    -0.01  -0.03  -0.01     0.01  -0.00   0.00
   7   6    -0.04  -0.50  -0.09    -0.04  -0.58  -0.10    -0.00   0.00   0.00
   8   8     0.01   0.38   0.07     0.01   0.44   0.08    -0.00   0.00  -0.00
   9   6     0.04  -0.03  -0.01     0.05  -0.06  -0.01     0.00   0.00   0.00
  10   6     0.01   0.08   0.02    -0.00   0.12   0.03    -0.00  -0.00  -0.00
  11   7    -0.09  -0.02  -0.01     0.09  -0.01   0.00     0.00  -0.00   0.00
  12   6     0.52  -0.30  -0.05    -0.44   0.28   0.05     0.00  -0.00  -0.00
  13   8    -0.37   0.22   0.04     0.31  -0.19  -0.04    -0.00  -0.00  -0.00
  14   6    -0.00  -0.01  -0.00    -0.02  -0.02  -0.01     0.00   0.00  -0.00
  15  35    -0.00   0.00   0.00    -0.01   0.00   0.00     0.00  -0.00  -0.00
  16   1    -0.01   0.00  -0.01    -0.01   0.00  -0.00     0.00  -0.00  -0.00
  17   1     0.02   0.00  -0.00     0.01   0.00  -0.00    -0.00   0.00  -0.00
  18   1     0.01  -0.01  -0.03     0.01  -0.01  -0.01     0.00   0.00   0.00
  19   1     0.00  -0.00   0.00     0.00   0.00  -0.01     0.02   0.01   0.01
  20   1     0.00  -0.01   0.01    -0.00   0.00  -0.00     0.00  -0.04  -0.03
  21   1     0.02  -0.01   0.00     0.00  -0.01  -0.00    -0.01  -0.00   0.01
  22   1     0.03   0.02   0.00     0.02   0.01  -0.00     0.02  -0.03   0.01
  23   1    -0.00   0.01  -0.00    -0.00   0.01   0.01     0.01   0.01   0.00
  24   1     0.10  -0.00   0.00    -0.06  -0.01  -0.00    -0.00   0.00   0.00
  25   1     0.00  -0.00   0.00     0.01   0.00   0.01    -0.00   0.00   0.00
  26   1     0.00  -0.01  -0.00     0.01   0.00  -0.01     0.00  -0.00   0.00
  27   1    -0.02  -0.01  -0.00    -0.01  -0.00  -0.00     0.00  -0.00  -0.00
                     64                     65                     66
                        a                      a                      a 
 Frequencies --  2966.1401              2994.3302              3017.7674
 Red. masses --     1.8382                 1.6236                 1.9064
 Frc consts  --     0.0000                 0.0000                 0.0000
 IR Inten    --    53.6504                36.0703                 0.1785
 Raman Activ --     0.0000                 0.0000                 0.0000
 Depolar     --     0.0000                 0.0000                 0.0000
 Atom AN      X      Y      Z        X      Y      Z        X      Y      Z
   1   6     0.01   0.01   0.01     0.03   0.02  -0.01    -0.00  -0.00  -0.00
   2   6    -0.04  -0.21  -0.18    -0.23  -0.03  -0.02     0.00   0.00   0.00
   3   6     0.01  -0.01  -0.00    -0.01   0.00  -0.00     0.00  -0.00   0.00
   4   1    -0.03   0.03  -0.01     0.02  -0.02   0.01    -0.00   0.00  -0.00
   5   6     0.00   0.00  -0.00     0.01   0.00  -0.00     0.00   0.00  -0.00
   6   7     0.00  -0.00   0.00    -0.00  -0.00   0.00    -0.00   0.00  -0.00
   7   6    -0.00  -0.00  -0.00     0.00  -0.00  -0.00     0.00   0.00   0.00
   8   8     0.00   0.00   0.00     0.00   0.00   0.00    -0.00  -0.00  -0.00
   9   6     0.00   0.00   0.00     0.00  -0.00  -0.00     0.00  -0.00  -0.00
  10   6    -0.00   0.00  -0.00     0.00   0.00   0.00     0.00   0.00   0.01
  11   7     0.00  -0.00   0.00    -0.00   0.00   0.00    -0.00  -0.00   0.00
  12   6     0.00   0.00  -0.00    -0.00   0.00   0.00     0.00  -0.00   0.00
  13   8    -0.00  -0.00   0.00     0.00  -0.00   0.00    -0.00   0.00  -0.00
  14   6    -0.00   0.00   0.00    -0.00  -0.00   0.00     0.02  -0.06   0.28
  15  35     0.00  -0.00  -0.00    -0.00  -0.00  -0.00    -0.00   0.00   0.00
  16   1     0.01   0.01  -0.01    -0.04  -0.02   0.07     0.00   0.00  -0.00
  17   1     0.01  -0.04  -0.03     0.01   0.00  -0.00    -0.00   0.00   0.00
  18   1    -0.04  -0.01  -0.01    -0.11  -0.03  -0.04     0.00   0.00   0.00
  19   1     0.21   0.04   0.03     0.86   0.29   0.22    -0.00  -0.00  -0.00
  20   1    -0.05   0.70   0.61    -0.02  -0.18  -0.15     0.00  -0.00  -0.00
  21   1    -0.01  -0.01   0.01    -0.00  -0.00   0.00    -0.00  -0.00   0.00
  22   1     0.00  -0.01   0.00     0.00  -0.00   0.00     0.00   0.00  -0.00
  23   1    -0.01  -0.00  -0.00    -0.02  -0.00  -0.01    -0.00  -0.00  -0.00
  24   1    -0.00   0.00   0.00     0.00  -0.00  -0.00     0.00   0.00   0.00
  25   1     0.00  -0.00  -0.00     0.00  -0.00  -0.00     0.31  -0.07  -0.34
  26   1    -0.00   0.00  -0.00    -0.00   0.00  -0.00    -0.40   0.26  -0.69
  27   1     0.00  -0.00  -0.00    -0.00   0.00   0.00    -0.00   0.00   0.04
                     67                     68                     69
                        a                      a                      a 
 Frequencies --  3027.2439              3033.0735              3038.1255
 Red. masses --     1.9124                 1.7955                 1.6971
 Frc consts  --     0.0000                 0.0000                 0.0000
 IR Inten    --    93.0622                49.8666                53.8528
 Raman Activ --     0.0000                 0.0000                 0.0000
 Depolar     --     0.0000                 0.0000                 0.0000
 Atom AN      X      Y      Z        X      Y      Z        X      Y      Z
   1   6    -0.26  -0.11   0.01     0.01   0.01   0.00     0.03  -0.01  -0.25
   2   6    -0.04  -0.01  -0.01     0.00   0.00   0.00     0.00  -0.01  -0.01
   3   6    -0.00   0.00  -0.00     0.00   0.01  -0.01    -0.00  -0.00   0.00
   4   1     0.00  -0.01   0.00     0.01  -0.01   0.00    -0.00   0.00  -0.00
   5   6     0.01   0.01  -0.01     0.13   0.13  -0.20     0.00   0.01  -0.00
   6   7     0.00  -0.00   0.00    -0.00  -0.00   0.00     0.00   0.00   0.00
   7   6     0.00   0.00  -0.00    -0.00  -0.00  -0.00    -0.00  -0.00  -0.00
   8   8    -0.00  -0.00   0.00    -0.00   0.00   0.00     0.00   0.00   0.00
   9   6    -0.00  -0.00  -0.00     0.00   0.00   0.00     0.00   0.00   0.00
  10   6    -0.00   0.00  -0.00     0.00  -0.00  -0.00    -0.00  -0.00  -0.00
  11   7    -0.00  -0.00   0.00    -0.00   0.00   0.00     0.00  -0.00   0.00
  12   6    -0.00   0.00  -0.00     0.00   0.00  -0.00     0.00  -0.00  -0.00
  13   8     0.00  -0.00  -0.00     0.00   0.00   0.00    -0.00   0.00   0.00
  14   6    -0.00   0.00  -0.00    -0.00   0.00  -0.00    -0.01   0.00   0.00
  15  35     0.00  -0.00  -0.00    -0.00   0.00  -0.00     0.00  -0.00  -0.00
  16   1     0.18   0.11  -0.34     0.00   0.00   0.00    -0.45  -0.27   0.67
  17   1    -0.05   0.05   0.06     0.00  -0.01  -0.00    -0.01   0.18   0.13
  18   1     0.78   0.24   0.25    -0.05  -0.02  -0.01     0.37   0.11   0.07
  19   1     0.13   0.05   0.03    -0.02  -0.01  -0.00    -0.01  -0.00  -0.00
  20   1    -0.00  -0.00  -0.00     0.00  -0.01  -0.01    -0.00   0.04   0.03
  21   1    -0.02  -0.02   0.04    -0.42  -0.40   0.76    -0.01  -0.01   0.02
  22   1     0.01  -0.01   0.00     0.06  -0.04  -0.01     0.01  -0.01   0.00
  23   1    -0.02  -0.00  -0.01    -0.08  -0.00  -0.05    -0.02  -0.00  -0.00
  24   1    -0.00  -0.00  -0.00     0.00  -0.00  -0.00    -0.00   0.00   0.00
  25   1     0.00  -0.00  -0.00     0.00  -0.00  -0.00     0.02  -0.00  -0.03
  26   1     0.00  -0.00   0.00     0.00  -0.00   0.00     0.01  -0.01   0.02
  27   1    -0.00   0.00   0.00    -0.00   0.00   0.00    -0.00   0.00   0.00
                     70                     71                     72
                        a                      a                      a 
 Frequencies --  3039.2007              3050.1671              3057.0580
 Red. masses --     1.5081                 1.6818                 1.5362
 Frc consts  --     0.0000                 0.0000                 0.0000
 IR Inten    --     6.2146                41.9665                28.2204
 Raman Activ --     0.0000                 0.0000                 0.0000
 Depolar     --     0.0000                 0.0000                 0.0000
 Atom AN      X      Y      Z        X      Y      Z        X      Y      Z
   1   6     0.00   0.00   0.01     0.00   0.00   0.00     0.04  -0.19  -0.11
   2   6     0.00   0.00   0.00     0.01   0.00   0.00     0.00  -0.01  -0.01
   3   6     0.00  -0.00   0.00     0.01  -0.00   0.00     0.00   0.00  -0.00
   4   1    -0.00   0.00   0.00    -0.01   0.01  -0.00     0.00  -0.00  -0.00
   5   6    -0.00  -0.00   0.00     0.23   0.04   0.08    -0.01   0.02  -0.00
   6   7     0.00  -0.00  -0.00    -0.00   0.00   0.00    -0.00  -0.00  -0.00
   7   6    -0.00   0.00  -0.00    -0.00  -0.00  -0.00    -0.00  -0.00   0.00
   8   8     0.00   0.00   0.00     0.00   0.00   0.00     0.00   0.00  -0.00
   9   6    -0.00   0.00   0.00     0.00   0.00   0.00     0.00   0.00   0.00
  10   6    -0.01  -0.00   0.00    -0.00  -0.00  -0.00     0.00  -0.00  -0.00
  11   7     0.00  -0.00   0.00     0.00  -0.00  -0.00    -0.00   0.00   0.00
  12   6    -0.00   0.00   0.00     0.00  -0.00  -0.00     0.00   0.00   0.00
  13   8     0.00  -0.00  -0.00    -0.00   0.00   0.00     0.00  -0.00   0.00
  14   6    -0.19   0.06   0.06    -0.00   0.00   0.00     0.00  -0.00  -0.00
  15  35     0.00  -0.00  -0.00     0.00   0.00   0.00    -0.00   0.00  -0.00
  16   1     0.02   0.01  -0.03     0.00   0.00  -0.00     0.10   0.03  -0.17
  17   1     0.00  -0.01  -0.00     0.00  -0.01  -0.01    -0.07   0.70   0.61
  18   1    -0.02  -0.01  -0.00    -0.02  -0.01  -0.01    -0.16  -0.08  -0.07
  19   1    -0.00  -0.00  -0.00    -0.03  -0.01  -0.01     0.01   0.00   0.00
  20   1     0.00  -0.00  -0.00     0.00  -0.00  -0.00    -0.00   0.03   0.03
  21   1     0.00   0.00  -0.01     0.08   0.05  -0.07     0.00   0.01  -0.01
  22   1    -0.00   0.00  -0.00     0.02   0.03   0.00     0.05  -0.08   0.02
  23   1     0.00   0.00   0.00    -0.92  -0.20  -0.21    -0.01   0.00  -0.00
  24   1    -0.00  -0.00   0.00     0.00   0.00   0.00     0.00  -0.00  -0.00
  25   1     0.53  -0.10  -0.65     0.00   0.00  -0.00    -0.00   0.00   0.00
  26   1     0.20  -0.14   0.42     0.00  -0.00   0.00    -0.00   0.00  -0.00
  27   1    -0.03   0.05   0.01     0.00  -0.00  -0.00    -0.00   0.00   0.00
                     73                     74                     75
                        a                      a                      a 
 Frequencies --  3073.8682              3080.2601              3360.5754
 Red. masses --     1.7613                 1.6770                 1.8491
 Frc consts  --     0.0000                 0.0000                 0.0000
 IR Inten    --     3.7564                17.0152               236.9730
 Raman Activ --     0.0000                 0.0000                 0.0000
 Depolar     --     0.0000                 0.0000                 0.0000
 Atom AN      X      Y      Z        X      Y      Z        X      Y      Z
   1   6    -0.00  -0.00   0.00     0.00  -0.02  -0.01     0.00  -0.00  -0.00
   2   6    -0.00   0.00   0.00    -0.00  -0.00  -0.00    -0.00   0.00   0.00
   3   6    -0.00   0.00  -0.00     0.01  -0.01   0.00    -0.00   0.00  -0.00
   4   1     0.00  -0.00   0.00    -0.02   0.03  -0.01     0.00  -0.00   0.00
   5   6    -0.00   0.00  -0.00     0.13  -0.21   0.04     0.00  -0.00  -0.00
   6   7     0.00  -0.00   0.00     0.00  -0.00   0.00     0.00   0.00   0.00
   7   6    -0.00  -0.00   0.00    -0.00  -0.00  -0.00    -0.00  -0.00  -0.00
   8   8     0.00   0.00   0.00     0.00   0.00   0.00     0.00   0.00   0.00
   9   6    -0.00  -0.00  -0.00     0.00  -0.00  -0.00     0.00   0.00   0.00
  10   6    -0.00   0.01   0.00     0.00   0.00   0.00     0.00  -0.01  -0.00
  11   7     0.00  -0.00  -0.00    -0.00   0.00   0.00     0.01  -0.25  -0.06
  12   6    -0.00  -0.00  -0.00     0.00  -0.00   0.00    -0.00  -0.01  -0.00
  13   8     0.00  -0.00  -0.00    -0.00  -0.00  -0.00     0.00  -0.00  -0.00
  14   6    -0.07   0.25   0.03    -0.00   0.00   0.00    -0.00   0.00  -0.00
  15  35     0.00  -0.00   0.00    -0.00   0.00   0.00    -0.00   0.00   0.00
  16   1     0.00   0.00  -0.00     0.01   0.00  -0.01     0.00   0.00  -0.00
  17   1    -0.00   0.00   0.00    -0.01   0.07   0.06    -0.00   0.00   0.00
  18   1    -0.00  -0.00  -0.00    -0.01  -0.00  -0.00    -0.00  -0.00  -0.00
  19   1     0.00   0.00   0.00     0.01   0.00   0.00     0.00   0.00   0.00
  20   1     0.00  -0.00  -0.00     0.00   0.01   0.01    -0.00  -0.00  -0.00
  21   1    -0.00  -0.00   0.00    -0.02  -0.06   0.07    -0.00  -0.00   0.00
  22   1     0.00  -0.00   0.00    -0.46   0.81  -0.23    -0.00   0.00  -0.00
  23   1     0.00   0.00   0.00     0.03  -0.02   0.01     0.00   0.00   0.00
  24   1     0.00   0.00   0.00     0.00  -0.00  -0.00    -0.04   0.94   0.23
  25   1     0.02   0.02  -0.03    -0.00   0.00   0.00    -0.00  -0.00   0.00
  26   1    -0.01   0.03   0.01    -0.00   0.00   0.00     0.00  -0.00   0.00
  27   1     0.22  -0.93  -0.08     0.00  -0.01  -0.00     0.00   0.00   0.00
