27
 energy: -44.043127066986 gnorm: 0.040492543988 xtb: 6.7.1 (edcfbbe)
C           -2.75941238040921       -2.11420657766696        1.44793867076626
C           -3.41561974575826       -0.88464405460075        0.81266779884249
C           -2.78992565237219       -0.36021676219657       -0.48497646613102
H           -3.39657294342760        0.49273523752492       -0.79705002087375
C           -2.81385392829072       -1.34962845950402       -1.64467454235217
N           -1.44786291998812        0.26442443244225       -0.23281376875489
C           -0.25490166833375       -0.48590507296932       -0.30285473262133
O           -0.27215504955578       -1.69758091979629       -0.49931358382542
C            0.95656403369101        0.28730403554800       -0.13590624525967
C            0.94764579852345        1.61515041293105        0.15901566343366
N           -0.26979483963051        2.22197692429430        0.28344189078182
C           -1.48983387341821        1.60028553486681        0.13509245405036
O           -2.53198527647496        2.23163514550785        0.31476002121089
C            2.14905706082997        2.46163701992141        0.38323732816377
Br           2.59737348477360       -0.65309446273354       -0.28103731182406
H           -3.37226273837236       -2.45061194370000        2.28764211874706
H           -2.68605007713503       -2.95269752955355        0.74098129191142
H           -1.75254589427575       -1.89080318832504        1.82686218673766
H           -4.46597307743701       -1.11020965402841        0.57617604593717
H           -3.42834893179694       -0.06136267850174        1.54098911492256
H           -2.23786541770013       -0.97457290985164       -2.49799180076302
H           -2.44239442500075       -2.33978956450537       -1.38427747109843
H           -3.85732667431367       -1.44276011883626       -1.96416963143491
H           -0.31017488266730        3.20234608554706        0.53698889375985
H            2.84498731864249        2.36607849743966       -0.45364369866010
H            2.67278338722310        2.13229407801832        1.28701442878401
H            1.87386684375332        3.51120693691306        0.50061174948609
27
 energy: -44.045257858874 gnorm: 0.012650774568 xtb: 6.7.1 (edcfbbe)
C           -2.75573281079380       -2.10564310670051        1.44205065224025
C           -3.41463889919799       -0.88423526506653        0.81155832397629
C           -2.78909964103887       -0.34864851409500       -0.48224405855107
H           -3.39230397336084        0.51471974244464       -0.78432768228868
C           -2.80390046947793       -1.34005135267518       -1.63766725038235
N           -1.45233426399909        0.25958499479721       -0.23258235693351
C           -0.26783615809984       -0.48681620256048       -0.30459023283267
O           -0.27811383472718       -1.68861461747308       -0.50113451301930
C            0.94132294502730        0.28850572532304       -0.12668745114551
C            0.93522288027590        1.61407729229610        0.16738353728346
N           -0.28122626732650        2.21548935055275        0.28661064634661
C           -1.49234540972337        1.58872459167974        0.12942231687449
O           -2.52927430836495        2.21148960775109        0.29446640763990
C            2.14229130501665        2.45250199018563        0.38244065936846
Br           2.57366619132688       -0.66737155986158       -0.28570782034364
H           -3.35289056827612       -2.44120199104293        2.28848825354243
H           -2.68043530910318       -2.92900685407842        0.73355788705952
H           -1.75192944848039       -1.87855062649194        1.80039724851233
H           -4.45605010423145       -1.12396537811642        0.57803855103242
H           -3.42578249803205       -0.06630541035124        1.53900016232390
H           -2.22834074735507       -0.95949271057470       -2.48033291068574
H           -2.40499504283884       -2.31233401897420       -1.36508130960742
H           -3.83887695557378       -1.46020059921651       -1.95809064677928
H           -0.32722532898194        3.19789714846621        0.53724894817599
H            2.83447265272693        2.34661508202917       -0.45185160240641
H            2.66927379890854        2.12253392013659        1.27838266264683
H            1.87449979677969        3.49928920580174        0.49596196188901
27
 energy: -44.045725248002 gnorm: 0.005736851518 xtb: 6.7.1 (edcfbbe)
C           -2.74186916222387       -2.09571968431197        1.43433948410814
C           -3.41888951280250       -0.88184565646989        0.81189790259884
C           -2.79100390413137       -0.34209349052791       -0.48040136016210
H           -3.39899017549238        0.52102601066820       -0.77950319931224
C           -2.79344408583907       -1.33330734009478       -1.63524937843744
N           -1.46068116612871        0.25763845625107       -0.22686239578130
C           -0.28285997669244       -0.48982033902373       -0.29822634033003
O           -0.28458497500822       -1.68766672166018       -0.49906109778045
C            0.92665450242979        0.28831351677120       -0.11920010199043
C            0.92548097685173        1.61264392530905        0.17335024897151
N           -0.28970487841527        2.21326860779636        0.29212149201495
C           -1.49754776074563        1.58637126813544        0.12709107466564
O           -2.53257872632715        2.20980482436097        0.28051422762012
C            2.13881699328888        2.44196294181323        0.38228987279917
Br           2.55247278136147       -0.68073644848203       -0.28600131105766
H           -3.32398178644382       -2.43009988768976        2.28935415389575
H           -2.67207375146896       -2.91534604152000        0.72725327988778
H           -1.73681314547933       -1.86217909785460        1.77659845004469
H           -4.45333254491074       -1.13431763035055        0.57523647713811
H           -3.43624857591112       -0.06483259232764        1.53740130180332
H           -2.22537068468690       -0.94075008761577       -2.47443517974999
H           -2.36529805893137       -2.29034509313739       -1.35474387380336
H           -3.82315738254307       -1.48185413861376       -1.95151921273858
H           -0.33850139475420        3.19684293595590        0.53993785745014
H            2.82501913560129        2.32426057671491       -0.45395420265493
H            2.66723147022536        2.10885414128111        1.27403975095388
H            1.87867332025632        3.48891748880766        0.49244246378278
27
 energy: -44.045892620170 gnorm: 0.004215440742 xtb: 6.7.1 (edcfbbe)
C           -2.72946753370477       -2.08844600348184        1.43194493795420
C           -3.42286578687908       -0.88302065455763        0.81014448860829
C           -2.79502455450055       -0.33777495028812       -0.48135854200310
H           -3.40748677654780        0.52266984015067       -0.78086994053609
C           -2.78850085107738       -1.32898184391401       -1.63670156895989
N           -1.46825738563063        0.25856344592765       -0.22275436442755
C           -0.29379197355756       -0.49086600967553       -0.29377975493471
O           -0.28863010167577       -1.68902254937704       -0.49239795605023
C            0.91711756594402        0.28673196627552       -0.11131817504857
C            0.92007817822972        1.61075536888707        0.17920263583765
N           -0.29420366625427        2.21353873083222        0.29793129114002
C           -1.50186577046154        1.58921322533932        0.12555811984000
O           -2.53668624513074        2.21688624834314        0.26855416609908
C            2.13837696355680        2.43347687904589        0.38296061848133
Br           2.53913013432061       -0.68996304764466       -0.28040374500943
H           -3.29576396184980       -2.42258111839396        2.29782307290905
H           -2.66470291295226       -2.90986235326199        0.72696553239383
H           -1.72102000024736       -1.84426685118055        1.75745471785345
H           -4.45318741280833       -1.14802182971295        0.57223944538728
H           -3.44916525606599       -0.06554821298350        1.53440007460375
H           -2.23314415861580       -0.92262247725550       -2.47801322513860
H           -2.33605162219498       -2.27540963513014       -1.35751061815297
H           -3.81589086696934       -1.50102091643525       -1.94558715464824
H           -0.34400948844025        3.19786740253420        0.54270157381021
H            2.81972711571978        2.30643334528931       -0.45600133761804
H            2.66733857087995        2.09809074899913        1.27328184416023
H            1.88536532799202        3.48217169585362        0.49024424738535
27
 energy: -44.045995417017 gnorm: 0.003316196026 xtb: 6.7.1 (edcfbbe)
C           -2.71553144404817       -2.08064578726650        1.43128142859333
C           -3.42765142312192       -0.88634339163873        0.80735558834011
C           -2.80007343286658       -0.33577152910886       -0.48299483717684
H           -3.41540342778123        0.52229199611113       -0.78308500661504
C           -2.78739674424862       -1.32470173120853       -1.64102071452158
N           -1.47516598119234        0.25978938953836       -0.21914081549960
C           -0.30258452508385       -0.49167470491069       -0.28604456726165
O           -0.29130888268750       -1.69094105901689       -0.48276530176991
C            0.91016146632554        0.28426066039728       -0.10338661839392
C            0.91664680293511        1.60840118742119        0.18475231345583
N           -0.29702679781954        2.21414466994898        0.30369946201440
C           -1.50534019862110        1.59359802018038        0.12223948857117
O           -2.54015243914167        2.22608109428204        0.25382268738607
C            2.13915207656604        2.42549309253028        0.38485886022403
Br           2.52908825926690       -0.69791845747178       -0.27061541206553
H           -3.26447519256790       -2.41203081243460        2.30973158099018
H           -2.65523810973059       -2.90864518115600        0.73223093638432
H           -1.70373704711261       -1.82395866109768        1.73898342661863
H           -4.45383295503218       -1.16657923207384        0.56744374555640
H           -3.46718465943118       -0.06760887130913        1.53029213573883
H           -2.25270676899257       -0.90175799894134       -2.48913614446463
H           -2.30943428791529       -2.26095471423053       -1.37031226883774
H           -3.81417708277934       -1.52031061733310       -1.93678537125784
H           -0.34753829526998        3.19911965373410        0.54521216339044
H            2.81670381199196        2.29066065091882       -0.45631380039406
H            2.66823431070909        2.08860718263584        1.27491087997093
H            1.89339049872818        3.47638559568484        0.48949654496001
27
 energy: -44.046037154302 gnorm: 0.002590441319 xtb: 6.7.1 (edcfbbe)
C           -2.70803037068615       -2.07650449915659        1.43301896700127
C           -3.42912823800118       -0.88988137885102        0.80491329040380
C           -2.80286090279854       -0.33592290109179       -0.48440064343251
H           -3.41820699511373        0.52204332568488       -0.78352988769156
C           -2.79024508939942       -1.32222129952758       -1.64476744853582
N           -1.47731751799028        0.26041350459381       -0.21950362596702
C           -0.30482634683669       -0.49168009923413       -0.28365752273311
O           -0.29263128854028       -1.69199489320366       -0.47773020022139
C            0.90890965949402        0.28220707119837       -0.09926488636799
C            0.91641187249277        1.60670445638095        0.18750078823253
N           -0.29712401142459        2.21405357523221        0.30549041577518
C           -1.50594902345860        1.59583858362492        0.11874987356609
O           -2.54057310838208        2.23044137431534        0.24426131091937
C            2.13991868635418        2.42230125088385        0.38735143986349
Br           2.52659773965620       -0.70151965963690       -0.26231412365775
H           -3.24895122565159       -2.40419473096997        2.31756123951157
H           -2.64833094472345       -2.91007577812674        0.73944529535886
H           -1.69558445018890       -1.81302625586419        1.73243543884042
H           -4.45264522791945       -1.17941302501320        0.56298188613979
H           -3.47844869579001       -0.07034827164730        1.52692640584441
H           -2.27234350217855       -0.88973983690270       -2.49924870832579
H           -2.29772352314257       -2.25303273135753       -1.38306032313389
H           -3.81796193225605       -1.52988548071986       -1.92883887217395
H           -0.34780959897937        3.19937230442507        0.54511742484093
H            2.81728005238074        2.28541239945187       -0.45372524004901
H            2.66829812271059        2.08554983530752        1.27821400682959
H            1.89669339145162        3.47409360438935        0.49078408309885
27
 energy: -44.046065274323 gnorm: 0.001771693599 xtb: 6.7.1 (edcfbbe)
C           -2.70226570416911       -2.07309894582449        1.43580581389759
C           -3.42906388682203       -0.89326813240908        0.80251148028252
C           -2.80459748418542       -0.33674674890760       -0.48578815729939
H           -3.41895529784914        0.52235575574815       -0.78255467029340
C           -2.79511097212304       -1.32025383066871       -1.64828975744658
N           -1.47740294477252        0.26046776548125       -0.22174268804692
C           -0.30455752711704       -0.49195943576708       -0.28263112328357
O           -0.29417226523261       -1.69264026404609       -0.47672039406499
C            0.90975815701745        0.28008564543254       -0.09712756847213
C            0.91727848839401        1.60495710068080        0.18892672739853
N           -0.29619754349533        2.21326090483629        0.30469168860668
C           -1.50539277903872        1.59677860552448        0.11447645330210
O           -2.53954030524666        2.23260853961897        0.23555095083352
C            2.14031206351903        2.42069504714812        0.39121726650351
Br           2.52680768487353       -0.70407588455733       -0.25485454516570
H           -3.23938252989889       -2.39661695076548        2.32367049192283
H           -2.64083755098555       -2.91145695600467        0.74757895131356
H           -1.69036830699438       -1.80460933449852        1.73085481231111
H           -4.44991798617030       -1.19063713193424        0.55799409209739
H           -3.48739217914640       -0.07316887843159        1.52347631018269
H           -2.29458590342410       -0.88026841623331       -2.50927088093500
H           -2.28972366604089       -2.24629119298462       -1.39596576061010
H           -3.82451736133493       -1.53769535770395       -1.91922413772444
H           -0.34665578340563        3.19891749458104        0.54273162599702
H            2.81976176304860        2.28433179276013       -0.44821554186736
H            2.66704651366777        2.08467947124184        1.28354356997759
H            1.89709083801093        3.47263978186810        0.49406537451930
27
 energy: -44.046078955183 gnorm: 0.001367439427 xtb: 6.7.1 (edcfbbe)
C           -2.69748526295492       -2.07005896295184        1.43863009916514
C           -3.42773669881400       -0.89517583280791        0.80099615996871
C           -2.80522119433448       -0.33748530856375       -0.48697272447648
H           -3.41868749292808        0.52331623718865       -0.78043405478080
C           -2.80071227248256       -1.31900373416055       -1.65079844652689
N           -1.47626090071171        0.25996030241866       -0.22605276007717
C           -0.30296110696720       -0.49249375419025       -0.28564112607369
O           -0.29586329552718       -1.69300947440888       -0.48034139874394
C            0.91126202883646        0.27804622056990       -0.09645046561522
C            0.91820256500385        1.60310796738304        0.18961392582367
N           -0.29512679579666        2.21188732706141        0.30085354960522
C           -1.50448634356277        1.59629486932947        0.10925106457663
O           -2.53786226957589        2.23285558749736        0.22802525185272
C            2.13985171534625        2.41983306693342        0.39679761717967
Br           2.52821986232253       -0.70641525474276       -0.24870718188346
H           -3.23463611748953       -2.39107796556597        2.32712972267858
H           -2.63237032658241       -2.91067795623564        0.75383092183948
H           -1.68686452152807       -1.79768955275231        1.73327518642567
H           -4.44618406161556       -1.19845568808417        0.55437487049731
H           -3.49236110885175       -0.07470989432274        1.52068288740359
H           -2.31609045775767       -0.87366171581892       -2.51720300292973
H           -2.28415799444723       -2.24060041139034       -1.40617668049653
H           -3.83174965009283       -1.54492776865726       -1.90853938112338
H           -0.34484775117318        3.19792367217301        0.53764060320690
H            2.82344438885428        2.28539884690279       -0.43956518768542
H            2.66351602511927        2.08448604753083        1.29112334585642
H            1.89458656878962        3.47132357384969        0.49936758826940
27
 energy: -44.046085250458 gnorm: 0.000695596488 xtb: 6.7.1 (edcfbbe)
C           -2.69565949643150       -2.06887979782651        1.43890195756847
C           -3.42663983996453       -0.89416634825105        0.80141454559961
C           -2.80510293282936       -0.33714940460732       -0.48753095002636
H           -3.41920009573848        0.52359239282543       -0.78042852760732
C           -2.80214922256042       -1.31936957488223       -1.65080765711181
N           -1.47622479248613        0.25967346997862       -0.22778872291610
C           -0.30294691828251       -0.49303906414937       -0.28743800585977
O           -0.29616544103209       -1.69296045231608       -0.48449882092495
C            0.91090894385486        0.27774398745159       -0.09736247610901
C            0.91781656301419        1.60262831202348        0.18927385639470
N           -0.29533444044281        2.21162688137632        0.29791900018462
C           -1.50472737132679        1.59580414430178        0.10716845375522
O           -2.53777960985580        2.23282729544986        0.22619199698276
C            2.13913546392919        2.41906918660407        0.39973970623326
Br           2.52814328322470       -0.70725423881331       -0.24789958813846
H           -3.23426697234353       -2.39187956766797        2.32605230782452
H           -2.62809255684849       -2.90803179844086        0.75302206498933
H           -1.68592755642262       -1.79516962745968        1.73594591608128
H           -4.44483281741636       -1.19807595772972        0.55546990030185
H           -3.49073665608120       -0.07351572397559        1.52060413088685
H           -2.32093879344215       -0.87327783283634       -2.51819603743261
H           -2.28279839220118       -2.23950577931930       -1.40672345414781
H           -3.83313326587781       -1.54809965035558       -1.90518018148622
H           -0.34447686410624        3.19777272349469        0.53457428246197
H            2.82476413462613        2.28514558482748       -0.43503923353488
H            2.66063491028021        2.08312983206859        1.29497370511876
H            1.89314826783925        3.47035145241394        0.50235221484850
27
 energy: -44.046091254998 gnorm: 0.000797715422 xtb: 6.7.1 (edcfbbe)
C           -2.69215674239081       -2.06695345876814        1.43899079860329
C           -3.42489303221333       -0.89242284455939        0.80262528948462
C           -2.80532412328811       -0.33684116770945       -0.48834545142491
H           -3.42074513374545        0.52318632736943       -0.78100352201819
C           -2.80478227110529       -1.32035909274821       -1.65075922683534
N           -1.47667201742557        0.25981179170428       -0.23155296022070
C           -0.30324072453386       -0.49311592786485       -0.29266376484598
O           -0.29613642782346       -1.69274147735619       -0.49048195161459
C            0.91008601526589        0.27735258570097       -0.09818426159024
C            0.91712412724790        1.60205106277968        0.18908103633609
N           -0.29578081014777        2.21193331827266        0.29293682071799
C           -1.50530526519125        1.59573215415580        0.10307315439510
O           -2.53799624452122        2.23330794073291        0.22315067593937
C            2.13826382196482        2.41748603984705        0.40463210949649
Br           2.52771307530087       -0.70871525119358       -0.24449119993195
H           -3.23348533379127       -2.39497186489553        2.32284409757589
H           -2.61912669937193       -2.90321748759915        0.75033545474230
H           -1.68458231416060       -1.79065130952687        1.74159053520054
H           -4.44337217407942       -1.19670520824435        0.55895550430662
H           -3.48716849020888       -0.07116523876097        1.52112359466040
H           -2.32946770367453       -0.87300148426065       -2.52072582842999
H           -2.28058825104564       -2.23815809925969       -1.40797095209913
H           -3.83592409092591       -1.55373971398691       -1.89927296071401
H           -0.34412707641497        3.19815622461221        0.52954054529707
H            2.82719169503688        2.28365415626130       -0.42747894581799
H            2.65564243868931        2.08028584272430        1.30171191389674
H            1.89227128363215        3.46879262675823        0.50704987882689
27
 energy: -44.046094070647 gnorm: 0.000694537792 xtb: 6.7.1 (edcfbbe)
C           -2.68879667922030       -2.06525032386585        1.43914151714293
C           -3.42332205133823       -0.89170139255406        0.80304377415191
C           -2.80614811094826       -0.33662711030939       -0.48944214978151
H           -3.42230896054394        0.52285301232451       -0.78209854111104
C           -2.80733544714967       -1.32117706073999       -1.65109255224427
N           -1.47740280663450        0.26017836900496       -0.23385800102233
C           -0.30398922215939       -0.49312407292337       -0.29364160366058
O           -0.29625504953779       -1.69237026645403       -0.49409531255901
C            0.90929299110631        0.27709968340420       -0.09851457495828
C            0.91661719521536        1.60176410260220        0.18892075075278
N           -0.29616711125187        2.21253223428473        0.28995129847958
C           -1.50578434827479        1.59626722052624        0.10011376683240
O           -2.53846354142373        2.23424539561727        0.21947306205120
C            2.13792564778308        2.41593552748332        0.40821546702317
Br           2.52678310053528       -0.70987965642541       -0.24113424887490
H           -3.23139245268395       -2.39740397295076        2.32074051923609
H           -2.61084351738322       -2.89968399880010        0.74860506482180
H           -1.68294937746883       -1.78608806864999        1.74524452013776
H           -4.44220831083312       -1.19650413787663        0.56146984810288
H           -3.48476165116844       -0.06985215379967        1.52110004180253
H           -2.33719133349818       -0.87286419809649       -2.52352182769215
H           -2.27915295249551       -2.23709903106308       -1.41029207469534
H           -3.83869061043697       -1.55804459526514       -1.89505184644382
H           -0.34431662666239        3.19881235391014        0.52625342330606
H            2.82904977979049        2.28169635022561       -0.42197797048698
H            2.65231468645940        2.07777121413121        1.30672870975737
H            1.89291429130170        3.46750502044446        0.51042932386815
27
 energy: -44.046095596060 gnorm: 0.000397419319 xtb: 6.7.1 (edcfbbe)
C           -2.68630909730577       -2.06411774922569        1.43899149055941
C           -3.42238380199592       -0.89141957423518        0.80331992810620
C           -2.80687751702528       -0.33672439765130       -0.49002903030627
H           -3.42335289320728        0.52252323066038       -0.78246050222618
C           -2.80895109624077       -1.32161556649269       -1.65132044160711
N           -1.47789731225748        0.26060935572387       -0.23584265755474
C           -0.30466977085339       -0.49271862800975       -0.29515530150172
O           -0.29671818607451       -1.69204729029361       -0.49542803236472
C            0.90876126837086        0.27686444221311       -0.09797355084429
C            0.91626458560098        1.60155336174373        0.18935821368002
N           -0.29646309728959        2.21289519002599        0.28881512183362
C           -1.50601131272056        1.59685353338451        0.09795974815908
O           -2.53880547383196        2.23476295220270        0.21661261399317
C            2.13777439752205        2.41492682155472        0.41018102280642
Br           2.52578565825311       -0.71085696375343       -0.23835450874122
H           -3.22956228925435       -2.39879450383657        2.31917116906354
H           -2.60506184398091       -2.89751997796427        0.74751216416584
H           -1.68162165560722       -1.78304144014141        1.74719367553909
H           -4.44158816692115       -1.19663707198815        0.56318361303652
H           -3.48341625552141       -0.06919882605645        1.52113589222312
H           -2.34126910399778       -0.87316460457527       -2.52490934138604
H           -2.27910370198503       -2.23669984575101       -1.41164981696581
H           -3.84045286933553       -1.55976574395766       -1.89313911730906
H           -0.34490210925767        3.19916967464910        0.52498837527987
H            2.83000380782972        2.28002689440837       -0.41895649632955
H            2.65058758849014        2.07639472065807        1.30948585965298
H            1.89365777967519        3.46673245089276        0.51202029297425
27
 energy: -44.046096251738 gnorm: 0.000149019145 xtb: 6.7.1 (edcfbbe)
C           -2.68420687286141       -2.06320108884953        1.43902960620134
C           -3.42163558286087       -0.89147492213917        0.80332752577380
C           -2.80752688960244       -0.33674341368837       -0.49054422432534
H           -3.42424231585770        0.52239828551410       -0.78261460777520
C           -2.81005497668855       -1.32163878979252       -1.65174359995030
N           -1.47831201791710        0.26095470474391       -0.23718258158647
C           -0.30540113060886       -0.49249322835180       -0.29576175572951
O           -0.29740261926168       -1.69188034340730       -0.49606282998903
C            0.90828296130964        0.27655099444256       -0.09733325157464
C            0.91593768234406        1.60124678598636        0.18993906346272
N           -0.29672424464506        2.21295634226053        0.28864855834734
C           -1.50618024054647        1.59740449374379        0.09645162682420
O           -2.53902654900592        2.23544920685592        0.21373719383346
C            2.13763987426140        2.41409262201356        0.41144424583242
Br           2.52478317273657       -0.71182470067100       -0.23633435591290
H           -3.22756236389984       -2.39931435817343        2.31852016038771
H           -2.60073583588597       -2.89608972283550        0.74718846548811
H           -1.68036712053095       -1.78052798395211        1.74833271839168
H           -4.44083316033875       -1.19755495530466        0.56402737191888
H           -3.48294453608444       -0.06904700594166        1.52095736602522
H           -2.34376534138626       -0.87270216100083       -2.52600811254035
H           -2.27907149116606       -2.23633825539611       -1.41251767497090
H           -3.84185815047720       -1.56064556309435       -1.89231174743758
H           -0.34555522129429        3.19925740708719        0.52461973296434
H            2.83041361379518        2.27850521155009       -0.41711751956243
H            2.64963466198444        2.07557913315311        1.31124256443810
H            1.89413222556701        3.46607174943208        0.51277644540175
27
 energy: -44.046096560106 gnorm: 0.000311837923 xtb: 6.7.1 (edcfbbe)
C           -2.68283421002971       -2.06265984382944        1.43922226419551
C           -3.42111680756660       -0.89151396972467        0.80342778740857
C           -2.80781671422325       -0.33681312179196       -0.49077894274578
H           -3.42457151924939        0.52237635306114       -0.78254837593608
C           -2.81090474950640       -1.32163743693751       -1.65201648142472
N           -1.47844042164959        0.26106075663404       -0.23802406350842
C           -0.30568382227300       -0.49246620932646       -0.29623970685344
O           -0.29776834851729       -1.69184406732274       -0.49676482418218
C            0.90811003795954        0.27632179672670       -0.09716530672254
C            0.91576461323857        1.60098548973398        0.19023123494266
N           -0.29687082427695        2.21285055013685        0.28851048003739
C           -1.50627492330365        1.59765632330901        0.09540682245029
O           -2.53909850393381        2.23583399803638        0.21186999677919
C            2.13744738814859        2.41372005177049        0.41231421307909
Br           2.52441339136596       -0.71227093411291       -0.23544429269899
H           -3.22657423264555       -2.39976247128014        2.31807917737567
H           -2.59772661236175       -2.89518752344387        0.74713181001861
H           -1.67960317225961       -1.77895922846964        1.74956642756862
H           -4.44026026277907       -1.19815337707928        0.56460808352151
H           -3.48254976651763       -0.06895560510634        1.52090000518898