      -----------------------------------------------------------      
     |                   =====================                   |     
     |                           x T B                           |     
     |                   =====================                   |     
     |                         S. Grimme                         |     
     |          Mulliken Center for Theoretical Chemistry        |     
     |                    University of Bonn                     |     
      -----------------------------------------------------------      

   * xtb version 6.7.1 (edcfbbe) compiled by 'albert@albert-system' on 2024-07-22

   xtb is free software: you can redistribute it and/or modify it under
   the terms of the GNU Lesser General Public License as published by
   the Free Software Foundation, either version 3 of the License, or
   (at your option) any later version.
   
   xtb is distributed in the hope that it will be useful,
   but WITHOUT ANY WARRANTY; without even the implied warranty of
   MERCHANTABILITY or FITNESS FOR A PARTICULAR PURPOSE.  See the
   GNU Lesser General Public License for more details.
   
   Cite this work as:
   * C. Bannwarth, E. Caldeweyher, S. Ehlert, A. Hansen, P. Pracht,
     J. Seibert, S. Spicher, S. Grimme, WIREs Comput. Mol. Sci., 2020, 11,
     e01493. DOI: 10.1002/wcms.1493
   
   for GFN2-xTB:
   * C. Bannwarth, S. Ehlert and S. Grimme., J. Chem. Theory Comput., 2019,
     15, 1652-1671. DOI: 10.1021/acs.jctc.8b01176
   for GFN1-xTB:
   * S. Grimme, C. Bannwarth, P. Shushkov, J. Chem. Theory Comput., 2017,
     13, 1989-2009. DOI: 10.1021/acs.jctc.7b00118
   for GFN0-xTB:
   * P. Pracht, E. Caldeweyher, S. Ehlert, S. Grimme, ChemRxiv, 2019, preprint.
     DOI: 10.26434/chemrxiv.8326202.v1
   for GFN-FF:
   * S. Spicher and S. Grimme, Angew. Chem. Int. Ed., 2020, 59, 15665-15673.
     DOI: 10.1002/anie.202004239
   
   for ALPB and GBSA implicit solvation:
   * S. Ehlert, M. Stahn, S. Spicher, S. Grimme, J. Chem. Theory Comput.,
     2021, 17, 4250-4261. DOI: 10.1021/acs.jctc.1c00471
   
   for ddCOSMO and CPCM-X implicit solvation:
   * M. Stahn, S. Ehlert, S. Grimme, J. Phys. Chem. A,
     2023, XX, XXXX-XXXX. DOI: 10.1021/acs.jpca.3c04382
   
   for DFT-D4:
   * E. Caldeweyher, C. Bannwarth and S. Grimme, J. Chem. Phys., 2017,
     147, 034112. DOI: 10.1063/1.4993215
   * E. Caldeweyher, S. Ehlert, A. Hansen, H. Neugebauer, S. Spicher,
     C. Bannwarth and S. Grimme, J. Chem. Phys., 2019, 150, 154122.
     DOI: 10.1063/1.5090222
   * E. Caldeweyher, J.-M. Mewes, S. Ehlert and S. Grimme, Phys. Chem. Chem. Phys.
     2020, 22, 8499-8512. DOI: 10.1039/D0CP00502A
   
   for sTDA-xTB:
   * S. Grimme and C. Bannwarth, J. Chem. Phys., 2016, 145, 054103.
     DOI: 10.1063/1.4959605
   
   in the mass-spec context:
   * V. Asgeirsson, C. Bauer and S. Grimme, Chem. Sci., 2017, 8, 4879.
     DOI: 10.1039/c7sc00601b
   * J. Koopman and S. Grimme, ACS Omega 2019, 4, 12, 15120-15133.
     DOI: 10.1021/acsomega.9b02011
   
   for metadynamics refer to:
   * S. Grimme, J. Chem. Theory Comput., 2019, 155, 2847-2862
     DOI: 10.1021/acs.jctc.9b00143
   
   for SPH calculations refer to:
   * S. Spicher and S. Grimme, J. Chem. Theory Comput., 2021, 17, 1701-1714
     DOI: 10.1021/acs.jctc.0c01306
   
   for ONIOM refer to:
   * C. Plett, A. Katbashev, S. Ehlert, S. Grimme, M. Bursch,
     Phys. Chem. Chem. Phys., 2023, 25, 17860-17868. DOI: 10.1039/D3CP02178E
   
   for DIPRO refer to:
   * J. Kohn, N. Gildemeister, S. Grimme, D. Fazzi, A. Hansen,
     J. Chem. Phys., 2023, just accepted.
   
   for PTB refer to:
   * S. Grimme, M. Mueller, A. Hansen, J. Chem. Phys., 2023, 158, 124111.
     DOI: 10.1063/5.0137838
   
   with help from (in alphabetical order)
   P. Atkinson, C. Bannwarth, F. Bohle, G. Brandenburg, E. Caldeweyher
   M. Checinski, S. Dohm, S. Ehlert, S. Ehrlich, I. Gerasimov, C. Hölzer
   A. Katbashev, J. Kohn, J. Koopman, C. Lavigne, S. Lehtola, F. März, M. Müller,
   F. Musil, H. Neugebauer, J. Pisarek, C. Plett, P. Pracht, F. Pultar,
   J. Seibert, P. Shushkov, S. Spicher, M. Stahn, M. Steiner, T. Strunk,
   J. Stückrath, T. Rose, and J. Unsleber
   
 * started run on 2025/04/11 at 11:17:20.962     
   ID    Z sym.   atoms
    1    6 C      1-3, 5, 7, 9, 12, 13, 15-17
    2    7 N      4, 6, 11, 14
    3    8 O      8, 10
    4    1 H      18-35

           -------------------------------------------------
          |                Calculation Setup                |
           -------------------------------------------------

          program call               : /srv/scratch/z5358697/.xtb/bin/xtb solv.coord --gfn2 --sp --chrg 0 --norestart --parallel 1 --alpb water reference -I xtb_sp-xcontrol-inp
          hostname                   : k064
          coordinate file            : solv.coord
          omp threads                :                     1


           -------------------------------------------------
          |                 G F N 2 - x T B                 |
           -------------------------------------------------

        Reference                      10.1021/acs.jctc.8b01176
      * Hamiltonian:
        H0-scaling (s, p, d)           1.850000    2.230000    2.230000
        zeta-weighting                 0.500000
      * Dispersion:
        s8                             2.700000
        a1                             0.520000
        a2                             5.000000
        s9                             5.000000
      * Repulsion:
        kExp                           1.500000    1.000000
        rExp                           1.000000
      * Coulomb:
        alpha                          2.000000
        third order                    shell-resolved
        anisotropic                    true
        a3                             3.000000
        a5                             4.000000
        cn-shift                       1.200000
        cn-exp                         4.000000
        max-rad                        5.000000

      * Solvation model:               ALPB
        Solvent                        water
        Parameter file                 internal GFN2-xTB/ALPB
        Dielectric constant                8.0200E+01
        Reference state                gsolv=reference [X=1]
        Free energy shift                  2.8945E-03 Eh       1.8164E+00 kcal/mol
        Temperature                        2.9815E+02 K
        Density                            1.0000E+00 kg/L
        Solvent mass                       1.8000E+01 g/mol
        Interaction kernel             P16
        Born radius scaling (c1)           1.4744E+00
        Born radii integrator          GBOBC
        Born offset                        0.0000E+00 a0       0.0000E+00 AA
        H-bond correction              true
        Ion screening                  false
        Surface tension                    1.0000E-05 Eh       1.5569E+01 dyn/cm
        Grid points                               974 per atom

          ...................................................
          :                      SETUP                      :
          :.................................................:
          :  # basis functions                  86          :
          :  # atomic orbitals                  86          :
          :  # shells                           52          :
          :  # electrons                        94          :
          :  max. iterations                   250          :
          :  Hamiltonian                  GFN2-xTB          :
          :  restarted?                      false          :
          :  GBSA solvation                   true          :
          :  PC potential                    false          :
          :  electronic temp.          300.0000000     K    :
          :  accuracy                    1.0000000          :
          :  -> integral cutoff          0.2500000E+02      :
          :  -> integral neglect         0.1000000E-07      :
          :  -> SCF convergence          0.1000000E-05 Eh   :
          :  -> wf. convergence          0.1000000E-03 e    :
          :  Broyden damping             0.4000000          :
          :  net charge                          0          :
          :  unpaired electrons                  0          :
          ...................................................

 iter      E             dE          RMSdq      gap      omega  full diag
   1    -53.2427773 -0.532428E+02  0.385E+00    2.85       0.0  T
   2    -53.3246355 -0.818583E-01  0.227E+00    3.17       1.0  T
   3    -53.3266139 -0.197839E-02  0.958E-01    3.09       1.0  T
   4    -53.3295129 -0.289900E-02  0.226E-01    3.00       1.0  T
   5    -53.3303604 -0.847526E-03  0.827E-02    3.07       1.0  T
   6    -53.3303936 -0.331360E-04  0.412E-02    3.05       1.0  T
   7    -53.3304029 -0.936820E-05  0.143E-02    3.05       1.2  T
   8    -53.3304036 -0.689873E-06  0.599E-03    3.05       2.8  T
   9    -53.3304038 -0.224208E-06  0.263E-03    3.05       6.4  T
  10    -53.3304039 -0.528471E-07  0.134E-03    3.05      12.6  T
  11    -53.3304039 -0.997014E-08  0.387E-04    3.05      43.6  T
  12    -53.3304039 -0.998469E-09  0.187E-04    3.05      90.6  T

   *** convergence criteria satisfied after 12 iterations ***

         #    Occupation            Energy/Eh            Energy/eV
      -------------------------------------------------------------
         1        2.0000           -0.7488618             -20.3776
       ...           ...                  ...                  ...
        41        2.0000           -0.4352584             -11.8440
        42        2.0000           -0.4310992             -11.7308
        43        2.0000           -0.4190649             -11.4033
        44        2.0000           -0.4083228             -11.1110
        45        2.0000           -0.3988648             -10.8537
        46        2.0000           -0.3657119              -9.9515
        47        2.0000           -0.3617016              -9.8424 (HOMO)
        48                         -0.2495210              -6.7898 (LUMO)
        49                         -0.2193375              -5.9685
        50                         -0.1998672              -5.4387
        51                         -0.1101396              -2.9971
        52                         -0.0175605              -0.4778
       ...                                ...                  ...
        86                          0.6411770              17.4473
      -------------------------------------------------------------
                  HL-Gap            0.1121806 Eh            3.0526 eV
             Fermi-level           -0.3056113 Eh           -8.3161 eV

 SCC (total)                   0 d,  0 h,  0 min,  0.057 sec
 SCC setup                      ...        0 min,  0.003 sec (  4.685%)
 Dispersion                     ...        0 min,  0.000 sec (  0.641%)
 classical contributions        ...        0 min,  0.000 sec (  0.105%)
 integral evaluation            ...        0 min,  0.005 sec (  8.521%)
 iterations                     ...        0 min,  0.031 sec ( 54.376%)
 molecular gradient             ...        0 min,  0.018 sec ( 31.242%)
 printout                       ...        0 min,  0.000 sec (  0.404%)

         :::::::::::::::::::::::::::::::::::::::::::::::::::::
         ::                     SUMMARY                     ::
         :::::::::::::::::::::::::::::::::::::::::::::::::::::
         :: total energy             -52.662087281184 Eh    ::
         :: total w/o Gsasa/hb       -52.658919014625 Eh    ::
         :: gradient norm              0.000031896895 Eh/a0 ::
         :: HOMO-LUMO gap              3.052589895050 eV    ::
         ::.................................................::
         :: SCC energy               -53.330297645092 Eh    ::
         :: -> isotropic ES            0.117109119261 Eh    ::
         :: -> anisotropic ES         -0.009345812968 Eh    ::
         :: -> anisotropic XC          0.024220242170 Eh    ::
         :: -> dispersion             -0.031256569712 Eh    ::
         :: -> Gsolv                  -0.026507934819 Eh    ::
         ::    -> Gelec               -0.023339668261 Eh    ::
         ::    -> Gsasa               -0.001962581493 Eh    ::
         ::    -> Ghb                 -0.004100234226 Eh    ::
         ::    -> Gshift               0.002894549160 Eh    ::
         :: repulsion energy           0.668210363909 Eh    ::
         :: add. restraining           0.000000000000 Eh    ::
         :: total charge              -0.000000000000 e     ::
         :::::::::::::::::::::::::::::::::::::::::::::::::::::

           -------------------------------------------------
          |                Property Printout                |
           -------------------------------------------------

    * Orbital Energies and Occupations

         #    Occupation            Energy/Eh            Energy/eV
      -------------------------------------------------------------
         1        2.0000           -0.7488618             -20.3776
       ...           ...                  ...                  ...
        35        2.0000           -0.4722504             -12.8506
        36        2.0000           -0.4696367             -12.7795
        37        2.0000           -0.4669977             -12.7077
        38        2.0000           -0.4611699             -12.5491
        39        2.0000           -0.4574537             -12.4479
        40        2.0000           -0.4561560             -12.4126
        41        2.0000           -0.4352584             -11.8440
        42        2.0000           -0.4310992             -11.7308
        43        2.0000           -0.4190649             -11.4033
        44        2.0000           -0.4083228             -11.1110
        45        2.0000           -0.3988648             -10.8537
        46        2.0000           -0.3657119              -9.9515
        47        2.0000           -0.3617016              -9.8424 (HOMO)
        48                         -0.2495210              -6.7898 (LUMO)
        49                         -0.2193375              -5.9685
        50                         -0.1998672              -5.4387
        51                         -0.1101396              -2.9971
        52                         -0.0175605              -0.4778
        53                          0.0094495               0.2571
        54                          0.0380932               1.0366
        55                          0.0911925               2.4815
        56                          0.1022165               2.7815
        57                          0.1046529               2.8477
        58                          0.1318630               3.5882
       ...                                ...                  ...
        86                          0.6411770              17.4473
      -------------------------------------------------------------
                  HL-Gap            0.1121806 Eh            3.0526 eV
             Fermi-level           -0.3056113 Eh           -8.3161 eV

     #   Z          covCN         q      C6AA      α(0)
     1   6 C        3.756    -0.112    22.698     6.793
     2   6 C        2.955    -0.066    29.642     8.930
     3   6 C        2.964     0.107    25.638     8.305
     4   7 N        1.849    -0.336    29.567     8.059
     5   6 C        2.892     0.224    23.294     7.913
     6   7 N        1.843    -0.367    30.420     8.174
     7   6 C        2.880     0.234    23.121     7.883
     8   8 O        1.710    -0.310    19.164     5.911
     9   6 C        2.666     0.400    20.245     7.362
    10   8 O        0.858    -0.546    24.824     6.680
    11   7 N        2.730    -0.084    22.873     7.103
    12   6 C        3.705    -0.071    22.012     6.707
    13   6 C        3.697    -0.072    22.045     6.716
    14   7 N        2.748    -0.065    22.501     7.045
    15   6 C        3.701    -0.076    22.124     6.726
    16   6 C        3.701    -0.069    21.980     6.704
    17   6 C        3.761    -0.135    23.136     6.857
    18   1 H        0.925     0.061     2.190     2.314
    19   1 H        0.925     0.048     2.347     2.396
    20   1 H        0.925     0.057     2.230     2.336
    21   1 H        0.925     0.085     1.928     2.171
    22   1 H        0.925     0.084     1.939     2.178
    23   1 H        0.925     0.080     1.981     2.201
    24   1 H        0.925     0.080     1.978     2.199
    25   1 H        0.924     0.081     1.965     2.192
    26   1 H        0.925     0.090     1.875     2.142
    27   1 H        0.925     0.091     1.873     2.140
    28   1 H        0.924     0.075     2.028     2.227
    29   1 H        0.924     0.071     2.069     2.250
    30   1 H        0.924     0.070     2.091     2.261
    31   1 H        0.925     0.075     2.032     2.229
    32   1 H        0.924     0.074     2.042     2.235
    33   1 H        0.925     0.075     2.027     2.226
    34   1 H        0.925     0.073     2.049     2.238
    35   1 H        0.925     0.071     2.070     2.250

 Mol. C6AA /au·bohr⁶  :      11731.168621
 Mol. C8AA /au·bohr⁸  :     261734.754044
 Mol. α(0) /au        :        164.054403


Wiberg/Mayer (AO) data.
largest (>0.10) Wiberg bond orders for each atom

 ---------------------------------------------------------------------------
     #   Z sym  total        # sym  WBO       # sym  WBO       # sym  WBO
 ---------------------------------------------------------------------------
     1   6 C    3.993 --     2 C    1.026    19 H    0.984    20 H    0.971
                            18 H    0.969
     2   6 C    3.969 --     7 C    1.343     3 C    1.342     1 C    1.026
     3   6 C    3.971 --     4 N    1.426     2 C    1.342    17 C    1.031
     4   7 N    3.023 --     3 C    1.426     5 C    1.279
     5   6 C    3.970 --    14 N    1.283     4 N    1.279     6 N    1.254
     6   7 N    3.014 --     7 C    1.412     5 C    1.254
     7   6 C    3.917 --     6 N    1.412     2 C    1.343     8 O    0.983
     8   8 O    2.268 --     9 C    0.995     7 C    0.983    10 O    0.104
     9   6 C    3.935 --    10 O    1.567    11 N    1.289     8 O    0.995
    10   8 O    1.906 --     9 C    1.567    11 N    0.180     8 O    0.104
    11   7 N    3.515 --     9 C    1.289    13 C    0.987    12 C    0.986
                            10 O    0.180
    12   6 C    3.947 --    11 N    0.986    23 H    0.977    22 H    0.973
                            21 H    0.972
    13   6 C    3.948 --    11 N    0.987    24 H    0.977    26 H    0.973
                            25 H    0.971
    14   7 N    3.513 --     5 C    1.283    16 C    0.997    15 C    0.994
    15   6 C    3.953 --    14 N    0.994    28 H    0.973    27 H    0.973
                            29 H    0.973
    16   6 C    3.959 --    14 N    0.997    31 H    0.976    32 H    0.974
                            30 H    0.972
    17   6 C    3.990 --     3 C    1.031    33 H    0.982    34 H    0.963
                            35 H    0.961
    18   1 H    0.994 --     1 C    0.969
    19   1 H    0.998 --     1 C    0.984
    20   1 H    0.995 --     1 C    0.971
    21   1 H    0.992 --    12 C    0.972
    22   1 H    0.993 --    12 C    0.973
    23   1 H    0.994 --    12 C    0.977
    24   1 H    0.994 --    13 C    0.977
    25   1 H    0.993 --    13 C    0.971
    26   1 H    0.992 --    13 C    0.973
    27   1 H    0.992 --    15 C    0.973
    28   1 H    0.992 --    15 C    0.973
    29   1 H    0.992 --    15 C    0.973
    30   1 H    0.992 --    16 C    0.972
    31   1 H    0.994 --    16 C    0.976
    32   1 H    0.992 --    16 C    0.974
    33   1 H    0.994 --    17 C    0.982
    34   1 H    0.994 --    17 C    0.963
    35   1 H    0.994 --    17 C    0.961
 ---------------------------------------------------------------------------

Topologies differ in total number of bonds
Writing topology from bond orders to xtbtopo.mol

molecular dipole:
                 x           y           z       tot (Debye)
 q only:       -0.382      -0.002       1.266
   full:       -0.639      -0.378       1.251       3.697
molecular quadrupole (traceless):
                xx          xy          yy          xz          yz          zz
 q only:       22.582       4.879       0.339      -8.027       3.211     -22.921
  q+dip:       17.142       5.949       1.907      -7.840       5.038     -19.048
   full:       16.557       5.762       1.270      -7.421       4.567     -17.827


           -------------------------------------------------
          | TOTAL ENERGY              -52.662087281184 Eh   |
          | GRADIENT NORM               0.000031896895 Eh/α |
          | HOMO-LUMO GAP               3.052589895050 eV   |
           -------------------------------------------------

------------------------------------------------------------------------
 * finished run on 2025/04/11 at 11:17:21.078     
------------------------------------------------------------------------
 total:
 * wall-time:     0 d,  0 h,  0 min,  0.115 sec
 *  cpu-time:     0 d,  0 h,  0 min,  0.059 sec
 * ratio c/w:     0.517 speedup
 SCF:
 * wall-time:     0 d,  0 h,  0 min,  0.058 sec
 *  cpu-time:     0 d,  0 h,  0 min,  0.046 sec
 * ratio c/w:     0.795 speedup

