      -----------------------------------------------------------      
     |                   =====================                   |     
     |                           x T B                           |     
     |                   =====================                   |     
     |                         S. Grimme                         |     
     |          Mulliken Center for Theoretical Chemistry        |     
     |                    University of Bonn                     |     
      -----------------------------------------------------------      

   * xtb version 6.7.1 (edcfbbe) compiled by 'albert@albert-system' on 2024-07-22

   xtb is free software: you can redistribute it and/or modify it under
   the terms of the GNU Lesser General Public License as published by
   the Free Software Foundation, either version 3 of the License, or
   (at your option) any later version.
   
   xtb is distributed in the hope that it will be useful,
   but WITHOUT ANY WARRANTY; without even the implied warranty of
   MERCHANTABILITY or FITNESS FOR A PARTICULAR PURPOSE.  See the
   GNU Lesser General Public License for more details.
   
   Cite this work as:
   * C. Bannwarth, E. Caldeweyher, S. Ehlert, A. Hansen, P. Pracht,
     J. Seibert, S. Spicher, S. Grimme, WIREs Comput. Mol. Sci., 2020, 11,
     e01493. DOI: 10.1002/wcms.1493
   
   for GFN2-xTB:
   * C. Bannwarth, S. Ehlert and S. Grimme., J. Chem. Theory Comput., 2019,
     15, 1652-1671. DOI: 10.1021/acs.jctc.8b01176
   for GFN1-xTB:
   * S. Grimme, C. Bannwarth, P. Shushkov, J. Chem. Theory Comput., 2017,
     13, 1989-2009. DOI: 10.1021/acs.jctc.7b00118
   for GFN0-xTB:
   * P. Pracht, E. Caldeweyher, S. Ehlert, S. Grimme, ChemRxiv, 2019, preprint.
     DOI: 10.26434/chemrxiv.8326202.v1
   for GFN-FF:
   * S. Spicher and S. Grimme, Angew. Chem. Int. Ed., 2020, 59, 15665-15673.
     DOI: 10.1002/anie.202004239
   
   for ALPB and GBSA implicit solvation:
   * S. Ehlert, M. Stahn, S. Spicher, S. Grimme, J. Chem. Theory Comput.,
     2021, 17, 4250-4261. DOI: 10.1021/acs.jctc.1c00471
   
   for ddCOSMO and CPCM-X implicit solvation:
   * M. Stahn, S. Ehlert, S. Grimme, J. Phys. Chem. A,
     2023, XX, XXXX-XXXX. DOI: 10.1021/acs.jpca.3c04382
   
   for DFT-D4:
   * E. Caldeweyher, C. Bannwarth and S. Grimme, J. Chem. Phys., 2017,
     147, 034112. DOI: 10.1063/1.4993215
   * E. Caldeweyher, S. Ehlert, A. Hansen, H. Neugebauer, S. Spicher,
     C. Bannwarth and S. Grimme, J. Chem. Phys., 2019, 150, 154122.
     DOI: 10.1063/1.5090222
   * E. Caldeweyher, J.-M. Mewes, S. Ehlert and S. Grimme, Phys. Chem. Chem. Phys.
     2020, 22, 8499-8512. DOI: 10.1039/D0CP00502A
   
   for sTDA-xTB:
   * S. Grimme and C. Bannwarth, J. Chem. Phys., 2016, 145, 054103.
     DOI: 10.1063/1.4959605
   
   in the mass-spec context:
   * V. Asgeirsson, C. Bauer and S. Grimme, Chem. Sci., 2017, 8, 4879.
     DOI: 10.1039/c7sc00601b
   * J. Koopman and S. Grimme, ACS Omega 2019, 4, 12, 15120-15133.
     DOI: 10.1021/acsomega.9b02011
   
   for metadynamics refer to:
   * S. Grimme, J. Chem. Theory Comput., 2019, 155, 2847-2862
     DOI: 10.1021/acs.jctc.9b00143
   
   for SPH calculations refer to:
   * S. Spicher and S. Grimme, J. Chem. Theory Comput., 2021, 17, 1701-1714
     DOI: 10.1021/acs.jctc.0c01306
   
   for ONIOM refer to:
   * C. Plett, A. Katbashev, S. Ehlert, S. Grimme, M. Bursch,
     Phys. Chem. Chem. Phys., 2023, 25, 17860-17868. DOI: 10.1039/D3CP02178E
   
   for DIPRO refer to:
   * J. Kohn, N. Gildemeister, S. Grimme, D. Fazzi, A. Hansen,
     J. Chem. Phys., 2023, just accepted.
   
   for PTB refer to:
   * S. Grimme, M. Mueller, A. Hansen, J. Chem. Phys., 2023, 158, 124111.
     DOI: 10.1063/5.0137838
   
   with help from (in alphabetical order)
   P. Atkinson, C. Bannwarth, F. Bohle, G. Brandenburg, E. Caldeweyher
   M. Checinski, S. Dohm, S. Ehlert, S. Ehrlich, I. Gerasimov, C. Hölzer
   A. Katbashev, J. Kohn, J. Koopman, C. Lavigne, S. Lehtola, F. März, M. Müller,
   F. Musil, H. Neugebauer, J. Pisarek, C. Plett, P. Pracht, F. Pultar,
   J. Seibert, P. Shushkov, S. Spicher, M. Stahn, M. Steiner, T. Strunk,
   J. Stückrath, T. Rose, and J. Unsleber
   
 * started run on 2025/04/11 at 12:19:04.147     
   ID    Z sym.   atoms
    1    6 C      1-3, 6, 7
    2    8 O      4, 5
    3    1 H      8-17

           -------------------------------------------------
          |                Calculation Setup                |
           -------------------------------------------------

          program call               : /srv/scratch/z5358697/.xtb/bin/xtb gas.coord --gfn2 --sp --chrg 0 --norestart --parallel 1
          hostname                   : k071
          coordinate file            : gas.coord
          omp threads                :                     1


           -------------------------------------------------
          |                 G F N 2 - x T B                 |
           -------------------------------------------------

        Reference                      10.1021/acs.jctc.8b01176
      * Hamiltonian:
        H0-scaling (s, p, d)           1.850000    2.230000    2.230000
        zeta-weighting                 0.500000
      * Dispersion:
        s8                             2.700000
        a1                             0.520000
        a2                             5.000000
        s9                             5.000000
      * Repulsion:
        kExp                           1.500000    1.000000
        rExp                           1.000000
      * Coulomb:
        alpha                          2.000000
        third order                    shell-resolved
        anisotropic                    true
        a3                             3.000000
        a5                             4.000000
        cn-shift                       1.200000
        cn-exp                         4.000000
        max-rad                        5.000000


          ...................................................
          :                      SETUP                      :
          :.................................................:
          :  # basis functions                  38          :
          :  # atomic orbitals                  38          :
          :  # shells                           24          :
          :  # electrons                        42          :
          :  max. iterations                   250          :
          :  Hamiltonian                  GFN2-xTB          :
          :  restarted?                      false          :
          :  GBSA solvation                  false          :
          :  PC potential                    false          :
          :  electronic temp.          300.0000000     K    :
          :  accuracy                    1.0000000          :
          :  -> integral cutoff          0.2500000E+02      :
          :  -> integral neglect         0.1000000E-07      :
          :  -> SCF convergence          0.1000000E-05 Eh   :
          :  -> wf. convergence          0.1000000E-03 e    :
          :  Broyden damping             0.4000000          :
          :  net charge                          0          :
          :  unpaired electrons                  0          :
          ...................................................

 iter      E             dE          RMSdq      gap      omega  full diag
   1    -24.1518298 -0.241518E+02  0.408E+00    5.94       0.0  T
   2    -24.2139389 -0.621091E-01  0.211E+00    4.71       1.0  T
   3    -24.2169329 -0.299402E-02  0.118E+00    5.20       1.0  T
   4    -24.2193259 -0.239298E-02  0.175E-01    4.91       1.0  T
   5    -24.2195464 -0.220498E-03  0.737E-02    4.98       1.0  T
   6    -24.2195505 -0.406695E-05  0.221E-02    4.97       1.1  T
   7    -24.2195514 -0.915290E-06  0.734E-03    4.97       3.3  T
   8    -24.2195515 -0.112369E-06  0.211E-03    4.97      11.5  T
   9    -24.2195515 -0.557073E-08  0.868E-04    4.97      27.9  T
  10    -24.2195515 -0.193755E-08  0.228E-04    4.97     106.6  T

   *** convergence criteria satisfied after 10 iterations ***

         #    Occupation            Energy/Eh            Energy/eV
      -------------------------------------------------------------
         1        2.0000           -0.7416814             -20.1822
       ...           ...                  ...                  ...
        15        2.0000           -0.4793806             -13.0446
        16        2.0000           -0.4770779             -12.9819
        17        2.0000           -0.4647567             -12.6467
        18        2.0000           -0.4621504             -12.5758
        19        2.0000           -0.4492890             -12.2258
        20        2.0000           -0.4392250             -11.9519
        21        2.0000           -0.4091950             -11.1348 (HOMO)
        22                         -0.2265223              -6.1640 (LUMO)
        23                         -0.0052003              -0.1415
        24                          0.1023640               2.7855
        25                          0.1100355               2.9942
        26                          0.1302694               3.5448
       ...                                ...                  ...
        38                          0.6204662              16.8837
      -------------------------------------------------------------
                  HL-Gap            0.1826727 Eh            4.9708 eV
             Fermi-level           -0.3178586 Eh           -8.6494 eV

 SCC (total)                   0 d,  0 h,  0 min,  0.022 sec
 SCC setup                      ...        0 min,  0.000 sec (  0.938%)
 Dispersion                     ...        0 min,  0.000 sec (  0.417%)
 classical contributions        ...        0 min,  0.000 sec (  0.099%)
 integral evaluation            ...        0 min,  0.001 sec (  5.484%)
 iterations                     ...        0 min,  0.017 sec ( 76.615%)
 molecular gradient             ...        0 min,  0.003 sec ( 15.608%)
 printout                       ...        0 min,  0.000 sec (  0.770%)

         :::::::::::::::::::::::::::::::::::::::::::::::::::::
         ::                     SUMMARY                     ::
         :::::::::::::::::::::::::::::::::::::::::::::::::::::
         :: total energy             -23.949915557420 Eh    ::
         :: gradient norm              0.028827167629 Eh/a0 ::
         :: HOMO-LUMO gap              4.970776292854 eV    ::
         ::.................................................::
         :: SCC energy               -24.219518972145 Eh    ::
         :: -> isotropic ES            0.047745301858 Eh    ::
         :: -> anisotropic ES          0.001604712055 Eh    ::
         :: -> anisotropic XC          0.005882563592 Eh    ::
         :: -> dispersion             -0.009090179160 Eh    ::
         :: repulsion energy           0.269603414725 Eh    ::
         :: add. restraining           0.000000000000 Eh    ::
         :: total charge              -0.000000000000 e     ::
         :::::::::::::::::::::::::::::::::::::::::::::::::::::

           -------------------------------------------------
          |                Property Printout                |
           -------------------------------------------------

    * Orbital Energies and Occupations

         #    Occupation            Energy/Eh            Energy/eV
      -------------------------------------------------------------
         1        2.0000           -0.7416814             -20.1822
       ...           ...                  ...                  ...
         9        2.0000           -0.5550971             -15.1050
        10        2.0000           -0.5512910             -15.0014
        11        2.0000           -0.5232578             -14.2386
        12        2.0000           -0.5087897             -13.8449
        13        2.0000           -0.5020935             -13.6627
        14        2.0000           -0.4889156             -13.3041
        15        2.0000           -0.4793806             -13.0446
        16        2.0000           -0.4770779             -12.9819
        17        2.0000           -0.4647567             -12.6467
        18        2.0000           -0.4621504             -12.5758
        19        2.0000           -0.4492890             -12.2258
        20        2.0000           -0.4392250             -11.9519
        21        2.0000           -0.4091950             -11.1348 (HOMO)
        22                         -0.2265223              -6.1640 (LUMO)
        23                         -0.0052003              -0.1415
        24                          0.1023640               2.7855
        25                          0.1100355               2.9942
        26                          0.1302694               3.5448
        27                          0.1423399               3.8733
        28                          0.1481130               4.0304
        29                          0.1560281               4.2457
        30                          0.1691187               4.6020
        31                          0.1707677               4.6468
        32                          0.1856075               5.0506
       ...                                ...                  ...
        38                          0.6204662              16.8837
      -------------------------------------------------------------
                  HL-Gap            0.1826727 Eh            4.9708 eV
             Fermi-level           -0.3178586 Eh           -8.6494 eV

     #   Z          covCN         q      C6AA      α(0)
     1   6 C        3.753    -0.103    22.519     6.767
     2   6 C        3.802    -0.086    22.135     6.698
     3   6 C        2.712     0.356    20.955     7.493
     4   8 O        0.856    -0.427    22.229     6.321
     5   8 O        1.704    -0.260    18.305     5.777
     6   6 C        3.693     0.079    19.433     6.307
     7   6 C        3.751    -0.115    22.771     6.805
     8   1 H        0.925     0.044     2.391     2.418
     9   1 H        0.925     0.048     2.350     2.397
    10   1 H        0.925     0.053     2.288     2.365
    11   1 H        0.925     0.066     2.133     2.284
    12   1 H        0.924     0.064     2.150     2.293
    13   1 H        0.924     0.049     2.327     2.385
    14   1 H        0.924     0.062     2.177     2.307
    15   1 H        0.925     0.053     2.278     2.360
    16   1 H        0.925     0.057     2.234     2.337
    17   1 H        0.925     0.059     2.209     2.324

 Mol. C6AA /au·bohr⁶  :       2216.999037
 Mol. C8AA /au·bohr⁸  :      47032.774785
 Mol. α(0) /au        :         69.640693


Wiberg/Mayer (AO) data.
largest (>0.10) Wiberg bond orders for each atom

 ---------------------------------------------------------------------------
     #   Z sym  total        # sym  WBO       # sym  WBO       # sym  WBO
 ---------------------------------------------------------------------------
     1   6 C    3.993 --     2 C    1.004     8 H    0.988    10 H    0.986
                             9 H    0.986
     2   6 C    3.994 --     1 C    1.004    11 H    0.975     3 C    0.971
                            12 H    0.957
     3   6 C    3.915 --     4 O    1.734     5 O    1.155     2 C    0.971
     4   8 O    2.017 --     3 C    1.734     5 O    0.175
     5   8 O    2.318 --     3 C    1.155     6 C    0.931     4 O    0.175
     6   6 C    3.926 --     7 C    1.019    13 H    0.969    14 H    0.968
                             5 O    0.931
     7   6 C    3.992 --     6 C    1.019    16 H    0.986    17 H    0.985
                            15 H    0.983
     8   1 H    0.998 --     1 C    0.988
     9   1 H    0.998 --     1 C    0.986
    10   1 H    0.997 --     1 C    0.986
    11   1 H    0.995 --     2 C    0.975
    12   1 H    0.996 --     2 C    0.957
    13   1 H    0.998 --     6 C    0.969
    14   1 H    0.996 --     6 C    0.968
    15   1 H    0.996 --     7 C    0.983
    16   1 H    0.997 --     7 C    0.986
    17   1 H    0.996 --     7 C    0.985
 ---------------------------------------------------------------------------

Topologies differ in total number of bonds
Writing topology from bond orders to xtbtopo.mol

molecular dipole:
                 x           y           z       tot (Debye)
 q only:        0.289       0.917       0.472
   full:        0.276       0.915       0.542       2.793
molecular quadrupole (traceless):
                xx          xy          yy          xz          yz          zz
 q only:        7.522      -0.801      -4.875      -1.317      -2.836      -2.647
  q+dip:        6.829      -1.343      -6.149      -1.201      -3.925      -0.679
   full:        7.015      -1.310      -5.903      -1.325      -4.419      -1.111


           -------------------------------------------------
          | TOTAL ENERGY              -23.949915557420 Eh   |
          | GRADIENT NORM               0.028827167629 Eh/α |
          | HOMO-LUMO GAP               4.970776292854 eV   |
           -------------------------------------------------

------------------------------------------------------------------------
 * finished run on 2025/04/11 at 12:19:04.196     
------------------------------------------------------------------------
 total:
 * wall-time:     0 d,  0 h,  0 min,  0.048 sec
 *  cpu-time:     0 d,  0 h,  0 min,  0.018 sec
 * ratio c/w:     0.374 speedup
 SCF:
 * wall-time:     0 d,  0 h,  0 min,  0.022 sec
 *  cpu-time:     0 d,  0 h,  0 min,  0.010 sec
 * ratio c/w:     0.448 speedup

