      -----------------------------------------------------------      
     |                   =====================                   |     
     |                           x T B                           |     
     |                   =====================                   |     
     |                         S. Grimme                         |     
     |          Mulliken Center for Theoretical Chemistry        |     
     |                    University of Bonn                     |     
      -----------------------------------------------------------      

   * xtb version 6.7.1 (edcfbbe) compiled by 'albert@albert-system' on 2024-07-22

   xtb is free software: you can redistribute it and/or modify it under
   the terms of the GNU Lesser General Public License as published by
   the Free Software Foundation, either version 3 of the License, or
   (at your option) any later version.
   
   xtb is distributed in the hope that it will be useful,
   but WITHOUT ANY WARRANTY; without even the implied warranty of
   MERCHANTABILITY or FITNESS FOR A PARTICULAR PURPOSE.  See the
   GNU Lesser General Public License for more details.
   
   Cite this work as:
   * C. Bannwarth, E. Caldeweyher, S. Ehlert, A. Hansen, P. Pracht,
     J. Seibert, S. Spicher, S. Grimme, WIREs Comput. Mol. Sci., 2020, 11,
     e01493. DOI: 10.1002/wcms.1493
   
   for GFN2-xTB:
   * C. Bannwarth, S. Ehlert and S. Grimme., J. Chem. Theory Comput., 2019,
     15, 1652-1671. DOI: 10.1021/acs.jctc.8b01176
   for GFN1-xTB:
   * S. Grimme, C. Bannwarth, P. Shushkov, J. Chem. Theory Comput., 2017,
     13, 1989-2009. DOI: 10.1021/acs.jctc.7b00118
   for GFN0-xTB:
   * P. Pracht, E. Caldeweyher, S. Ehlert, S. Grimme, ChemRxiv, 2019, preprint.
     DOI: 10.26434/chemrxiv.8326202.v1
   for GFN-FF:
   * S. Spicher and S. Grimme, Angew. Chem. Int. Ed., 2020, 59, 15665-15673.
     DOI: 10.1002/anie.202004239
   
   for ALPB and GBSA implicit solvation:
   * S. Ehlert, M. Stahn, S. Spicher, S. Grimme, J. Chem. Theory Comput.,
     2021, 17, 4250-4261. DOI: 10.1021/acs.jctc.1c00471
   
   for ddCOSMO and CPCM-X implicit solvation:
   * M. Stahn, S. Ehlert, S. Grimme, J. Phys. Chem. A,
     2023, XX, XXXX-XXXX. DOI: 10.1021/acs.jpca.3c04382
   
   for DFT-D4:
   * E. Caldeweyher, C. Bannwarth and S. Grimme, J. Chem. Phys., 2017,
     147, 034112. DOI: 10.1063/1.4993215
   * E. Caldeweyher, S. Ehlert, A. Hansen, H. Neugebauer, S. Spicher,
     C. Bannwarth and S. Grimme, J. Chem. Phys., 2019, 150, 154122.
     DOI: 10.1063/1.5090222
   * E. Caldeweyher, J.-M. Mewes, S. Ehlert and S. Grimme, Phys. Chem. Chem. Phys.
     2020, 22, 8499-8512. DOI: 10.1039/D0CP00502A
   
   for sTDA-xTB:
   * S. Grimme and C. Bannwarth, J. Chem. Phys., 2016, 145, 054103.
     DOI: 10.1063/1.4959605
   
   in the mass-spec context:
   * V. Asgeirsson, C. Bauer and S. Grimme, Chem. Sci., 2017, 8, 4879.
     DOI: 10.1039/c7sc00601b
   * J. Koopman and S. Grimme, ACS Omega 2019, 4, 12, 15120-15133.
     DOI: 10.1021/acsomega.9b02011
   
   for metadynamics refer to:
   * S. Grimme, J. Chem. Theory Comput., 2019, 155, 2847-2862
     DOI: 10.1021/acs.jctc.9b00143
   
   for SPH calculations refer to:
   * S. Spicher and S. Grimme, J. Chem. Theory Comput., 2021, 17, 1701-1714
     DOI: 10.1021/acs.jctc.0c01306
   
   for ONIOM refer to:
   * C. Plett, A. Katbashev, S. Ehlert, S. Grimme, M. Bursch,
     Phys. Chem. Chem. Phys., 2023, 25, 17860-17868. DOI: 10.1039/D3CP02178E
   
   for DIPRO refer to:
   * J. Kohn, N. Gildemeister, S. Grimme, D. Fazzi, A. Hansen,
     J. Chem. Phys., 2023, just accepted.
   
   for PTB refer to:
   * S. Grimme, M. Mueller, A. Hansen, J. Chem. Phys., 2023, 158, 124111.
     DOI: 10.1063/5.0137838
   
   with help from (in alphabetical order)
   P. Atkinson, C. Bannwarth, F. Bohle, G. Brandenburg, E. Caldeweyher
   M. Checinski, S. Dohm, S. Ehlert, S. Ehrlich, I. Gerasimov, C. Hölzer
   A. Katbashev, J. Kohn, J. Koopman, C. Lavigne, S. Lehtola, F. März, M. Müller,
   F. Musil, H. Neugebauer, J. Pisarek, C. Plett, P. Pracht, F. Pultar,
   J. Seibert, P. Shushkov, S. Spicher, M. Stahn, M. Steiner, T. Strunk,
   J. Stückrath, T. Rose, and J. Unsleber
   
 * started run on 2025/04/11 at 11:52:26.237     
   ID    Z sym.   atoms
    1    6 C      1, 3, 4
    2    8 O      2, 5
    3    1 H      6-13

           -------------------------------------------------
          |                Calculation Setup                |
           -------------------------------------------------

          program call               : /srv/scratch/z5358697/.xtb/bin/xtb solv.coord --gfn2 --sp --chrg 0 --norestart --parallel 1 --alpb water reference -I xtb_sp-xcontrol-inp
          hostname                   : k133
          coordinate file            : solv.coord
          omp threads                :                     1


           -------------------------------------------------
          |                 G F N 2 - x T B                 |
           -------------------------------------------------

        Reference                      10.1021/acs.jctc.8b01176
      * Hamiltonian:
        H0-scaling (s, p, d)           1.850000    2.230000    2.230000
        zeta-weighting                 0.500000
      * Dispersion:
        s8                             2.700000
        a1                             0.520000
        a2                             5.000000
        s9                             5.000000
      * Repulsion:
        kExp                           1.500000    1.000000
        rExp                           1.000000
      * Coulomb:
        alpha                          2.000000
        third order                    shell-resolved
        anisotropic                    true
        a3                             3.000000
        a5                             4.000000
        cn-shift                       1.200000
        cn-exp                         4.000000
        max-rad                        5.000000

      * Solvation model:               ALPB
        Solvent                        water
        Parameter file                 internal GFN2-xTB/ALPB
        Dielectric constant                8.0200E+01
        Reference state                gsolv=reference [X=1]
        Free energy shift                  2.8945E-03 Eh       1.8164E+00 kcal/mol
        Temperature                        2.9815E+02 K
        Density                            1.0000E+00 kg/L
        Solvent mass                       1.8000E+01 g/mol
        Interaction kernel             P16
        Born radius scaling (c1)           1.4744E+00
        Born radii integrator          GBOBC
        Born offset                        0.0000E+00 a0       0.0000E+00 AA
        H-bond correction              true
        Ion screening                  false
        Surface tension                    1.0000E-05 Eh       1.5569E+01 dyn/cm
        Grid points                               974 per atom

          ...................................................
          :                      SETUP                      :
          :.................................................:
          :  # basis functions                  28          :
          :  # atomic orbitals                  28          :
          :  # shells                           18          :
          :  # electrons                        32          :
          :  max. iterations                   250          :
          :  Hamiltonian                  GFN2-xTB          :
          :  restarted?                      false          :
          :  GBSA solvation                   true          :
          :  PC potential                    false          :
          :  electronic temp.          300.0000000     K    :
          :  accuracy                    1.0000000          :
          :  -> integral cutoff          0.2500000E+02      :
          :  -> integral neglect         0.1000000E-07      :
          :  -> SCF convergence          0.1000000E-05 Eh   :
          :  -> wf. convergence          0.1000000E-03 e    :
          :  Broyden damping             0.4000000          :
          :  net charge                          0          :
          :  unpaired electrons                  0          :
          ...................................................

 iter      E             dE          RMSdq      gap      omega  full diag
   1    -18.7535276 -0.187535E+02  0.470E+00   11.88       0.0  T
   2    -18.7804910 -0.269634E-01  0.242E+00   11.58       1.0  T
   3    -18.7813414 -0.850447E-03  0.684E-01   11.61       1.0  T
   4    -18.7814314 -0.899169E-04  0.145E-01   11.65       1.0  T
   5    -18.7814455 -0.141298E-04  0.357E-02   11.67       1.0  T
   6    -18.7814474 -0.191910E-05  0.155E-02   11.67       1.8  T
   7    -18.7814478 -0.391462E-06  0.402E-03   11.67       6.9  T
   8    -18.7814478 -0.171230E-07  0.203E-03   11.67      13.6  T
   9    -18.7814478 -0.449259E-08  0.370E-04   11.67      74.9  T
  10    -18.7814478 -0.182091E-09  0.165E-04   11.67     167.9  T

   *** convergence criteria satisfied after 10 iterations ***

         #    Occupation            Energy/Eh            Energy/eV
      -------------------------------------------------------------
         1        2.0000           -0.7016045             -19.0916
       ...           ...                  ...                  ...
        10        2.0000           -0.5126435             -13.9497
        11        2.0000           -0.4987507             -13.5717
        12        2.0000           -0.4720607             -12.8454
        13        2.0000           -0.4601186             -12.5205
        14        2.0000           -0.4494959             -12.2314
        15        2.0000           -0.4168691             -11.3436
        16        2.0000           -0.4000204             -10.8851 (HOMO)
        17                          0.0287893               0.7834 (LUMO)
        18                          0.0424524               1.1552
        19                          0.0927315               2.5234
        20                          0.1155350               3.1439
        21                          0.1331595               3.6235
       ...                                ...                  ...
        28                          0.2838454               7.7238
      -------------------------------------------------------------
                  HL-Gap            0.4288097 Eh           11.6685 eV
             Fermi-level           -0.1856156 Eh           -5.0509 eV

 SCC (total)                   0 d,  0 h,  0 min,  0.012 sec
 SCC setup                      ...        0 min,  0.001 sec (  6.886%)
 Dispersion                     ...        0 min,  0.000 sec (  0.429%)
 classical contributions        ...        0 min,  0.000 sec (  0.119%)
 integral evaluation            ...        0 min,  0.001 sec (  6.876%)
 iterations                     ...        0 min,  0.008 sec ( 65.438%)
 molecular gradient             ...        0 min,  0.002 sec ( 18.950%)
 printout                       ...        0 min,  0.000 sec (  1.181%)

         :::::::::::::::::::::::::::::::::::::::::::::::::::::
         ::                     SUMMARY                     ::
         :::::::::::::::::::::::::::::::::::::::::::::::::::::
         :: total energy             -18.617188744318 Eh    ::
         :: total w/o Gsasa/hb       -18.614194968806 Eh    ::
         :: gradient norm              0.000115727548 Eh/a0 ::
         :: HOMO-LUMO gap             11.668505610880 eV    ::
         ::.................................................::
         :: SCC energy               -18.781440404177 Eh    ::
         :: -> isotropic ES            0.055296249815 Eh    ::
         :: -> anisotropic ES          0.002138693085 Eh    ::
         :: -> anisotropic XC          0.000862806599 Eh    ::
         :: -> dispersion             -0.005926566179 Eh    ::
         :: -> Gsolv                  -0.010586386177 Eh    ::
         ::    -> Gelec               -0.007592610665 Eh    ::
         ::    -> Gsasa                0.001163520439 Eh    ::
         ::    -> Ghb                 -0.007051845111 Eh    ::
         ::    -> Gshift               0.002894549160 Eh    ::
         :: repulsion energy           0.164251659859 Eh    ::
         :: add. restraining           0.000000000000 Eh    ::
         :: total charge               0.000000000000 e     ::
         :::::::::::::::::::::::::::::::::::::::::::::::::::::

           -------------------------------------------------
          |                Property Printout                |
           -------------------------------------------------

    * Orbital Energies and Occupations

         #    Occupation            Energy/Eh            Energy/eV
      -------------------------------------------------------------
         1        2.0000           -0.7016045             -19.0916
       ...           ...                  ...                  ...
         4        2.0000           -0.6238473             -16.9757
         5        2.0000           -0.5931871             -16.1414
         6        2.0000           -0.5710262             -15.5384
         7        2.0000           -0.5562442             -15.1362
         8        2.0000           -0.5460394             -14.8585
         9        2.0000           -0.5351702             -14.5627
        10        2.0000           -0.5126435             -13.9497
        11        2.0000           -0.4987507             -13.5717
        12        2.0000           -0.4720607             -12.8454
        13        2.0000           -0.4601186             -12.5205
        14        2.0000           -0.4494959             -12.2314
        15        2.0000           -0.4168691             -11.3436
        16        2.0000           -0.4000204             -10.8851 (HOMO)
        17                          0.0287893               0.7834 (LUMO)
        18                          0.0424524               1.1552
        19                          0.0927315               2.5234
        20                          0.1155350               3.1439
        21                          0.1331595               3.6235
        22                          0.1464142               3.9841
        23                          0.1657697               4.5108
        24                          0.1965971               5.3497
        25                          0.2139983               5.8232
        26                          0.2256640               6.1406
        27                          0.2452740               6.6742
        28                          0.2838454               7.7238
      -------------------------------------------------------------
                  HL-Gap            0.4288097 Eh           11.6685 eV
             Fermi-level           -0.1856156 Eh           -5.0509 eV

     #   Z          covCN         q      C6AA      α(0)
     1   6 C        3.645     0.029    20.422     6.495
     2   8 O        1.699    -0.354    19.955     6.031
     3   6 C        3.695     0.067    19.615     6.336
     4   6 C        3.671     0.070    19.640     6.352
     5   8 O        1.655    -0.518    23.284     6.514
     6   1 H        0.924     0.037     2.491     2.468
     7   1 H        0.925     0.068     2.113     2.273
     8   1 H        0.924     0.052     2.296     2.370
     9   1 H        0.923     0.045     2.379     2.412
    10   1 H        0.924     0.062     2.174     2.306
    11   1 H        0.924     0.039     2.465     2.455
    12   1 H        0.924     0.036     2.508     2.476
    13   1 H        0.805     0.367     0.550     1.165

 Mol. C6AA /au·bohr⁶  :       1158.453460
 Mol. C8AA /au·bohr⁸  :      23460.385110
 Mol. α(0) /au        :         49.653703


Wiberg/Mayer (AO) data.
largest (>0.10) Wiberg bond orders for each atom

 ---------------------------------------------------------------------------
     #   Z sym  total        # sym  WBO       # sym  WBO       # sym  WBO
 ---------------------------------------------------------------------------
     1   6 C    3.941 --     2 O    0.982     7 H    0.980     6 H    0.978
                             8 H    0.978
     2   8 O    2.053 --     3 C    0.985     1 C    0.982
     3   6 C    3.952 --     4 C    0.993     2 O    0.985    10 H    0.969
                             9 H    0.966
     4   6 C    3.957 --     5 O    0.995     3 C    0.993    12 H    0.971
                            11 H    0.970
     5   8 O    1.903 --     4 C    0.995    13 H    0.852
     6   1 H    0.999 --     1 C    0.978
     7   1 H    0.995 --     1 C    0.980
     8   1 H    0.997 --     1 C    0.978
     9   1 H    0.998 --     3 C    0.966
    10   1 H    0.996 --     3 C    0.969
    11   1 H    0.998 --     4 C    0.970
    12   1 H    0.999 --     4 C    0.971
    13   1 H    0.865 --     5 O    0.852
 ---------------------------------------------------------------------------

Topologies differ in total number of bonds
Writing topology from bond orders to xtbtopo.mol

molecular dipole:
                 x           y           z       tot (Debye)
 q only:        0.728      -0.086       0.154
   full:        0.938      -0.075       0.188       2.439
molecular quadrupole (traceless):
                xx          xy          yy          xz          yz          zz
 q only:        2.604       2.462      -0.861       2.385      -1.814      -1.743
  q+dip:        3.077       2.718      -2.849       3.472      -1.987      -0.228
   full:        3.157       2.841      -2.084       3.413      -2.043      -1.073


           -------------------------------------------------
          | TOTAL ENERGY              -18.617188744318 Eh   |
          | GRADIENT NORM               0.000115727548 Eh/α |
          | HOMO-LUMO GAP              11.668505610880 eV   |
           -------------------------------------------------

------------------------------------------------------------------------
 * finished run on 2025/04/11 at 11:52:26.298     
------------------------------------------------------------------------
 total:
 * wall-time:     0 d,  0 h,  0 min,  0.061 sec
 *  cpu-time:     0 d,  0 h,  0 min,  0.015 sec
 * ratio c/w:     0.244 speedup
 SCF:
 * wall-time:     0 d,  0 h,  0 min,  0.012 sec
 *  cpu-time:     0 d,  0 h,  0 min,  0.008 sec
 * ratio c/w:     0.696 speedup

