21
 energy: -312.206292908173 gnorm: 0.001487283166 xtb: 6.7.1 (edcfbbe)
C            1.79044899889655        0.86996127309518       -1.06356957912437
C            1.44818517490624       -0.20281383336539       -0.03590646337900
H            2.21061971105269       -0.98716478557474       -0.11401823399331
C            0.08566291820037       -0.89196162223175       -0.21635181755881
C           -1.17995405383020       -0.16778533057762        0.27140770818672
C           -1.46698413560542        1.15283869042129       -0.44783246981418
C           -2.37618608803314       -1.11273068893875        0.11559428526787
O            1.60923855877253        0.30799902296723        1.30835819667541
H            1.67615919367350        0.47497815099971       -2.07852372260729
H            1.15121140442458        1.75113839861355       -0.96618183872075
H            2.82998227090422        1.18869448660210       -0.93587537376685
H           -0.03046528668461       -1.13694197593035       -1.28123657517253
H            0.13428669126302       -1.84887450117880        0.31890107182935
H           -1.06132850248123        0.04433061516855        1.34349013387251
H           -1.42994161730069        1.02189889197382       -1.53603494720486
H           -0.75736393978720        1.93790496874041       -0.17480051119328
H           -2.46803887745812        1.51531714812116       -0.18862763731267
H           -3.28821097937612       -0.66166743175732        0.52074590084719
H           -2.55426746204574       -1.33623020179334       -0.94381111634961
H           -2.20665304528709       -2.06178143624806        0.63566795115064
H            1.01296481780015        1.06312659866116        1.40017322067310
21
 energy: -312.206296479949 gnorm: 0.000698355956 xtb: 6.7.1 (edcfbbe)
C            1.78942483676081        0.86956079341605       -1.06349384911794
C            1.44757182799537       -0.20249148393464       -0.03593729972202
H            2.21034818451267       -0.98645151428865       -0.11314315929531
C            0.08560423997604       -0.89185303147857       -0.21683749021391
C           -1.18001401176182       -0.16773666961452        0.27111368197880
C           -1.46586231388837        1.15320524352541       -0.44746055519193
C           -2.37535172345950       -1.11294729806686        0.11545684003224
O            1.60845372772329        0.30904493722680        1.30923360007220
H            1.67513696784193        0.47448510568522       -2.07800056380880
H            1.15032940936403        1.75037057479876       -0.96682461413900
H            2.82898327031623        1.18810696256463       -0.93659701812532
H           -0.03051078556729       -1.13678014332982       -1.28182537446702
H            0.13458919738221       -1.84890893414055        0.31805128493097
H           -1.06177346851473        0.04396892822925        1.34308841588714
H           -1.43042790722509        1.02190383435948       -1.53593372147283
H           -0.75430774896844        1.93737358952930       -0.17556766378050
H           -2.46608440774010        1.51693751834697       -0.18621621620714
H           -3.28760157208730       -0.66161051632155        0.51995420407939
H           -2.55293278291617       -1.33690971152446       -0.94370592125463
H           -2.20587720787467       -2.06163723747831        0.63603708587971
H            1.00966806000795        1.06260540843121        1.40017667911114
21
 energy: -312.206296479949 gnorm: 0.000698355956 xtb: 6.7.1 (edcfbbe)
C            1.78942483676081        0.86956079341605       -1.06349384911794
C            1.44757182799537       -0.20249148393464       -0.03593729972202
H            2.21034818451267       -0.98645151428865       -0.11314315929531
C            0.08560423997604       -0.89185303147857       -0.21683749021391
C           -1.18001401176182       -0.16773666961452        0.27111368197880
C           -1.46586231388837        1.15320524352541       -0.44746055519193
C           -2.37535172345950       -1.11294729806686        0.11545684003224
O            1.60845372772329        0.30904493722680        1.30923360007220
H            1.67513696784193        0.47448510568522       -2.07800056380880
H            1.15032940936403        1.75037057479876       -0.96682461413900
H            2.82898327031623        1.18810696256463       -0.93659701812532
H           -0.03051078556729       -1.13678014332982       -1.28182537446702
H            0.13458919738221       -1.84890893414055        0.31805128493097
H           -1.06177346851473        0.04396892822925        1.34308841588714
H           -1.43042790722509        1.02190383435948       -1.53593372147283
H           -0.75430774896844        1.93737358952930       -0.17556766378050
H           -2.46608440774010        1.51693751834697       -0.18621621620714
H           -3.28760157208730       -0.66161051632155        0.51995420407939
H           -2.55293278291617       -1.33690971152446       -0.94370592125463
H           -2.20587720787467       -2.06163723747831        0.63603708587971
H            1.00966806000795        1.06260540843121        1.40017667911114
