
                                 *****************
                                 * O   R   C   A *
                                 *****************

                                            #,                                       
                                            ###                                      
                                            ####                                     
                                            #####                                    
                                            ######                                   
                                           ########,                                 
                                     ,,################,,,,,                         
                               ,,#################################,,                 
                          ,,##########################################,,             
                       ,#########################################, ''#####,          
                    ,#############################################,,   '####,        
                  ,##################################################,,,,####,       
                ,###########''''           ''''###############################       
              ,#####''   ,,,,##########,,,,          '''####'''          '####       
            ,##' ,,,,###########################,,,                        '##       
           ' ,,###''''                  '''############,,,                           
         ,,##''                                '''############,,,,        ,,,,,,###''
      ,#''                                            '''#######################'''  
     '                                                          ''''####''''         
             ,#######,   #######,   ,#######,      ##                                
            ,#'     '#,  ##    ##  ,#'     '#,    #''#        ,####,   ,####,        
            ##       ##  ##   ,#'  ##            #'  '#       #'       #'  '#        
            ##       ##  #######   ##           ,######,      #####,   #    #        
            '#,     ,#'  ##    ##  '#,     ,#' ,#      #,     #,   #   #,  ,#        
             '#######'   ##     ##  '#######'  #'      '#     '####' # '####'        



                #########################################################
                #                        -***-                          #
                #          Department of theory and spectroscopy        #
                #                                                       #
                #                      Frank Neese                      #
                #                                                       #
                #     Directorship, Architecture, Infrastructure        #
                #                    SHARK, DRIVERS                     #
                #        Core code/Algorithms in most modules           #
                #                                                       #
                #        Max Planck Institute fuer Kohlenforschung      #
                #                Kaiser Wilhelm Platz 1                 #
                #                 D-45470 Muelheim/Ruhr                 #
                #                      Germany                          #
                #                                                       #
                #                  All rights reserved                  #
                #                        -***-                          #
                #########################################################


                         Program Version 6.0.0  -   RELEASE  -


 With contributions from (in alphabetic order):
   Daniel Aravena         : Magnetic Suceptibility
   Michael Atanasov       : Ab Initio Ligand Field Theory (pilot matlab implementation)
   Alexander A. Auer      : GIAO ZORA, VPT2 properties, NMR spectrum
   Ute Becker             : All parallelization in ORCA, NUMFREQ, NUMCALC
   Giovanni Bistoni       : ED, misc. LED, open-shell LED, HFLD
   Martin Brehm           : Molecular dynamics
   Dmytro Bykov           : pre 5.0 version of the SCF Hessian
   Marcos Casanova-Páez   : Triplet and SCS-CIS(D). UHF-(DLPNO)-IP/EA/STEOM-CCSD. UHF-CVS-IP/STEOM-CCSD
   Vijay G. Chilkuri      : MRCI spin determinant printing, contributions to CSF-ICE
   Pauline Colinet        : FMM embedding
   Dipayan Datta          : RHF DLPNO-CCSD density
   Achintya Kumar Dutta   : EOM-CC, STEOM-CC
   Nicolas Foglia         : Exact transition moments, OPA infrastructure, MCD improvements
   Dmitry Ganyushin       : Spin-Orbit,Spin-Spin,Magnetic field MRCI
   Miquel Garcia          : C-PCM and meta-GGA Hessian, CCSD/C-PCM, Gaussian charge scheme
   Tiago L. C. Gouveia    : GS-ROHF, GS-ROCIS
   Yang Guo               : DLPNO-NEVPT2, F12-NEVPT2, CIM, IAO-localization
   Andreas Hansen         : Spin unrestricted coupled pair/coupled cluster methods
   Ingolf Harden          : AUTO-CI MPn and infrastructure 
   Benjamin Helmich-Paris : MC-RPA, TRAH-(SCF,CASSCF), AVAS, COSX integrals, SCF dyn. polar.
   Lee Huntington         : MR-EOM, pCC
   Robert Izsak           : Overlap fitted RIJCOSX, COSX-SCS-MP3, EOM
   Riya Kayal             : Wick's Theorem for AUTO-CI, AUTO-CI UHF-CCSDT
   Emily Kempfer          : AUTO-CI, RHF CISDT and CCSDT
   Christian Kollmar      : KDIIS, OOCD, Brueckner-CCSD(T), CCSD density, CASPT2, CASPT2-K, improved NEVPT2
   Axel Koslowski         : Symmetry handling
   Simone Kossmann        : Meta GGA functionals, TD-DFT gradient, OOMP2, (MP2 Hessian; deprecated post 5.0)
   Lucas Lang             : DCDCAS
   Marvin Lechner         : AUTO-CI (C++ implementation), FIC-MRCC
   Spencer Leger          : CASSCF response
   Dagmar Lenk            : GEPOL surface, SMD, ORCA-2-JSON
   Dimitrios Liakos       : Extrapolation schemes; Compound Job, initial MDCI parallelization
   Dimitrios Manganas     : Further ROCIS development; embedding schemes. LFT, Crystal Embedding
   Dimitrios Pantazis     : SARC Basis sets
   Anastasios Papadopoulos: AUTO-CI, single reference methods and gradients
   Taras Petrenko         : pre 6.0 DFT Hessian and TD-DFT gradient, (ASA, deprecated), ECA, 1-Electron XAS/XES, NRVS
   Peter Pinski           : DLPNO-MP2, DLPNO-MP2 Gradient
   Christoph Reimann      : Effective Core Potentials
   Marius Retegan         : Local ZFS, SOC
   Christoph Riplinger    : Optimizer, TS searches, QM/MM, DLPNO-CCSD(T), (RO)-DLPNO pert. Triples
   Michael Roemelt        : Original ROCIS implementation
   Masaaki Saitow         : Open-shell DLPNO-CCSD energy and density
   Barbara Sandhoefer     : DKH picture change effects
   Kantharuban Sivalingam : CASSCF convergence/infrastructure, NEVPT2 and variants, FIC-MRCI
   Bernardo de Souza      : ESD, SOC TD-DFT
   Georgi Stoychev        : AutoAux, RI-MP2 NMR, DLPNO-MP2 response, X2C
   Van Anh Tran           : RI-MP2 g-tensors
   Willem Van den Heuvel  : Paramagnetic NMR
   Zikuan Wang            : NOTCH, Electric field optimization 
   Frank Wennmohs         : Technical directorship and infrastructure
   Hang Xu                : AUTO-CI-Response properties 


 We gratefully acknowledge several colleagues who have allowed us to
 interface, adapt or use parts of their codes:
   Stefan Grimme, W. Hujo, H. Kruse, P. Pracht,  : VdW corrections, initial TS optimization,
                  C. Bannwarth, S. Ehlert,         DFT functionals, gCP, sTDA/sTD-DF
                  L. Wittmann, M. Mueller
   Ed Valeev, F. Pavosevic, A. Kumar             : LibInt (2-el integral package), F12 methods
   Garnet Chan, S. Sharma, J. Yang, R. Olivares  : DMRG
   Ulf Ekstrom                                   : XCFun DFT Library
   Mihaly Kallay                                 : mrcc  (arbitrary order and MRCC methods)
   Frank Weinhold                                : gennbo (NPA and NBO analysis)
   Simon Mueller                                 : openCOSMO-RS
   Christopher J. Cramer and Donald G. Truhlar   : smd solvation model
   Lars Goerigk                                  : TD-DFT with DH, B97 family of functionals
   V. Asgeirsson, H. Jonsson                     : NEB implementation
   FAccTs GmbH                                   : IRC, NEB, NEB-TS, DLPNO-Multilevel, CI-OPT
                                                   MM, QMMM, 2- and 3-layer-ONIOM, Crystal-QMMM,
                                                   LR-CPCM, SF, NACMEs, symmetry and pop. for TD-DFT,
                                                   nearIR, NL-DFT gradient (VV10), updates on ESD,
                                                   ML-optimized integration grids, MBIS, APM,
                                                   GOAT, DOCKER, SOLVATOR, interface openCOSMO-RS
   S Lehtola, MJT Oliveira, MAL Marques          : LibXC Library
   Liviu Ungur et al                             : ANISO software


 Your calculation uses the libint2 library for the computation of 2-el integrals
 For citations please refer to: http://libint.valeyev.net

 Your ORCA version has been built with support for libXC version: 6.2.2
 For citations please refer to: https://libxc.gitlab.io

 This ORCA versions uses:
   CBLAS   interface :  Fast vector & matrix operations
   LAPACKE interface :  Fast linear algebra routines
   SCALAPACK package :  Parallel linear algebra routines
   Shared memory     :  Shared parallel matrices
   BLAS/LAPACK       :  OpenBLAS 0.3.27  USE64BITINT DYNAMIC_ARCH NO_AFFINITY SkylakeX SINGLE_THREADED
        Core in use  :  SkylakeX
   Copyright (c) 2011-2014, The OpenBLAS Project


Your calculation utilizes the geometrical counterpoise correction gCP
Please cite in your paper:
H.Kruse, S. Grimme J.Chem.Phys., 136, (2012), 154101 
   

Your calculation utilizes the atom-pairwise dispersion correction
based on EEQ partial charges (D4)


================================================================================

----- Orbital basis set information -----
Your calculation utilizes the basis: def2-SV(P)
   F. Weigend and R. Ahlrichs, Phys. Chem. Chem. Phys. 7, 3297 (2005).

----- AuxJ basis set information -----
Your calculation utilizes the auxiliary basis: def2/J
   F. Weigend, Phys. Chem. Chem. Phys. 8, 1057 (2006).

================================================================================
                                        WARNINGS
                       Please study these warnings very carefully!
================================================================================


================================================================================
                                       INPUT FILE
================================================================================
NAME = sp.inp
|  1> ! pbe def2-sv(p) def2/J RI DEFGRID1 loosescf d4 GCP(DFT/SV(P)) printgap
|  2> %output
|  3>     printlevel normal
|  4> end
|  5> * xyz 0 1
|  6> C -2.9700668633 -0.0021990105 0.1899153312
|  7> C -1.6453454614 0.7460721732 0.2425288716
|  8> C -0.4823288365 -0.1260978485 -0.155623714
|  9> O -0.5658112235 -1.2533545338 -0.5956444802
| 10> O 0.6727615973 0.502216329 0.0339001116
| 11> C 1.8930754975 -0.1851288444 -0.2929250759
| 12> C 3.005253158 0.3675106265 0.5789069244
| 13> H -3.7866999636 0.6639460029 0.4500315382
| 14> H -3.1382067945 -0.398583568 -0.8081006709
| 15> H -2.9602816511 -0.8387136599 0.8838369475
| 16> H -1.4466218498 1.1316356714 1.2433095711
| 17> H -1.6563787206 1.5991348078 -0.4388883511
| 18> H 1.741170971 -1.2575551253 -0.1333357376
| 19> H 2.0985951409 -0.0158777442 -1.3545680284
| 20> H 3.9391854249 -0.1206784515 0.3207408452
| 21> H 3.1024142994 1.4372868872 0.4199163625
| 22> H 2.7854636792 0.1876120563 1.6273501885
| 23> *
| 24> 
| 25>                          ****END OF INPUT****
================================================================================

                       ****************************
                       * Single Point Calculation *
                       ****************************

---------------------------------
CARTESIAN COORDINATES (ANGSTROEM)
---------------------------------
  C     -2.970067   -0.002199    0.189915
  C     -1.645345    0.746072    0.242529
  C     -0.482329   -0.126098   -0.155624
  O     -0.565811   -1.253355   -0.595644
  O      0.672762    0.502216    0.033900
  C      1.893075   -0.185129   -0.292925
  C      3.005253    0.367511    0.578907
  H     -3.786700    0.663946    0.450032
  H     -3.138207   -0.398584   -0.808101
  H     -2.960282   -0.838714    0.883837
  H     -1.446622    1.131636    1.243310
  H     -1.656379    1.599135   -0.438888
  H      1.741171   -1.257555   -0.133336
  H      2.098595   -0.015878   -1.354568
  H      3.939185   -0.120678    0.320741
  H      3.102414    1.437287    0.419916
  H      2.785464    0.187612    1.627350

----------------------------
CARTESIAN COORDINATES (A.U.)
----------------------------
  NO LB      ZA    FRAG     MASS         X           Y           Z
   0 C     6.0000    0    12.011   -5.612613   -0.004156    0.358888
   1 C     6.0000    0    12.011   -3.109252    1.409872    0.458313
   2 C     6.0000    0    12.011   -0.911469   -0.238290   -0.294086
   3 O     8.0000    0    15.999   -1.069228   -2.368497   -1.125605
   4 O     8.0000    0    15.999    1.271335    0.949051    0.064062
   5 C     6.0000    0    12.011    3.577394   -0.349843   -0.553548
   6 C     6.0000    0    12.011    5.679105    0.694494    1.093976
   7 H     1.0000    0     1.008   -7.155826    1.254676    0.850436
   8 H     1.0000    0     1.008   -5.930351   -0.753214   -1.527089
   9 H     1.0000    0     1.008   -5.594122   -1.584939    1.670210
  10 H     1.0000    0     1.008   -2.733719    2.138482    2.349515
  11 H     1.0000    0     1.008   -3.130102    3.021927   -0.829379
  12 H     1.0000    0     1.008    3.290336   -2.376435   -0.251968
  13 H     1.0000    0     1.008    3.965770   -0.030005   -2.559763
  14 H     1.0000    0     1.008    7.443982   -0.228049    0.606112
  15 H     1.0000    0     1.008    5.862713    2.716079    0.793527
  16 H     1.0000    0     1.008    5.263764    0.354535    3.075246

--------------------------------
INTERNAL COORDINATES (ANGSTROEM)
--------------------------------
 C      0   0   0     0.000000000000     0.00000000     0.00000000
 C      1   0   0     1.522354998560     0.00000000     0.00000000
 C      2   1   0     1.507253693963   112.20326346     0.00000000
 O      3   2   1     1.212969586667   125.48428157     6.81040004
 O      3   2   1     1.328507394174   111.07167642   186.65451580
 C      5   3   2     1.438201691559   118.63911096   179.92464553
 C      6   5   3     1.517379507592   108.49894472   207.32632353
 H      1   2   3     1.085494928835   110.16528872   181.88054639
 H      1   2   3     1.086935000051   110.21791786   302.34351244
 H      1   2   3     1.086912930555   110.38879439    61.41014175
 H      2   1   3     1.090739333408   111.34586245   239.01926666
 H      2   1   3     1.091864012939   110.71130907   119.66977898
 H      6   5   3     1.094825040833   108.49910547   329.23622166
 H      6   5   3     1.094518166745   107.80877928    86.66803847
 H      7   6   5     1.084992064250   109.28849472   181.77361631
 H      7   6   5     1.085881915370   109.89283708   301.77652907
 H      7   6   5     1.086233947448   110.23970623    61.71402320

---------------------------
INTERNAL COORDINATES (A.U.)
---------------------------
 C      0   0   0     0.000000000000     0.00000000     0.00000000
 C      1   0   0     2.876834025885     0.00000000     0.00000000
 C      2   1   0     2.848296695932   112.20326346     0.00000000
 O      3   2   1     2.292180327577   125.48428157     6.81040004
 O      3   2   1     2.510515141877   111.07167642   186.65451580
 C      5   3   2     2.717807322388   118.63911096   179.92464553
 C      6   5   3     2.867431710572   108.49894472   207.32632353
 H      1   2   3     2.051288135259   110.16528872   181.88054639
 H      1   2   3     2.054009475470   110.21791786   302.34351244
 H      1   2   3     2.053967770166   110.38879439    61.41014175
 H      2   1   3     2.061198623637   111.34586245   239.01926666
 H      2   1   3     2.063323959939   110.71130907   119.66977898
 H      6   5   3     2.068919491734   108.49910547   329.23622166
 H      6   5   3     2.068339583750   107.80877928    86.66803847
 H      7   6   5     2.050337858910   109.28849472   181.77361631
 H      7   6   5     2.052019433828   109.89283708   301.77652907
 H      7   6   5     2.052684678044   110.23970623    61.71402320

---------------------
BASIS SET INFORMATION
---------------------
There are 3 groups of distinct atoms

 Group   1 Type C   : 7s4p1d contracted to 3s2p1d pattern {511/31/1}
 Group   2 Type O   : 7s4p1d contracted to 3s2p1d pattern {511/31/1}
 Group   3 Type H   : 4s contracted to 2s pattern {31}

Atom   0C    basis set group =>   1
Atom   1C    basis set group =>   1
Atom   2C    basis set group =>   1
Atom   3O    basis set group =>   2
Atom   4O    basis set group =>   2
Atom   5C    basis set group =>   1
Atom   6C    basis set group =>   1
Atom   7H    basis set group =>   3
Atom   8H    basis set group =>   3
Atom   9H    basis set group =>   3
Atom  10H    basis set group =>   3
Atom  11H    basis set group =>   3
Atom  12H    basis set group =>   3
Atom  13H    basis set group =>   3
Atom  14H    basis set group =>   3
Atom  15H    basis set group =>   3
Atom  16H    basis set group =>   3
---------------------------------
AUXILIARY/J BASIS SET INFORMATION
---------------------------------
There are 3 groups of distinct atoms

 Group   1 Type C   : 12s5p4d2f1g contracted to 6s4p3d1f1g pattern {711111/2111/211/2/1}
 Group   2 Type O   : 12s5p4d2f1g contracted to 6s4p3d1f1g pattern {711111/2111/211/2/1}
 Group   3 Type H   : 5s2p1d contracted to 3s1p1d pattern {311/2/1}

Atom   0C    basis set group =>   1
Atom   1C    basis set group =>   1
Atom   2C    basis set group =>   1
Atom   3O    basis set group =>   2
Atom   4O    basis set group =>   2
Atom   5C    basis set group =>   1
Atom   6C    basis set group =>   1
Atom   7H    basis set group =>   3
Atom   8H    basis set group =>   3
Atom   9H    basis set group =>   3
Atom  10H    basis set group =>   3
Atom  11H    basis set group =>   3
Atom  12H    basis set group =>   3
Atom  13H    basis set group =>   3
Atom  14H    basis set group =>   3
Atom  15H    basis set group =>   3
Atom  16H    basis set group =>   3
------------------------------------------------------------------------------
                             ORCA STARTUP CALCULATIONS
                           -- RI-GTO INTEGRALS CHOSEN --
------------------------------------------------------------------------------
------------------------------------------------------------------------------
                   ___                                                        
                  /   \      - P O W E R E D   B Y -                         
                 /     \                                                     
                 |  |  |   _    _      __       _____    __    __             
                 |  |  |  | |  | |    /  \     |  _  \  |  |  /  |          
                  \  \/   | |  | |   /    \    | | | |  |  | /  /          
                 / \  \   | |__| |  /  /\  \   | |_| |  |  |/  /          
                |  |  |   |  __  | /  /__\  \  |    /   |      \           
                |  |  |   | |  | | |   __   |  |    \   |  |\   \          
                \     /   | |  | | |  |  |  |  | |\  \  |  | \   \       
                 \___/    |_|  |_| |__|  |__|  |_| \__\ |__|  \__/        
                                                                              
                      - O R C A' S   B I G   F R I E N D -                    
                                      &                                       
                       - I N T E G R A L  F E E D E R -                       
                                                                              
 v1 FN, 2020, v2 2021, v3 2022-2024                                           
------------------------------------------------------------------------------


----------------------
SHARK INTEGRAL PACKAGE
----------------------

Number of atoms                             ...     17
Number of basis functions                   ...    118
Number of shells                            ...     62
Maximum angular momentum                    ...      2
Integral batch strategy                     ... SHARK/LIBINT Hybrid
RI-J (if used) integral strategy            ... SPLIT-RIJ (Revised 2003 algorithm where possible)
Printlevel                                  ...      1
Contraction scheme used                     ... SEGMENTED contraction
Prescreening option                         ... SCHWARTZ
   Thresh                                   ... 1.000e-09
   Tcut                                     ... 1.000e-10
   Tpresel                                  ... 1.000e-10 
Coulomb Range Separation                    ... NOT USED
Exchange Range Separation                   ... NOT USED
Multipole approximations                    ... NOT USED
Finite Nucleus Model                        ... NOT USED
CABS basis                                  ... NOT available
Auxiliary Coulomb fitting basis             ... AVAILABLE
   # of basis functions in Aux-J            ...    453
   # of shells in Aux-J                     ...    155
   Maximum angular momentum in Aux-J        ...      4
Auxiliary J/K fitting basis                 ... NOT available
Auxiliary Correlation fitting basis         ... NOT available
Auxiliary 'external' fitting basis          ... NOT available

Checking pre-screening integrals            ... done (  0.0 sec) Dimension = 62
Check shell pair data                       ... done (  0.0 sec)
Shell pair information
Shell pair cut-off parameter TPreSel        ...   1.0e-10
Total number of shell pairs                 ...      1953
Shell pairs after pre-screening             ...      1820
Total number of primitive shell pairs       ...      7871
Primitive shell pairs kept                  ...      5154
          la=0 lb=0:    785 shell pairs
          la=1 lb=0:    551 shell pairs
          la=1 lb=1:    104 shell pairs
          la=2 lb=0:    259 shell pairs
          la=2 lb=1:     96 shell pairs
          la=2 lb=2:     25 shell pairs

Calculating one electron integrals          ... done (  0.0 sec)
Calculating RI/J V-Matrix + Cholesky decomp.... done (  0.1 sec)
Calculating Nuclear repulsion               ... done (  0.0 sec) ENN=    313.482261358915 Eh

Diagonalization of the overlap matrix:
Smallest eigenvalue                        ... 1.929e-03
Time for diagonalization                   ...    0.001 sec
Threshold for overlap eigenvalues          ... 1.000e-07
Number of eigenvalues below threshold      ... 0
Time for construction of square roots      ...    0.018 sec
Total time needed                          ...    0.029 sec

-------------------
DFT GRID GENERATION
-------------------

General Integration Accuracy     IntAcc      ... 4.159
Radial Grid Type                 RadialGrid  ... OptM3 with GC (2021)
Angular Grid (max. ang.)         AngularGrid ... 3 (Lebedev-194)
Angular grid pruning method      GridPruning ... 4 (adaptive)
Weight generation scheme         WeightScheme... mBecke (2022)
Basis function cutoff            BFCut       ... 1.0000e-10
Integration weight cutoff        WCut        ... 1.0000e-14
Partially contracted basis set               ... off
Rotationally invariant grid construction     ... off
Angular grids for H and He will be reduced by one unit

Total number of grid points                  ...    37137
Total number of batches                      ...      589
Average number of points per batch           ...       63
Average number of grid points per atom       ...     2185
Initializing property integral containers    ... done (  0.0 sec)

SHARK setup successfully completed in   0.6 seconds

Maximum memory used throughout the entire STARTUP-calculation: 18.3 MB
-------------------------------------------------------------------------------
                                 ORCA GUESS
                   Start orbitals & Density for SCF / CASSCF
-------------------------------------------------------------------------------

------------
SCF SETTINGS
------------
Hamiltonian:
 Density Functional     Method          .... DFT(GTOs)
 Exchange Functional    Exchange        .... PBE
   PBE kappa parameter   XKappa         ....  0.804000
   PBE mue parameter    XMuePBE         ....  0.219520
 Correlation Functional Correlation     .... PBE
   PBE beta parameter  CBetaPBE         ....  0.066725
 LDA part of GGA corr.  LDAOpt          .... PW91-LDA
 Gradients option       PostSCFGGA      .... off
   NL short-range parameter             ....  6.400000
 RI-approximation to the Coulomb term is turned on
   Number of AuxJ basis functions       .... 453


General Settings:
 Integral files         IntName         .... sp
 Hartree-Fock type      HFTyp           .... RHF
 Total Charge           Charge          ....    0
 Multiplicity           Mult            ....    1
 Number of Electrons    NEL             ....   56
 Basis Dimension        Dim             ....  118
 Nuclear Repulsion      ENuc            ....    313.4822613589 Eh

Convergence Acceleration:
 AO-DIIS                CNVDIIS         .... on
   Start iteration      DIISMaxIt       ....    12
   Startup error        DIISStart       ....  0.200000
   # of expansion vecs  DIISMaxEq       ....     5
   Bias factor          DIISBfac        ....   1.050
   Max. coefficient     DIISMaxC        ....  10.000
 MO-DIIS                CNVKDIIS        .... off
 Trust-Rad. Augm. Hess. CNVTRAH         .... auto
   Auto Start mean grad. ratio tolernc. ....  1.125000
   Auto Start start iteration           ....    50
   Auto Start num. interpolation iter.  ....    10
   Max. Number of Micro iterations      ....    24
   Max. Number of Macro iterations      .... Maxiter - #DIIS iter
   Number of Davidson start vectors     ....     2
   Converg. threshold    (grad. norm)   ....   1.000e-04
   Grad. Scal. Fac. for Micro threshold ....   0.100
   Minimum threshold for Micro iter.    ....   1.000e-02
   NR start threshold (gradient norm)   ....   1.000e-04
   Initial trust radius                 ....   0.400
   Minimum AH scaling param. (alpha)    ....   1.000
   Maximum AH scaling param. (alpha)    .... 1000.000
   Quad. conv. algorithm                .... NR
   White noise on init. David. guess    .... on
   Maximum white noise                  ....   0.010
   Pseudo random numbers                .... off
   Inactive MOs                         .... canonical
   Orbital update algorithm             .... Taylor
   Preconditioner                       .... Diag
   Full preconditioner red. dimension   ....   250
 SOSCF                  CNVSOSCF        .... on
   Start iteration      SOSCFMaxIt      ....   150
   Startup grad/error   SOSCFStart      ....  0.003300
   Hessian update       SOSCFHessUp     .... L-BFGS
 Level Shifting         CNVShift        .... on
   Level shift para.    LevelShift      ....    0.2500
   Turn off err/grad.   ShiftErr        ....    0.0010
 Zerner damping         CNVZerner       .... off
 Static damping         CNVDamp         .... on
   Fraction old density DampFac         ....    0.7000
   Max. Damping (<1)    DampMax         ....    0.9800
   Min. Damping (>=0)   DampMin         ....    0.0000
   Turn off err/grad.   DampErr         ....    0.1000

SCF Procedure:
 Maximum # iterations   MaxIter         ....   125
 SCF integral mode      SCFMode         .... Direct
   Integral package                     .... SHARK and LIBINT hybrid scheme
 Reset frequency        DirectResetFreq ....    20
 Integral Threshold     Thresh          ....  1.000e-09 Eh
 Primitive CutOff       TCut            ....  1.000e-10 Eh

Convergence Tolerance:
 Convergence Check Mode ConvCheckMode   .... Total+1el-Energy
 Convergence forced     ConvForced      .... 0
 Energy Change          TolE            ....  1.000e-05 Eh
 1-El. energy change                    ....  1.000e-02 Eh
 Orbital Gradient       TolG            ....  1.000e-04
 Orbital Rotation angle TolX            ....  1.000e-04
 DIIS Error             TolErr          ....  5.000e-04

------------------------------
INITIAL GUESS: MODEL POTENTIAL
------------------------------
Loading Hartree-Fock densities                     ... done
Calculating cut-offs                               ... done
Initializing the effective Hamiltonian             ... done
Setting up the integral package (SHARK)            ... done
Starting the Coulomb interaction                   ... done (   0.1 sec)
Making the grid                                    ... done (   0.2 sec)
Mapping shells                                     ... done
Starting the XC term evaluation                    ... done (   0.1 sec)
  promolecular density results
     # of electrons  =     55.996025561
     EX              =    -44.832033219
     EC              =     -1.842097289
     EX+EC           =    -46.674130508
Transforming the Hamiltonian                       ... done (   0.0 sec)
Diagonalizing the Hamiltonian                      ... done (   0.0 sec)
Back transforming the eigenvectors                 ... done (   0.0 sec)
Now organizing SCF variables                       ... done
                      ------------------
                      INITIAL GUESS DONE (   0.4 sec)
                      ------------------
             **** ENERGY FILE WAS UPDATED (sp.en.tmp) ****
Finished Guess after   0.6 sec
Maximum memory used throughout the entire GUESS-calculation: 14.0 MB

-------------------------------------------------------------------------------------------
                                      ORCA LEAN-SCF
                              memory conserving SCF solver
-------------------------------------------------------------------------------------------

----------------------------------------D-I-I-S--------------------------------------------
Iteration    Energy (Eh)           Delta-E    RMSDP     MaxDP     DIISErr   Damp  Time(sec)
-------------------------------------------------------------------------------------------
               ***  Starting incremental Fock matrix formation  ***
    1    -346.0897534233676538     0.00e+00  5.73e-03  1.24e-01  2.45e-01  0.700   0.6
    2    -346.2016553852138827    -1.12e-01  3.49e-03  7.31e-02  7.52e-02  0.700   0.7
                               ***Turning on AO-DIIS***
    3    -346.2352530619012327    -3.36e-02  1.34e-03  1.39e-02  2.48e-02  0.700   0.7
    4    -346.2576035924450366    -2.24e-02  1.88e-03  2.18e-02  1.52e-02  0.000   0.7
    5    -346.3096445534187637    -5.20e-02  6.18e-04  9.69e-03  8.89e-03  0.000   0.7
                              *** Initializing SOSCF ***
---------------------------------------S-O-S-C-F--------------------------------------
Iteration    Energy (Eh)           Delta-E    RMSDP     MaxDP     MaxGrad    Time(sec)
--------------------------------------------------------------------------------------
    6    -346.3103181650965894    -6.74e-04  2.25e-04  2.62e-03  3.21e-03     0.7
               *** Restarting incremental Fock matrix formation ***
    7    -346.3103652741511382    -4.71e-05  1.72e-04  2.95e-03  6.29e-04     0.7
    8    -346.3103446896921582     2.06e-05  1.02e-04  2.32e-03  1.89e-03     0.6
    9    -346.3103718155344382    -2.71e-05  7.39e-05  1.20e-03  2.94e-04     0.6
   10    -346.3103678780497034     3.94e-06  4.54e-05  8.39e-04  3.35e-04     0.6
                 **** Energy Check signals convergence ****

               *****************************************************
               *                     SUCCESS                       *
               *           SCF CONVERGED AFTER  10 CYCLES          *
               *****************************************************

             **** ENERGY FILE WAS UPDATED (sp.en.tmp) ****

----------------
TOTAL SCF ENERGY
----------------

Total Energy       :       -346.31036787804970 Eh           -9423.58420 eV

Components:
Nuclear Repulsion  :        313.48226135891531 Eh            8530.28600 eV
Electronic Energy  :       -659.79262923696501 Eh          -17953.87020 eV
One Electron Energy:      -1091.65642847077356 Eh          -29705.48162 eV
Two Electron Energy:        431.86379923380861 Eh           11751.61142 eV

Virial components:
Potential Energy   :       -689.86331095253286 Eh          -18772.13505 eV
Kinetic Energy     :        343.55294307448321 Eh            9348.55085 eV
Virial Ratio       :          2.00802620050025

DFT components:
N(Alpha)           :       28.000073342557 electrons
N(Beta)            :       28.000073342557 electrons
N(Total)           :       56.000146685115 electrons
E(X)               :      -45.740617494740 Eh       
E(C)               :       -1.859396811173 Eh       
E(XC)              :      -47.600014305913 Eh       

---------------
SCF CONVERGENCE
---------------

  Last Energy change         ...   -3.9375e-06  Tolerance :   1.0000e-05
  Last MAX-Density change    ...    8.3943e-04  Tolerance :   1.0000e-03
  Last RMS-Density change    ...    4.5432e-05  Tolerance :   1.0000e-04
  Last DIIS Error            ...    3.2063e-03  Tolerance :   5.0000e-04
  Last Orbital Gradient      ...    3.3545e-04  Tolerance :   1.0000e-04
  Last Orbital Rotation      ...    3.2255e-04  Tolerance :   1.0000e-04


----------------
ORBITAL ENERGIES
----------------

  NO   OCC          E(Eh)            E(eV) 
   0   2.0000     -18.795101      -511.4407 
   1   2.0000     -18.731771      -509.7174 
   2   2.0000     -10.004701      -272.2418 
   3   2.0000      -9.945651      -270.6349 
   4   2.0000      -9.899823      -269.3879 
   5   2.0000      -9.889059      -269.0950 
   6   2.0000      -9.877588      -268.7828 
   7   2.0000      -1.002324       -27.2746 
   8   2.0000      -0.908284       -24.7157 
   9   2.0000      -0.719227       -19.5712 
  10   2.0000      -0.688681       -18.7400 
  11   2.0000      -0.604882       -16.4597 
  12   2.0000      -0.552233       -15.0270 
  13   2.0000      -0.502014       -13.6605 
  14   2.0000      -0.449419       -12.2293 
  15   2.0000      -0.441598       -12.0165 
  16   2.0000      -0.416410       -11.3311 
  17   2.0000      -0.400131       -10.8881 
  18   2.0000      -0.370564       -10.0836 
  19   2.0000      -0.359956        -9.7949 
  20   2.0000      -0.357418        -9.7258 
  21   2.0000      -0.330512        -8.9937 
  22   2.0000      -0.327246        -8.9048 
  23   2.0000      -0.318483        -8.6664 
  24   2.0000      -0.303381        -8.2554 
  25   2.0000      -0.292088        -7.9481 
  26   2.0000      -0.254553        -6.9267 
  27   2.0000      -0.217958        -5.9309 
  28   0.0000      -0.017015        -0.4630 
  29   0.0000       0.039026         1.0620 
  30   0.0000       0.053671         1.4605 
  31   0.0000       0.080620         2.1938 
  32   0.0000       0.091574         2.4919 
  33   0.0000       0.093353         2.5403 
  34   0.0000       0.102992         2.8025 
  35   0.0000       0.104039         2.8311 
  36   0.0000       0.111833         3.0431 
  37   0.0000       0.124456         3.3866 
  38   0.0000       0.135504         3.6872 
*Only the first 10 virtual orbitals were printed.

                    ********************************
                    * MULLIKEN POPULATION ANALYSIS *
                    ********************************

-----------------------
MULLIKEN ATOMIC CHARGES
-----------------------
   0 C :   -0.265548
   1 C :   -0.192793
   2 C :    0.111214
   3 O :   -0.206632
   4 O :   -0.246446
   5 C :   -0.026877
   6 C :   -0.278874
   7 H :    0.100585
   8 H :    0.114484
   9 H :    0.110449
  10 H :    0.111399
  11 H :    0.116334
  12 H :    0.112773
  13 H :    0.102039
  14 H :    0.110775
  15 H :    0.113846
  16 H :    0.113271
Sum of atomic charges:    0.0000000

--------------------------------
MULLIKEN REDUCED ORBITAL CHARGES
--------------------------------
  0 C s       :     3.091339  s :     3.091339
      pz      :     1.089396  p :     3.145365
      px      :     1.017639
      py      :     1.038330
      dz2     :     0.005666  d :     0.028844
      dxz     :     0.003205
      dyz     :     0.007754
      dx2y2   :     0.004657
      dxy     :     0.007561

  1 C s       :     3.019757  s :     3.019757
      pz      :     1.060288  p :     3.138978
      px      :     0.995211
      py      :     1.083479
      dz2     :     0.005780  d :     0.034059
      dxz     :     0.005458
      dyz     :     0.008364
      dx2y2   :     0.006923
      dxy     :     0.007534

  2 C s       :     3.052907  s :     3.052907
      pz      :     0.865031  p :     2.705071
      px      :     0.908976
      py      :     0.931064
      dz2     :     0.012892  d :     0.130807
      dxz     :     0.017689
      dyz     :     0.020964
      dx2y2   :     0.030452
      dxy     :     0.048810

  3 O s       :     3.752704  s :     3.752704
      pz      :     1.384057  p :     4.436364
      px      :     1.730349
      py      :     1.321957
      dz2     :     0.002615  d :     0.017564
      dxz     :     0.000598
      dyz     :     0.005637
      dx2y2   :     0.005182
      dxy     :     0.003531

  4 O s       :     3.736725  s :     3.736725
      pz      :     1.699163  p :     4.493831
      px      :     1.175086
      py      :     1.619581
      dz2     :     0.002050  d :     0.015890
      dxz     :     0.003072
      dyz     :     0.001928
      dx2y2   :     0.002924
      dxy     :     0.005916

  5 C s       :     3.083433  s :     3.083433
      pz      :     1.059151  p :     2.884568
      px      :     0.809838
      py      :     1.015578
      dz2     :     0.015049  d :     0.058876
      dxz     :     0.011023
      dyz     :     0.003834
      dx2y2   :     0.015535
      dxy     :     0.013436

  6 C s       :     3.089976  s :     3.089976
      pz      :     1.056776  p :     3.161020
      px      :     1.031860
      py      :     1.072384
      dz2     :     0.009588  d :     0.027878
      dxz     :     0.004290
      dyz     :     0.002120
      dx2y2   :     0.006807
      dxy     :     0.005074

  7 H s       :     0.899415  s :     0.899415

  8 H s       :     0.885516  s :     0.885516

  9 H s       :     0.889551  s :     0.889551

 10 H s       :     0.888601  s :     0.888601

 11 H s       :     0.883666  s :     0.883666

 12 H s       :     0.887227  s :     0.887227

 13 H s       :     0.897961  s :     0.897961

 14 H s       :     0.889225  s :     0.889225

 15 H s       :     0.886154  s :     0.886154

 16 H s       :     0.886729  s :     0.886729


------------------------
MULLIKEN OVERLAP CHARGES
------------------------
B(  0-C ,  1-C ) :   0.7373 B(  0-C ,  7-H ) :   0.7275 B(  0-C ,  8-H ) :   0.7606 
B(  0-C ,  9-H ) :   0.7721 B(  1-C ,  2-C ) :   0.4679 B(  1-C ,  3-O ) :  -0.2542 
B(  1-C ,  4-O ) :  -0.2782 B(  1-C , 10-H ) :   0.6164 B(  1-C , 11-H ) :   0.6225 
B(  2-C ,  3-O ) :   1.4146 B(  2-C ,  4-O ) :   0.7476 B(  2-C ,  5-C ) :  -0.0670 
B(  3-O ,  4-O ) :  -0.1600 B(  3-O , 12-H ) :   0.0600 B(  4-O ,  5-C ) :   0.5404 
B(  4-O ,  6-C ) :  -0.1093 B(  4-O , 12-H ) :  -0.0687 B(  4-O , 13-H ) :  -0.0602 
B(  5-C ,  6-C ) :   0.8730 B(  5-C , 12-H ) :   0.7161 B(  5-C , 13-H ) :   0.7456 
B(  6-C , 13-H ) :  -0.0546 B(  6-C , 14-H ) :   0.7166 B(  6-C , 15-H ) :   0.7293 
B(  6-C , 16-H ) :   0.7479 B( 12-H , 13-H ) :  -0.0774 B( 15-H , 16-H ) :  -0.0533 



                     *******************************
                     * LOEWDIN POPULATION ANALYSIS *
                     *******************************

----------------------
LOEWDIN ATOMIC CHARGES
----------------------
   0 C :   -0.336827
   1 C :   -0.259647
   2 C :    0.036309
   3 O :   -0.166359
   4 O :   -0.076420
   5 C :   -0.109980
   6 C :   -0.350960
   7 H :    0.120114
   8 H :    0.126378
   9 H :    0.124647
  10 H :    0.137382
  11 H :    0.141175
  12 H :    0.118257
  13 H :    0.114817
  14 H :    0.129703
  15 H :    0.125683
  16 H :    0.125726

-------------------------------
LOEWDIN REDUCED ORBITAL CHARGES
-------------------------------
  0 C s       :     2.942575  s :     2.942575
      pz      :     1.139129  p :     3.323817
      px      :     1.071437
      py      :     1.113251
      dz2     :     0.014600  d :     0.070435
      dxz     :     0.006483
      dyz     :     0.018394
      dx2y2   :     0.011582
      dxy     :     0.019376

  1 C s       :     2.913605  s :     2.913605
      pz      :     1.105950  p :     3.260515
      px      :     1.060129
      py      :     1.094435
      dz2     :     0.015404  d :     0.085527
      dxz     :     0.011150
      dyz     :     0.019976
      dx2y2   :     0.016482
      dxy     :     0.022516

  2 C s       :     2.846830  s :     2.846830
      pz      :     0.864469  p :     2.820237
      px      :     0.946300
      py      :     1.009468
      dz2     :     0.026290  d :     0.296624
      dxz     :     0.037216
      dyz     :     0.044077
      dx2y2   :     0.070530
      dxy     :     0.118512

  3 O s       :     3.551418  s :     3.551418
      pz      :     1.400803  p :     4.583979
      px      :     1.735853
      py      :     1.447323
      dz2     :     0.004025  d :     0.030962
      dxz     :     0.000911
      dyz     :     0.009704
      dx2y2   :     0.010635
      dxy     :     0.005687

  4 O s       :     3.451548  s :     3.451548
      pz      :     1.686518  p :     4.592495
      px      :     1.252922
      py      :     1.653055
      dz2     :     0.004137  d :     0.032376
      dxz     :     0.005735
      dyz     :     0.002393
      dx2y2   :     0.007212
      dxy     :     0.012900

  5 C s       :     2.924532  s :     2.924532
      pz      :     1.102069  p :     3.054243
      px      :     0.878839
      py      :     1.073335
      dz2     :     0.033569  d :     0.131206
      dxz     :     0.026698
      dyz     :     0.007511
      dx2y2   :     0.033879
      dxy     :     0.029548

  6 C s       :     2.949787  s :     2.949787
      pz      :     1.113460  p :     3.332058
      px      :     1.093345
      py      :     1.125253
      dz2     :     0.022517  d :     0.069115
      dxz     :     0.011775
      dyz     :     0.005318
      dx2y2   :     0.017039
      dxy     :     0.012466

  7 H s       :     0.879886  s :     0.879886

  8 H s       :     0.873622  s :     0.873622

  9 H s       :     0.875353  s :     0.875353

 10 H s       :     0.862618  s :     0.862618

 11 H s       :     0.858825  s :     0.858825

 12 H s       :     0.881743  s :     0.881743

 13 H s       :     0.885183  s :     0.885183

 14 H s       :     0.870297  s :     0.870297

 15 H s       :     0.874317  s :     0.874317

 16 H s       :     0.874274  s :     0.874274


---------------------------------
LOEWDIN BOND ORDERS (THRESH 0.050000)
---------------------------------
B(  0-C ,  1-C ) :   1.1235 B(  0-C ,  2-C ) :   0.0598 B(  0-C ,  7-H ) :   0.9374 
B(  0-C ,  8-H ) :   0.9389 B(  0-C ,  9-H ) :   0.9407 B(  1-C ,  2-C ) :   1.0623 
B(  1-C ,  3-O ) :   0.0938 B(  1-C ,  4-O ) :   0.0750 B(  1-C , 10-H ) :   0.8904 
B(  1-C , 11-H ) :   0.8861 B(  2-C ,  3-O ) :   2.2038 B(  2-C ,  4-O ) :   1.3991 
B(  2-C ,  5-C ) :   0.0758 B(  3-O ,  4-O ) :   0.2060 B(  4-O ,  5-C ) :   1.0661 
B(  4-O ,  6-C ) :   0.0561 B(  5-C ,  6-C ) :   1.1565 B(  5-C , 12-H ) :   0.9061 
B(  5-C , 13-H ) :   0.9171 B(  6-C , 14-H ) :   0.9307 B(  6-C , 15-H ) :   0.9371 
B(  6-C , 16-H ) :   0.9384 

------------------------------------------
LOEWDIN REDUCED ORBITAL POPULATIONS PER MO
-------------------------------------------
THRESHOLD FOR PRINTING IS 0.1%%
                      0         1         2         3         4         5   
                 -18.79510 -18.73177 -10.00470  -9.94565  -9.89982  -9.88906
                   2.00000   2.00000   2.00000   2.00000   2.00000   2.00000
                  --------  --------  --------  --------  --------  --------
 1 C  s               0.0       0.0       0.0       0.0      99.6       0.0
 2 C  s               0.0       0.0      99.3       0.0       0.0       0.0
 3 O  s               0.0      99.9       0.0       0.0       0.0       0.0
 3 O  py              0.0       0.0       0.2       0.0       0.0       0.0
 4 O  s              99.9       0.0       0.0       0.0       0.0       0.0
 4 O  px              0.0       0.0       0.1       0.1       0.0       0.0
 5 C  s               0.0       0.0       0.0      99.7       0.0       0.0
 6 C  s               0.0       0.0       0.0       0.0       0.0      99.7

                      6         7         8         9        10        11   
                  -9.87759  -1.00232  -0.90828  -0.71923  -0.68868  -0.60488
                   2.00000   2.00000   2.00000   2.00000   2.00000   2.00000
                  --------  --------  --------  --------  --------  --------
 0 C  s              99.7       0.1       0.1       6.9      13.7      13.7
 0 C  px              0.0       0.1       0.1       1.4       1.2       0.5
 0 C  py              0.0       0.0       0.0       0.4       0.4       0.1
 1 C  s               0.0       1.0       0.3      17.0      14.2       0.6
 1 C  px              0.1       1.3       0.0       0.1       1.7       9.0
 1 C  py              0.0       0.4       0.5       0.3       0.3       0.3
 1 C  dxy             0.0       0.0       0.0       0.0       0.0       0.2
 2 C  s               0.0      18.7       5.0       4.6       0.2       4.3
 2 C  pz              0.0       0.0       2.4       1.2       0.1       0.6
 2 C  px              0.0       5.0       4.1       1.9       5.3       0.2
 2 C  py              0.0       0.1      17.7       7.4       0.3       3.5
 2 C  dz2             0.0       0.4       0.0       0.0       0.0       0.0
 2 C  dyz             0.0       0.2       0.4       0.0       0.0       0.0
 2 C  dx2y2           0.0       0.0       1.4       0.1       0.0       0.0
 2 C  dxy             0.0       0.4       0.1       0.0       0.2       0.0
 3 O  s               0.0      11.5      41.4       2.0       0.1       0.4
 3 O  pz              0.0       0.3       0.6       0.0       0.0       0.0
 3 O  px              0.0       0.1       0.0       0.1       0.2       0.0
 3 O  py              0.0       2.3       3.8       0.2       0.0       0.3
 3 O  dx2y2           0.0       0.0       0.1       0.0       0.0       0.0
 4 O  s               0.0      41.1      15.6       0.1       1.2       0.6
 4 O  pz              0.0       0.3       0.0       0.1       0.0       0.4
 4 O  px              0.0       0.5       0.5      11.3       3.2      13.2
 4 O  py              0.0       2.3       0.2       0.2       0.1       0.2
 4 O  dxy             0.0       0.0       0.0       0.1       0.1       0.1
 5 C  s               0.0       4.6       2.4      12.7      10.3       1.3
 5 C  pz              0.0       0.2       0.2       0.3       0.5       1.0
 5 C  px              0.0       4.4       0.9       0.5       2.9       6.6
 5 C  py              0.0       0.8       0.7       0.2       0.1       0.1
 5 C  dxz             0.0       0.0       0.0       0.0       0.1       0.2
 5 C  dx2y2           0.0       0.1       0.0       0.0       0.0       0.0
 5 C  dxy             0.0       0.2       0.1       0.0       0.0       0.2
 6 C  s               0.0       0.3       0.2       8.9      15.5      14.8
 6 C  pz              0.0       0.1       0.1       0.5       0.4       0.2
 6 C  px              0.0       0.4       0.3       0.9       0.5       1.2
 6 C  py              0.0       0.0       0.0       0.2       0.2       0.0
 7 H  s               0.1       0.0       0.0       1.2       2.7       4.2
 8 H  s               0.1       0.0       0.0       1.2       2.6       3.7
 9 H  s               0.1       0.0       0.0       1.2       2.6       3.7
10 H  s               0.0       0.2       0.0       3.5       2.7       0.3
11 H  s               0.0       0.2       0.0       3.4       2.8       0.3
12 H  s               0.0       0.8       0.1       2.3       1.8       0.3
13 H  s               0.0       0.5       0.3       2.4       2.1       0.4
14 H  s               0.0       0.0       0.0       1.6       3.2       5.2
15 H  s               0.0       0.1       0.0       1.7       3.1       4.0
16 H  s               0.0       0.0       0.0       1.6       3.1       4.2

                     12        13        14        15        16        17   
                  -0.55223  -0.50201  -0.44942  -0.44160  -0.41641  -0.40013
                   2.00000   2.00000   2.00000   2.00000   2.00000   2.00000
                  --------  --------  --------  --------  --------  --------
 0 C  s              11.3       1.0       0.1       0.0       0.0       0.1
 0 C  pz              0.0       0.0       2.3       0.1      10.2       2.8
 0 C  px              3.9       1.2       0.0       0.9       0.1       1.6
 0 C  py              1.1       0.4       1.9       7.9       0.4       0.3
 1 C  s               7.9       1.4       0.9       0.9       0.0       0.2
 1 C  pz              0.0       0.0       8.6       0.3      22.4       2.7
 1 C  px              3.3       0.1       1.3       4.5       0.3       1.3
 1 C  py              1.5       0.7       3.3      21.0       0.1       1.2
 1 C  dz2             0.1       0.0       0.1       0.1       0.0       0.0
 1 C  dxy             0.1       0.0       0.0       0.1       0.0       0.0
 2 C  s               0.2       1.7       1.0       2.4       0.4       1.5
 2 C  pz              0.0       0.1       5.5       7.9       4.9       0.4
 2 C  px              5.3       3.6       3.9       8.2       0.4       0.2
 2 C  py              0.5       0.8       2.6       0.1       0.2       4.0
 2 C  dxz             0.1       0.0       0.0       0.0       0.0       0.1
 2 C  dx2y2           0.0       0.0       0.0       0.0       0.1       0.2
 2 C  dxy             0.4       0.0       0.1       0.0       0.1       0.1
 3 O  s               0.0       1.4       0.4       2.2       2.5      11.0
 3 O  pz              0.0       0.1       1.1       4.3       0.3       3.8
 3 O  px              0.2       1.4       2.5       3.4       0.0       1.6
 3 O  py              0.0       0.5       2.0       1.4       5.3      20.9
 3 O  dyz             0.0       0.0       0.0       0.1       0.0       0.1
 3 O  dx2y2           0.0       0.0       0.0       0.0       0.0       0.1
 4 O  s               0.9       4.2       0.2       0.0       0.3       1.8
 4 O  pz              0.3       1.0       7.9       7.8       0.3       6.1
 4 O  px              5.0      17.3       0.0       1.0       0.7       1.5
 4 O  py              0.1       5.0       7.8       0.0       3.4      12.3
 5 C  s               7.6       5.8       0.0       0.3       0.0       0.3
 5 C  pz              2.2       5.1      10.3       4.4       6.3       2.3
 5 C  px              0.5       3.2       1.2       0.0       2.6       4.4
 5 C  py              0.7      15.2       8.6       0.1       3.3       0.8
 5 C  dyz             0.0       0.2       0.0       0.0       0.0       0.0
 5 C  dxy             0.0       0.4       0.0       0.0       0.0       0.0
 6 C  s               6.5       0.4       0.0       0.2       0.0       0.2
 6 C  pz              1.8       2.1       3.8       0.1       6.6       0.4
 6 C  px              2.2       0.1       0.2       3.2       0.3       2.7
 6 C  py              0.6       3.8       2.2       0.5       1.8       4.8
 7 H  s               4.6       0.6       0.2       1.5       0.2       0.1
 8 H  s               4.2       0.5       1.5       0.2       2.3       2.0
 9 H  s               4.4       0.6       0.0       1.8       2.4       0.0
10 H  s               3.2       0.9       5.9       1.0       7.4       0.7
11 H  s               3.6       0.9       0.1       8.9       4.0       0.9
12 H  s               2.9       9.5       3.9       0.3       1.5       1.1
13 H  s               3.9       6.1       5.4       0.8       4.0       0.2
14 H  s               2.8       0.1       0.0       1.0       0.1       0.2
15 H  s               2.7       1.4       1.0       0.7       1.0       2.8
16 H  s               3.0       0.8       1.7       0.0       3.2       0.0

                     18        19        20        21        22        23   
                  -0.37056  -0.35996  -0.35742  -0.33051  -0.32725  -0.31848
                   2.00000   2.00000   2.00000   2.00000   2.00000   2.00000
                  --------  --------  --------  --------  --------  --------
 0 C  s               0.0       0.0       0.0       0.1       0.1       0.0
 0 C  pz              1.6       6.1       6.4       2.1       0.5      10.8
 0 C  px              6.0       3.2       2.7      23.3       3.7       1.4
 0 C  py              6.0       0.7       2.2       0.1      23.2       8.0
 0 C  dz2             0.0       0.0       0.1       0.0       0.1       0.3
 0 C  dxz             0.0       0.0       0.0       0.0       0.0       0.1
 0 C  dyz             0.1       0.0       0.0       0.1       0.1       0.0
 0 C  dx2y2           0.0       0.0       0.0       0.0       0.2       0.1
 0 C  dxy             0.1       0.1       0.1       0.3       0.0       0.2
 1 C  s               0.2       0.1       0.2       0.2       0.0       0.0
 1 C  pz              0.9       1.1       0.8       0.1       0.0       2.5
 1 C  px              0.0       2.7       0.0      13.0       8.6       0.2
 1 C  py              2.7       0.3       0.3       2.1       8.8       3.3
 1 C  dz2             0.0       0.0       0.0       0.0       0.2       0.1
 1 C  dxz             0.0       0.1       0.1       0.0       0.0       0.2
 1 C  dx2y2           0.0       0.0       0.0       0.0       0.3       0.1
 1 C  dxy             0.1       0.0       0.0       0.3       0.0       0.1
 2 C  s               0.8       0.2       0.3       0.2       0.0       0.3
 2 C  pz              1.9       4.1       3.7       4.0       1.6       0.5
 2 C  px              0.7       0.0       0.4       3.2       0.1       3.4
 2 C  py              1.8       1.9       1.6       0.2       0.2       2.4
 2 C  dxz             0.1       0.1       0.0       0.0       0.0       0.0
 2 C  dx2y2           0.1       0.0       0.1       0.2       0.0       0.1
 2 C  dxy             0.0       0.0       0.1       0.1       0.2       0.0
 3 O  s               1.6       0.0       1.6       0.1       0.1       0.3
 3 O  pz              5.1       4.3       0.1       5.3       1.2       2.9
 3 O  px              0.6       0.1       0.4       1.0       0.5       1.7
 3 O  py              4.5       0.5      12.8       0.0       1.2       0.7
 4 O  s               0.3       0.9       0.9       0.0       0.4       0.0
 4 O  pz              7.9       3.7       0.4       0.2       0.0       0.2
 4 O  px              0.6       0.8       0.3       2.3       1.2       0.4
 4 O  py              0.2       0.8       6.1       0.3       2.3       0.0
 5 C  s               0.3       0.3       0.0       0.0       0.0       0.0
 5 C  pz              1.7       0.0       1.9       5.8       4.8       1.5
 5 C  px              5.6       0.2       2.8       4.6       0.3       2.4
 5 C  py              3.0       0.0       0.7       0.4       0.1       5.2
 5 C  dz2             0.0       0.1       0.0       0.0       0.3       0.3
 5 C  dxz             0.0       0.1       0.1       0.1       0.0       0.0
 5 C  dx2y2           0.0       0.2       0.1       0.0       0.0       0.1
 5 C  dxy             0.2       0.0       0.1       0.1       0.0       0.0
 6 C  s               0.0       0.0       0.0       0.1       0.0       0.0
 6 C  pz              8.1      12.3       0.6       6.5       7.6       2.1
 6 C  px             11.2      19.6       0.1       6.2       0.7       2.8
 6 C  py              4.4       2.7      24.9       0.0       0.4       5.8
 6 C  dz2             0.0       0.3       0.0       0.0       0.3       0.3
 6 C  dxz             0.2       0.0       0.0       0.1       0.0       0.0
 6 C  dx2y2           0.0       0.1       0.3       0.0       0.0       0.1
 6 C  dxy             0.1       0.2       0.0       0.1       0.0       0.0
 7 H  s               4.7       1.2       4.1       7.2       1.4       8.1
 8 H  s               0.2       1.1       3.3       2.0       1.2       9.6
 9 H  s               3.1       2.5       0.1       0.9      10.1       0.0
10 H  s               0.2       0.7       0.3       0.8       1.6       3.8
11 H  s               1.1       0.1       0.1       0.2       4.1       0.3
12 H  s               0.8       0.2       1.0       0.1       0.2       5.0
13 H  s               0.0       0.2       0.6       2.2       4.2       2.6
14 H  s               5.9      16.5       3.9       1.3       0.9       0.3
15 H  s               1.9       0.4      12.9       0.0       0.9       5.2
16 H  s               3.2       8.9       0.0       2.1       5.9       3.8

                     24        25        26        27        28        29   
                  -0.30338  -0.29209  -0.25455  -0.21796  -0.01701   0.03903
                   2.00000   2.00000   2.00000   2.00000   0.00000   0.00000
                  --------  --------  --------  --------  --------  --------
 0 C  s               0.0       0.0       0.0       0.2       0.1       5.0
 0 C  pz             13.7       0.2       0.3       0.0       0.1       0.0
 0 C  px              0.5       1.7       0.0       0.1       0.0       0.6
 0 C  py              1.9       0.6       0.0       0.1       0.0       0.2
 0 C  dxz             0.1       0.0       0.0       0.0       0.0       0.0
 0 C  dyz             0.5       0.0       0.0       0.0       0.0       0.0
 0 C  dxy             0.0       0.1       0.0       0.0       0.0       0.1
 1 C  s               0.0       0.2       0.0       0.7       0.0       5.8
 1 C  pz             14.2       0.4       0.1       0.7       0.3       0.1
 1 C  px              0.6       2.5       0.0       2.3       0.0       0.2
 1 C  py              2.2       1.1       0.1       4.2       0.0       2.1
 1 C  dz2             0.1       0.0       0.0       0.0       0.4       0.1
 1 C  dxz             0.1       0.0       0.0       0.0       0.4       0.0
 1 C  dyz             0.7       0.0       0.0       0.0       0.9       0.0
 1 C  dx2y2           0.1       0.0       0.0       0.1       0.1       0.0
 1 C  dxy             0.0       0.1       0.0       0.0       0.2       0.1
 2 C  s               0.0       0.8       0.0       0.3       0.0       1.9
 2 C  pz              2.5       1.4       0.4       0.1      41.3       0.0
 2 C  px              0.1       0.3       0.0       0.9       0.1       0.1
 2 C  py              0.9       3.8       0.0       0.4       6.4       0.7
 2 C  dz2             0.2       0.0       0.4       0.1       0.4       0.4
 2 C  dxz             0.1       0.1       0.7       0.5       0.2       0.0
 2 C  dyz             0.3       0.2       0.9       0.1       0.4       0.4
 2 C  dx2y2           0.1       0.5       0.3       0.1       0.1       0.2
 2 C  dxy             0.0       0.3       0.0       3.9       0.1       0.0
 3 O  s               0.0       1.3       0.0       0.0       0.0       0.7
 3 O  pz             13.3       0.2      26.2       1.0      23.1       0.1
 3 O  px              0.1       0.0       0.8      72.2       0.1       0.0
 3 O  py              1.1      10.4       3.9       0.1       3.6       0.1
 3 O  dz2             0.0       0.0       0.0       0.0       0.2       0.0
 3 O  dyz             0.0       0.0       0.0       0.0       0.3       0.0
 4 O  s               0.1       3.7       0.0       0.3       0.0       0.6
 4 O  pz              1.1       5.2      39.9       1.6       8.1       0.2
 4 O  px              0.0       0.3       0.0       2.4       0.0       0.0
 4 O  py              0.2      29.1       7.9       4.1       1.4       0.1
 4 O  dxz             0.0       0.0       0.0       0.0       0.4       0.0
 4 O  dx2y2           0.0       0.1       0.0       0.0       0.0       0.0
 5 C  s               0.0       0.3       0.0       0.2       0.0       5.2
 5 C  pz              1.9       0.7       4.1       0.0       0.1       1.6
 5 C  px              0.1       0.1       0.0       0.4       0.0       0.1
 5 C  py              0.2      12.3       0.6       0.6       0.0       0.9
 5 C  dz2             0.1       0.0       0.5       0.0       0.2       0.0
 5 C  dxz             0.0       0.1       0.5       0.0       0.2       0.0
 5 C  dyz             0.0       0.0       0.0       0.0       0.0       0.1
 5 C  dx2y2           0.0       0.8       0.1       0.0       0.0       0.0
 6 C  s               0.0       0.3       0.1       0.0       0.1       7.8
 6 C  pz              1.2       0.5       0.8       0.0       0.0       0.6
 6 C  px              0.0       1.3       0.6       0.1       0.0       1.1
 6 C  py              0.2       3.7       0.0       0.1       0.1       0.2
 6 C  dxz             0.0       0.0       0.0       0.0       0.0       0.1
 6 C  dx2y2           0.0       0.2       0.0       0.0       0.0       0.0
 7 H  s               0.2       1.7       0.0       0.0       0.0       4.1
 8 H  s               7.5       0.3       0.1       0.1       0.0       2.8
 9 H  s               9.7       0.1       0.2       0.1       0.0       3.3
10 H  s               8.9       0.5       0.0       0.6       3.6       8.8
11 H  s              11.3       0.1       0.1       0.4       5.0       9.5
12 H  s               0.3       9.0       2.5       0.4       0.2       5.6
13 H  s               1.9       0.1       6.4       0.0       1.1       9.1
14 H  s               0.0       0.1       0.2       0.3       0.2       6.9
15 H  s               0.3       3.0       0.3       0.2       0.0       5.5
16 H  s               1.0       0.1       0.7       0.0       0.1       6.2

                     30        31        32        33        34        35   
                   0.05367   0.08062   0.09157   0.09335   0.10299   0.10404
                   0.00000   0.00000   0.00000   0.00000   0.00000   0.00000
                  --------  --------  --------  --------  --------  --------
 0 C  s               7.4       1.1       5.4       8.0       0.0       1.9
 0 C  pz              0.0       0.6       0.3       0.0       7.9       0.4
 0 C  px              1.4       0.1       0.5       0.3       0.2       0.4
 0 C  py              0.1       0.0       0.7       1.8       1.2       1.8
 0 C  dz2             0.0       0.0       0.1       0.0       0.1       0.1
 0 C  dxz             0.0       0.1       0.0       0.0       0.3       0.1
 0 C  dyz             0.0       0.1       0.1       0.0       0.7       0.0
 0 C  dx2y2           0.0       0.0       0.1       0.1       0.1       0.1
 0 C  dxy             0.1       0.0       0.1       0.3       0.0       0.0
 1 C  s               4.9       0.5       4.0       4.2       0.0       0.1
 1 C  pz              0.2       3.0       1.4       0.0       9.8       0.5
 1 C  px              0.1       0.1       0.4       1.1       0.1       0.1
 1 C  py              2.8       0.0       0.2       3.7       0.9       0.4
 1 C  dz2             0.2       0.2       0.1       0.0       0.0       0.1
 1 C  dxz             0.0       0.0       0.0       0.0       0.5       0.0
 1 C  dyz             0.0       0.1       0.0       0.1       0.4       0.0
 1 C  dx2y2           0.1       0.0       0.3       0.0       0.1       0.2
 1 C  dxy             0.0       0.0       0.1       0.5       0.0       0.0
 2 C  s               0.3       0.5       0.5       0.7       0.0       0.2
 2 C  pz              0.5       0.6       0.3       0.0       1.2       0.0
 2 C  px              0.1       0.3       0.8       0.2       0.0       0.3
 2 C  py              0.3       0.1       0.3       0.5       0.2       0.8
 2 C  dz2             0.0       0.2       0.2       0.0       0.0       0.0
 2 C  dxz             0.0       0.0       0.1       0.0       0.1       0.0
 2 C  dx2y2           0.1       0.2       0.4       0.0       0.0       0.5
 3 O  s               0.1       0.1       0.0       0.4       0.0       0.2
 3 O  pz              0.1       0.1       0.1       0.0       0.5       0.1
 3 O  px              0.5       0.3       0.8       0.1       0.0       0.2
 3 O  py              0.2       0.0       0.1       0.1       0.1       0.0
 4 O  s               0.0       2.4       5.2       0.0       0.1       2.0
 4 O  pz              0.4       0.4       0.1       0.0       0.4       0.3
 4 O  px              0.1       0.9       1.8       0.0       0.1       1.3
 4 O  py              0.1       0.9       1.3       0.2       0.2       0.9
 4 O  dz2             0.0       0.0       0.1       0.0       0.0       0.1
 4 O  dxz             0.0       0.0       0.1       0.0       0.0       0.0
 4 O  dx2y2           0.0       0.0       0.2       0.1       0.0       0.1
 5 C  s               2.6       0.9       2.3       2.0       0.0      12.0
 5 C  pz              1.1       7.0       1.0       0.0       1.4       0.1
 5 C  px              0.1       9.6       8.0       0.1       1.1       2.7
 5 C  py              0.5       0.6       7.3       3.1       0.8       0.7
 5 C  dz2             0.0       1.3       0.0       0.0       0.2       0.4
 5 C  dxz             0.1       0.3       0.1       0.0       0.2       0.1
 5 C  dx2y2           0.0       0.2       0.9       0.3       0.0       0.2
 5 C  dxy             0.1       0.5       1.5       0.1       0.0       0.1
 6 C  s              10.0       4.6       0.0       1.2       0.2       4.6
 6 C  pz              0.2       3.7       1.1       0.0       1.0       2.4
 6 C  px              1.5       0.8       0.1       0.4       0.0       2.7
 6 C  py              0.1       0.0       4.1       4.0       3.3       0.3
 6 C  dz2             0.0       0.9       0.0       0.0       0.3       0.4
 6 C  dxz             0.0       0.1       0.0       0.0       0.0       0.1
 6 C  dyz             0.0       0.0       0.0       0.0       0.0       0.1
 6 C  dx2y2           0.0       0.2       0.9       0.2       0.1       0.1
 6 C  dxy             0.0       0.0       0.3       0.2       0.0       0.0
 7 H  s               8.4       1.3       6.1       1.1       0.2       0.3
 8 H  s               3.8       0.2       4.2       6.5      10.2       6.5
 9 H  s               4.6       1.7       0.4      13.8      13.6       3.3
10 H  s               8.7       2.7       9.3       4.3      11.9       2.3
11 H  s               7.7       5.1       0.3      13.5      13.1       0.1
12 H  s               3.1       0.1       3.0      11.5       2.3      14.2
13 H  s               4.7      21.9       6.1       0.2       4.0       7.7
14 H  s              10.2       1.1       3.3       1.7       1.1      16.6
15 H  s               7.1       1.1       9.8      12.4       5.4       7.1
16 H  s               5.0      20.9       3.3       0.7       4.3       1.2

                     36        37        38        39        40        41   
                   0.11183   0.12446   0.13550   0.14617   0.18393   0.19125
                   0.00000   0.00000   0.00000   0.00000   0.00000   0.00000
                  --------  --------  --------  --------  --------  --------
 0 C  s               0.0       0.5       0.1       0.0       0.1       1.3
 0 C  pz              2.3       0.3       1.4      13.9       0.0       0.2
 0 C  px              1.7       7.0       0.1       0.0       1.0      19.2
 0 C  py              7.5       5.6       0.4       0.7       0.2       8.6
 0 C  dz2             0.4       0.2       0.0       0.2       0.1       1.7
 0 C  dxz             0.1       0.1       0.0       0.4       0.0       0.0
 0 C  dyz             0.0       0.2       0.1       0.4       0.0       0.1
 0 C  dx2y2           0.1       0.0       0.0       0.1       0.1       0.4
 0 C  dxy             0.2       0.2       0.0       0.1       0.1       3.6
 1 C  s               0.0       1.0       0.2       0.0       0.7       1.7
 1 C  pz              0.6       0.1       0.5       9.7       0.0       0.2
 1 C  px              0.2       0.1       0.1       0.1       0.0      27.6
 1 C  py              0.5       2.6       0.2       0.3       0.8       0.8
 1 C  dz2             0.0       0.3       0.0       0.1       0.1       0.5
 1 C  dxz             0.1       0.0       0.1       0.1       0.0       0.2
 1 C  dx2y2           0.4       0.1       0.0       0.0       0.1       0.6
 1 C  dxy             0.1       0.2       0.0       0.0       0.0       5.5
 2 C  s               1.4       0.1       0.4       0.1       0.9       7.1
 2 C  pz              0.0       0.0       0.1       2.1       0.6       0.1
 2 C  px              0.6       0.1       0.2       0.0       0.3       1.7
 2 C  py              0.2       0.1       0.2       0.6       0.5       0.6
 2 C  dz2             0.4       0.0       0.0       0.1       0.1       1.0
 2 C  dxz             0.0       0.0       0.2       0.1       0.0       0.0
 2 C  dyz             0.1       0.1       0.0       0.0       0.0       1.2
 2 C  dx2y2           0.2       0.3       0.0       0.0       0.3       0.6
 2 C  dxy             0.0       0.0       0.0       0.1       0.0       0.2
 3 O  s               0.1       0.0       0.2       0.0       0.1       0.4
 3 O  pz              0.0       0.0       0.0       0.3       0.2       0.1
 3 O  px              0.1       0.1       0.1       0.1       0.5       0.2
 3 O  py              0.0       0.2       0.0       0.0       0.0       1.6
 3 O  dx2y2           0.0       0.0       0.0       0.0       0.0       0.1
 4 O  s               1.1       2.1       0.1       0.0       0.1       0.1
 4 O  pz              0.3       0.4       0.6       1.4       0.5       0.2
 4 O  px              0.2       2.8       0.0       0.1       0.4       0.5
 4 O  py              0.3       1.1       0.5       0.3       0.0       1.2
 4 O  dz2             0.0       0.1       0.0       0.0       0.1       0.0
 4 O  dyz             0.0       0.0       0.0       0.0       0.2       0.0
 4 O  dx2y2           0.0       0.0       0.1       0.0       0.3       0.0
 4 O  dxy             0.0       0.2       0.1       0.0       0.0       0.0
 5 C  s               0.1       0.7       0.2       0.0       4.8       0.8
 5 C  pz              0.7       1.3       4.0       0.5      11.7       0.3
 5 C  px              1.1       9.9       0.2       0.2      12.0       0.8
 5 C  py              1.2       3.4       8.4       1.3       3.0       0.6
 5 C  dz2             0.0       0.2       0.0       0.0       0.0       0.1
 5 C  dxz             0.0       0.2       0.1       0.0       2.8       0.0
 5 C  dyz             0.5       0.6       0.1       0.0       1.3       0.0
 5 C  dx2y2           0.0       0.1       0.2       0.0       0.7       0.1
 5 C  dxy             0.1       1.1       0.1       0.0       1.0       0.0
 6 C  s               0.0       0.0       0.1       0.1       2.5       0.1
 6 C  pz              2.5       2.4       5.8       0.2      10.2       0.2
 6 C  px              7.1       1.9       0.0       0.2      20.8       0.2
 6 C  py              3.7       1.2       6.5       0.2       4.8       0.1
 6 C  dz2             0.1       0.0       0.1       0.0       0.0       0.0
 6 C  dxz             0.0       0.0       0.5       0.1       4.2       0.1
 6 C  dyz             0.3       0.4       0.1       0.0       0.9       0.0
 6 C  dx2y2           0.0       0.1       0.2       0.0       1.0       0.1
 6 C  dxy             0.2       0.0       0.3       0.0       2.1       0.0
 7 H  s              17.3      28.4       0.0       0.1       0.3       1.4
 8 H  s              10.1       0.6       1.0      19.4       0.1       2.2
 9 H  s               3.0       2.4       3.7      16.0       0.2       1.7
10 H  s               1.0       2.8       1.3      12.8       0.2       0.2
11 H  s               0.1       3.3       0.3      11.4       0.2       0.3
12 H  s               0.0       0.1      21.2       2.6       0.5       0.6
13 H  s               0.1       0.3       9.4       1.8       2.0       0.1
14 H  s              22.0       6.1       0.5       0.2       1.6       0.1
15 H  s               3.8       1.2      13.7       0.8       1.5       0.1
16 H  s               5.6       4.9      15.7       0.1       1.0       0.1

                     42        43        44        45        46        47   
                   0.21512   0.25347   0.30557   0.37851   0.39498   0.40066
                   0.00000   0.00000   0.00000   0.00000   0.00000   0.00000
                  --------  --------  --------  --------  --------  --------
 0 C  s               0.7       0.1       0.8       0.0       0.0       0.1
 0 C  pz              0.0       0.0       0.3       0.9      18.4       2.1
 0 C  px              7.2       0.3      10.7       0.0       1.1       0.9
 0 C  py              0.5       0.8       0.4       0.2       1.9       1.1
 0 C  dz2             0.1       0.2       0.1       0.0       0.8       0.0
 0 C  dxz             0.0       0.1       0.3       0.0       0.2       0.1
 0 C  dyz             0.2       0.0       0.1       0.4       6.0       0.6
 0 C  dx2y2           2.1       1.1       0.0       0.0       0.6       0.1
 0 C  dxy             0.6       0.0       2.2       0.0       0.0       0.3
 1 C  s               3.4       3.7       0.4       0.0       0.0       0.0
 1 C  pz              1.0       1.5       0.1       0.3       4.8       0.8
 1 C  px              0.8       8.1       0.6       0.0       0.0       1.4
 1 C  py             13.2      10.0       0.5       0.2       0.4       0.0
 1 C  dz2             2.0       1.6       0.0       0.0       0.4       0.3
 1 C  dxz             0.4       0.6       0.0       0.1       1.1       0.1
 1 C  dyz             0.4       0.7       0.6       0.4       2.8       0.3
 1 C  dx2y2           0.2       0.1       2.5       0.0       0.8       0.0
 1 C  dxy             0.6       2.3       0.0       0.0       0.0       0.1
 2 C  s              23.2      13.0       6.1       2.4       0.2       0.3
 2 C  pz              0.8       0.9       2.1       6.1       5.1       5.4
 2 C  px              0.5      19.7       9.7       0.9       0.2       0.2
 2 C  py              2.6       3.0      16.5       0.2       1.4       1.2
 2 C  dz2             3.5       1.3       0.2       0.0       0.0       0.0
 2 C  dxz             0.0       0.1       0.1       0.0       0.2       0.0
 2 C  dyz             2.2       1.1       0.2       0.0       0.0       0.0
 2 C  dx2y2           0.0       0.2       2.8       0.1       0.0       0.2
 2 C  dxy             0.1       1.5       0.7       0.0       0.0       0.1
 3 O  s               2.7       2.2       5.4       0.2       0.0       0.0
 3 O  pz              0.2       0.0       0.1       0.2       0.2       0.6
 3 O  px              0.3       4.4       3.4       0.3       0.0       0.7
 3 O  py              1.5       0.6       0.3       0.1       0.0       0.2
 3 O  dxz             0.0       0.1       0.0       0.0       0.0       0.0
 3 O  dxy             0.0       0.7       0.3       0.0       0.0       0.0
 4 O  s               0.7       2.4       3.0       0.0       0.0       0.1
 4 O  pz              0.0       0.1       0.1       1.0       0.0       0.4
 4 O  px              9.6       2.7       6.5       0.1       0.1       0.0
 4 O  py              0.2       1.2       0.1       0.1       0.0       0.1
 4 O  dz2             0.0       0.0       0.1       0.2       0.0       0.0
 4 O  dxz             0.1       0.1       0.1       0.0       0.0       0.1
 4 O  dyz             0.0       0.0       0.0       0.1       0.0       0.1
 4 O  dx2y2           0.0       0.2       0.5       0.0       0.0       0.0
 4 O  dxy             0.5       0.7       0.5       0.2       0.0       0.2
 5 C  s               0.3       0.7       0.7       0.3       0.0       3.6
 5 C  pz              1.4       0.3       0.1       8.0       0.0      15.4
 5 C  px              1.0       3.5       3.7       0.1       0.2       0.5
 5 C  py              3.5       0.3       0.1       1.0       0.6      14.2
 5 C  dz2             0.1       0.0       0.1       3.9       0.2       0.0
 5 C  dxz             0.0       0.0       0.1       0.0       0.1       1.6
 5 C  dyz             0.7       0.0       0.1       0.4       0.0       3.1
 5 C  dx2y2           0.1       0.0       0.2       0.7       0.2       0.9
 5 C  dxy             0.6       0.0       0.6       0.6       0.1       0.0
 6 C  s               0.1       0.0       0.2       0.0       0.1       1.4
 6 C  pz              0.1       0.5       0.4       4.7       3.0      18.7
 6 C  px              1.4       0.0       4.5       1.2       0.1       2.1
 6 C  py              0.0       0.4       0.1      14.0       1.3       2.6
 6 C  dz2             0.0       0.0       0.0       4.9       0.6       0.4
 6 C  dxz             0.2       0.1       0.4       0.0       0.2       1.4
 6 C  dyz             0.1       0.2       0.0       0.0       0.0       1.2
 6 C  dx2y2           0.2       0.0       0.1       2.2       0.3       0.0
 6 C  dxy             0.1       0.0       0.3       0.1       0.1       0.1
 7 H  s               0.4       1.3       7.0       0.0       0.3       0.3
 8 H  s               1.2       0.8       0.3       0.7      11.1       0.9
 9 H  s               0.8       0.9       0.2       0.8      13.3       1.8
10 H  s               1.2       1.1       1.4       1.0       7.1       1.4
11 H  s               1.5       1.6       0.2       0.6       9.0       0.3
12 H  s               1.7       0.1       0.1       7.0       1.4       3.9
13 H  s               0.5       0.2       0.1       9.9       0.2       1.6
14 H  s               0.0       0.0       0.8       0.0       0.2       0.3
15 H  s               0.1       0.2       0.1      13.1       1.4       0.1
16 H  s               0.0       0.3       0.0       9.9       1.8       3.8

                     48        49        50        51        52        53   
                   0.42197   0.42668   0.44104   0.46459   0.48499   0.52827
                   0.00000   0.00000   0.00000   0.00000   0.00000   0.00000
                  --------  --------  --------  --------  --------  --------
 0 C  s               1.8       0.1       0.4       0.1       0.1       2.5
 0 C  pz              0.7       2.8       0.1       4.6       2.0       0.7
 0 C  px              5.8       0.2       1.4       0.9       0.4      15.7
 0 C  py             18.3       9.8       2.3       0.4       1.3       1.6
 0 C  dz2             2.8       2.5       0.0       0.1       0.0       0.5
 0 C  dxz             0.1       0.2       0.0       0.1       0.2       0.0
 0 C  dyz             0.3       0.1       0.1       0.7       0.4       0.0
 0 C  dx2y2           0.4       0.2       0.1       0.1       0.0       0.3
 0 C  dxy             0.3       0.2       0.7       0.0       0.0       0.0
 1 C  s               0.1       0.7       4.0       0.4       0.7       6.8
 1 C  pz              0.1       0.4       0.8       0.3       2.2       1.9
 1 C  px             11.8       0.1       1.4       1.9       2.7       5.8
 1 C  py              6.7      10.2       9.1       2.9       5.0       3.5
 1 C  dz2             1.9       0.8       1.8       0.0       0.2       0.0
 1 C  dxz             0.0       0.0       0.2       0.1       0.0       0.0
[...]
                   0.00000   0.00000   0.00000   0.00000   0.00000   0.00000
                  --------  --------  --------  --------  --------  --------
 0 C  dz2             0.0       0.2       0.0       0.0       0.1       0.0
 0 C  dx2y2           0.0       0.1       0.0       0.0       0.0       0.0
 0 C  dxy             0.2       0.0       0.0       0.0       0.8       0.0
 1 C  s               0.0       0.1       0.0       0.0       0.0       0.4
 1 C  px              0.0       0.2       0.0       0.0       0.1       0.2
 1 C  dz2             0.0       0.1       0.1       0.3       0.1       0.3
 1 C  dxz             0.2       0.1       0.1       0.2       0.0       0.1
 1 C  dyz             0.1       0.1       0.3       0.4       0.6       0.0
 1 C  dx2y2           0.3       0.0       0.0       0.2       3.4       1.3
 1 C  dxy             0.2       1.0       0.0       0.1       1.0       0.2
 2 C  s               0.0       0.0       0.0       0.0       0.3       1.1
 2 C  pz              0.2       0.1       0.1       1.1       0.0       0.1
 2 C  px              0.0       0.2       0.0       0.0       0.3       2.0
 2 C  py              0.1       0.2       0.0       0.1       0.1       1.1
 2 C  dz2             0.4       1.4       0.0       0.2       1.2       0.9
 2 C  dxz             0.0       0.2       0.6      10.6       0.0       0.5
 2 C  dyz             0.0       0.4       0.0       0.0       0.7       1.6
 2 C  dx2y2           0.2       0.6       0.4       0.1      10.2       0.3
 2 C  dxy             0.0       0.1       0.2       1.7       0.0       2.8
 3 O  s               0.1       0.0       0.0       0.0       1.1       0.4
 3 O  pz              0.0       0.0       0.0       0.2       0.1       0.1
 3 O  px              0.0       0.0       0.0       0.0       0.2       0.4
 3 O  py              0.0       0.0       0.1       0.1       0.4       0.4
 3 O  dz2             5.9      39.5       5.0       3.6       1.2       0.1
 3 O  dxz            61.1       3.4       1.0      12.7       0.9       3.0
 3 O  dyz             0.2      10.5       1.5       6.6       4.1       1.2
 3 O  dx2y2           0.6      26.4       0.1       2.1       0.0       2.6
 3 O  dxy            11.4       0.0       0.6       1.0       6.9      20.6
 4 O  s               0.0       0.2       0.0       0.0       0.8       7.2
 4 O  pz              0.1       0.0       0.8       0.5       0.2       0.1
 4 O  px              0.0       0.2       0.1       0.0       0.9       0.3
 4 O  py              0.1       0.5       0.1       0.0       1.4       0.7
 4 O  dz2             3.2       3.9      19.8       3.6      14.4      25.2
 4 O  dxz             3.6       0.5      20.8      30.1       2.5       0.1
 4 O  dyz             5.9       1.2      22.0      16.0      22.0       4.5
 4 O  dx2y2           1.4       1.5       5.6       2.5      10.7      14.0
 4 O  dxy             0.5       0.0       5.2       4.6       1.5       1.3
 5 C  s               0.0       0.2       0.0       0.0       0.8       0.3
 5 C  pz              0.1       0.2       0.4       0.0       0.0       0.0
 5 C  px              0.1       0.4       0.1       0.0       0.6       0.5
 5 C  py              0.0       0.0       0.1       0.0       0.1       0.2
 5 C  dz2             0.0       0.0       0.9       0.2       2.2       0.7
 5 C  dxz             1.2       0.6       9.9       0.0       0.0       0.6
 5 C  dyz             0.4       0.3       1.0       0.3       0.1       0.3
 5 C  dx2y2           0.2       1.5       0.0       0.3       5.7       0.0
 5 C  dxy             0.1       1.1       0.7       0.0       0.0       1.8
 6 C  s               0.1       0.3       0.0       0.0       0.0       0.1
 6 C  pz              0.1       0.1       0.1       0.0       0.0       0.0
 6 C  px              0.1       0.1       0.0       0.0       0.0       0.0
 6 C  dz2             0.0       0.0       0.0       0.0       0.5       0.0
 6 C  dxz             0.5       0.9       0.6       0.0       0.0       0.0
 6 C  dyz             0.2       0.4       0.3       0.0       0.3       0.0
 6 C  dx2y2           0.2       0.1       0.3       0.0       0.4       0.0
 6 C  dxy             0.2       0.3       0.3       0.0       0.1       0.1
12 H  s               0.1       0.1       0.0       0.1       0.0       0.0

                    114       115       116       117   
                   3.11058   3.32411   3.51115   3.55929
                   0.00000   0.00000   0.00000   0.00000
                  --------  --------  --------  --------
 0 C  dx2y2           0.0       0.0       0.2       0.0
 0 C  dxy             0.0       0.1       0.0       0.1
 1 C  s               0.0       0.2       0.1       0.0
 1 C  px              0.0       0.1       0.3       0.1
 1 C  dz2             0.0       0.0       0.1       0.0
 1 C  dxz             0.4       0.0       0.1       0.1
 1 C  dx2y2           0.0       0.3       1.3       0.1
 1 C  dxy             0.1       0.5       0.4       0.6
 2 C  s               0.0       4.1       0.1       6.0
 2 C  pz              0.3       0.1       0.4       0.5
 2 C  px              0.0       1.2       1.4       0.1
 2 C  py              0.0       0.5       2.7       3.1
 2 C  dz2             6.3       0.4       0.3       0.7
 2 C  dxz             1.7       0.5       1.6       1.1
 2 C  dyz            10.2       0.0       0.5       2.0
 2 C  dx2y2           2.6       3.1       3.8       4.1
 2 C  dxy             0.0       2.3      12.9       6.7
 3 O  s               0.0       1.8       1.3       3.6
 3 O  pz              0.8       0.1       0.1       0.4
 3 O  px              0.0       0.3       0.6       0.2
 3 O  py              0.1       0.6       0.7       2.6
 3 O  dz2            20.9       2.5       1.0       3.2
 3 O  dxz             0.0       1.2       2.7       0.4
 3 O  dyz            31.4       4.1       2.5      16.1
 3 O  dx2y2           7.1       5.1       4.9      27.4
 3 O  dxy             0.3       9.0      17.1       2.8
 4 O  s               0.0       0.1       0.8       0.5
 4 O  px              0.0       2.6       3.7       0.2
 4 O  py              0.0       0.1       0.2       0.2
 4 O  dz2             0.0       0.6       2.7       2.2
 4 O  dxz            14.4       5.9       2.9       0.1
 4 O  dyz             0.1       0.2       0.1       0.3
 4 O  dx2y2           0.2       9.6       6.4      13.3
 4 O  dxy             1.8      33.9      23.6       0.0
 5 C  s               0.0       0.8       0.3       0.0
 5 C  px              0.0       1.3       0.4       0.1
 5 C  py              0.0       0.4       0.0       0.1
 5 C  dz2             0.2       0.7       0.1       0.1
 5 C  dxz             0.3       1.0       0.1       0.1
 5 C  dyz             0.2       0.2       0.1       0.2
 5 C  dx2y2           0.0       0.5       1.1       0.2
 5 C  dxy             0.0       3.7       0.1       0.5
 6 C  dxz             0.0       0.1       0.0       0.0
 6 C  dx2y2           0.0       0.1       0.1       0.0


                      *****************************
                      * MAYER POPULATION ANALYSIS *
                      *****************************

  NA   - Mulliken gross atomic population
  ZA   - Total nuclear charge
  QA   - Mulliken gross atomic charge
  VA   - Mayer's total valence
  BVA  - Mayer's bonded valence
  FA   - Mayer's free valence

  ATOM       NA         ZA         QA         VA         BVA        FA
  0 C      6.2655     6.0000    -0.2655     4.0427     4.0427     0.0000
  1 C      6.1928     6.0000    -0.1928     3.9822     3.9822     0.0000
  2 C      5.8888     6.0000     0.1112     4.3772     4.3772     0.0000
  3 O      8.2066     8.0000    -0.2066     2.2990     2.2990    -0.0000
  4 O      8.2464     8.0000    -0.2464     2.2377     2.2377     0.0000
  5 C      6.0269     6.0000    -0.0269     4.0101     4.0101    -0.0000
  6 C      6.2789     6.0000    -0.2789     4.0049     4.0049     0.0000
  7 H      0.8994     1.0000     0.1006     0.9496     0.9496     0.0000
  8 H      0.8855     1.0000     0.1145     0.9635     0.9635     0.0000
  9 H      0.8896     1.0000     0.1104     0.9588     0.9588    -0.0000
 10 H      0.8886     1.0000     0.1114     0.9581     0.9581    -0.0000
 11 H      0.8837     1.0000     0.1163     0.9532     0.9532    -0.0000
 12 H      0.8872     1.0000     0.1128     0.9804     0.9804    -0.0000
 13 H      0.8980     1.0000     0.1020     0.9494     0.9494    -0.0000
 14 H      0.8892     1.0000     0.1108     0.9550     0.9550     0.0000
 15 H      0.8862     1.0000     0.1138     0.9572     0.9572     0.0000
 16 H      0.8867     1.0000     0.1133     0.9593     0.9593    -0.0000

  Mayer bond orders larger than 0.100000
B(  0-C ,  1-C ) :   1.1554 B(  0-C ,  7-H ) :   0.9484 B(  0-C ,  8-H ) :   0.9523 
B(  0-C ,  9-H ) :   0.9571 B(  1-C ,  2-C ) :   1.0182 B(  1-C , 10-H ) :   0.9057 
B(  1-C , 11-H ) :   0.9017 B(  2-C ,  3-O ) :   2.0641 B(  2-C ,  4-O ) :   1.2045 
B(  4-O ,  5-C ) :   0.9141 B(  5-C ,  6-C ) :   1.1571 B(  5-C , 12-H ) :   0.9186 
B(  5-C , 13-H ) :   0.9364 B(  6-C , 14-H ) :   0.9448 B(  6-C , 15-H ) :   0.9487 
B(  6-C , 16-H ) :   0.9525 

-------
TIMINGS
-------

Total SCF time: 0 days 0 hours 0 min 6 sec 

Total time                  ....       6.800 sec
Sum of individual times     ....       6.323 sec  ( 93.0%)

SCF preparation             ....       0.152 sec  (  2.2%)
Fock matrix formation       ....       5.352 sec  ( 78.7%)
  Startup                   ....       0.056 sec  (  1.0% of F)
  Split-RI-J                ....       1.562 sec  ( 29.2% of F)
  XC integration            ....       3.207 sec  ( 59.9% of F)
    Basis function eval.    ....       1.061 sec  ( 33.1% of XC)
    Density eval.           ....       0.348 sec  ( 10.8% of XC)
    XC-Functional eval.     ....       0.306 sec  (  9.5% of XC)
    XC-Potential eval.      ....       0.555 sec  ( 17.3% of XC)
Diagonalization             ....       0.000 sec  (  0.0%)
Density matrix formation    ....       0.172 sec  (  2.5%)
Total Energy calculation    ....       0.035 sec  (  0.5%)
Population analysis         ....       0.061 sec  (  0.9%)
Orbital Transformation      ....       0.040 sec  (  0.6%)
Orbital Orthonormalization  ....       0.000 sec  (  0.0%)
DIIS solution               ....       0.341 sec  (  5.0%)
  MO trafo                  ....       0.000 sec  (  0.0 % of DIIS)
  Orb grad                  ....       0.000 sec  (  0.0 % of DIIS)
  Energy W gradient         ....       0.000 sec  (  0.0 % of DIIS)
  DIIS error                ....       0.003 sec  (  0.8 % of DIIS)
  DIIS work                 ....       0.300 sec  ( 88.0 % of DIIS)
  Form Q                    ....       0.000 sec  (  0.0 % of DIIS)
  Form QpQm                 ....       0.000 sec  (  0.0 % of DIIS)
  Exp/Cayley                ....       0.000 sec  (  0.0 % of DIIS)
  Orb update                ....       0.000 sec  (  0.0 % of DIIS)
  Wake-sleep                ....       0.017 sec  (  5.0 % of DIIS)
SOSCF solution              ....       0.170 sec  (  2.5%)
  MO trafo                  ....       0.063 sec  ( 37.2 % of SOSCF)
  Orb grad                  ....       0.002 sec  (  1.3 % of SOSCF)
  Rot update                ....       0.076 sec  ( 44.7 % of SOSCF)
  Step                      ....       0.028 sec  ( 16.8 % of SOSCF)
Finished LeanSCF after   6.9 sec

Maximum memory used throughout the entire LEANSCF-calculation: 10.9 MB


-------------------------------------------------------------------------------
                          DFT DISPERSION CORRECTION                            
                                                                               
                                DFTD4 V3.4.0                                   
-------------------------------------------------------------------------------
The PBE functional is recognized
Active option DFTDOPT                   ...         5   

-------------------------   ----------------
Dispersion correction           -0.011528467
-------------------------   ----------------

------------------   -----------------
gCP correction             0.076392027
------------------   -----------------

-------------------------   --------------------
FINAL SINGLE POINT ENERGY      -346.245504317940
-------------------------   --------------------


------------------------------------------------------------------------------
                              ORCA PROPERTY CALCULATIONS
------------------------------------------------------------------------------

GBWName                                 ... sp.gbw
Number of atoms                         ...     17
Number of basis functions               ...    118
Max core memory                         ...   1024 MB

Electric properties:
Dipole moment                           ... YES
Quadrupole moment                       ...  NO
Static polarizability (Dipole/Dipole)   ...  NO
Static polarizability (Dipole/Quad.)    ...  NO
Static polarizability (Quad./Quad.)     ...  NO
Static polarizability (Velocity)        ...  NO

Atomic electric properties:
Dipole moment                           ...  NO
Quadrupole moment                       ...  NO
Static polarizability                   ...  NO

Choice of electric origin               ... Center of mass
Position of electric origin             ...     0.000000     0.000010     0.000008

General magnetic properties:
Magnetizability                         ...  NO

EPR properties:
g-Tensor (aka g-matrix)                 ...  NO
Zero-Field splitting spin-orbit         ...  NO
Zero-field splitting spin-spin          ...  NO
Hyperfine couplings                     ...  NO (   0 nuclei)
Quadrupole couplings                    ...  NO (   0 nuclei)
Contact density                         ...  NO (   0 nuclei)

NMR properties:
Chemical shifts                         ...  NO (   0 nuclei)
Spin-rotation constants                 ...  NO (   0 nuclei)
Spin-spin couplings                     ...  NO (   0 nuclei,    0 pairs)

Choice of magnetic origin               ... GIAO
Position of magnetic origin             ...     0.000000     0.000000     0.000000

Properties with geometric perturbations:
SCF Hessian                             ...  NO
IR spectrum                             ...  NO
VCD spectrum                            ...  NO
X-ray spectroscopy properties:
SCF XES/XAS/RIXS spectra                ...  NO


-------------
DIPOLE MOMENT
-------------

Method             : SCF
Type of density    : Electron Density
Multiplicity       :   1
Irrep              :   0
Energy             :  -346.3103678780497034 Eh
Relativity type    : 
Basis              : AO
                                X                 Y                 Z
Electronic contribution:     -0.228340190      -1.635147041      -1.833272954
Nuclear contribution   :      0.638263955       2.229400869       2.065295574
                        -----------------------------------------
Total Dipole Moment    :      0.409923765       0.594253828       0.232022620
                        -----------------------------------------
Magnitude (a.u.)       :      0.758293876
Magnitude (Debye)      :      1.927429856



--------------------
Rotational spectrum 
--------------------
 
Rotational constants in cm-1:             0.252801             0.042714             0.038207 
Rotational constants in MHz :          7578.791528          1280.529483          1145.403276 

Dipole components along the rotational axes: 
x,y,z [a.u.] :     0.437139     0.615080    -0.074806 
x,y,z [Debye]:     1.111119     1.563409    -0.190141 

 

Dipole moment calculation done in   0.0 sec 

Maximum memory used throughout the entire PROP-calculation: 6.9 MB

--------------------------------
SUGGESTED CITATIONS FOR THIS RUN
--------------------------------

Below you find a list of papers that are relevant to this ORCA run
We neither can nor want to force you to cite these papers, but we appreciate if you do
You receive ORCA, which is the product of decades of hard work by many enthusiastic individuals, for free
The only thing we kindly ask in return is that you cite our papers,
We deeply appreciate it, if you show your appreciation for ORCA by not just citing the generic ORCA reference.

Please note that relegating all ORCA citations to the supporting information does *not* help us.
SI sections are not indexed - citations you put there will not count into any citation statistics
But we need these citations in order to attract the funding resources that allow us to do what we are doing

Therefore, if you are a happy ORCA user, please consider citing a few of the papers listed below in the main body of your paper

In addition to the list printed below, the program has created the file sp.bibtex that contains the list in bibtex format
You can import this file easily into all common literature databanks and citation aid programs


List of essential papers. We consider these as the minimum necessary citations

  1. Neese,F.
     Software update: the ORCA program system, version 5.0
     WIRES Comput. Molec. Sci., 2022 12(1)e1606
     doi.org/10.1002/wcms.1606

List of papers to cite with high priority. The work reported in these papers was absolutely
necessary for this run to complete.
Our perspective: the developers of density functionals and basis sets usually get cited in chemistry papers
Good! But without the algorithms to do something with them, the functionals or basis sets would not do anything.
Hence, in our opinion, the algorithm design and method developments papers are equally worthy of getting cited

  1. Neese,F.
     An improvement of the resolution of the identity approximation for the formation of the Coulomb matrix
     J. Comp. Chem., 2003 24(14)1740-1747
     doi.org/10.1002/jcc.10318
  2. Neese,F.
     The SHARK Integral Generation and Digestion System
     J. Comp. Chem., 2022  1-16
     doi.org/10.1002/jcc.26942
  3. Caldeweyher,E.; Bannwarth,C.; Grimme,S.
     Extension of the D3 dispersion coefficient model
     J. Chem. Phys., 2017 147 034112-XXXX
     doi.org/10.1063/1.4993215
  4. Caldeweyher,E.; Ehlert,S.; Hansen,A.; Neugebauer,H.; Spicher,S.; Bannwarth,C.; Grimme,S.
     A generally applicable atomic-charge dependent London dispersion correction
     J. Chem. Phys., 2019 150 154122-XXXX
     doi.org/10.1063/1.5090222
  5. Caldeweyher,E.; Mewes,J.; Ehlert,S.; Grimme,S.
     Extension and evaluation of the D4 London-dispersion model for periodic systems
     Phys. Chem. Chem. Phys., 2020 22(16)8499-8512
     doi.org/10.1039/D0CP00502A

List of suggested additional citations. These are papers that are important in the 'surrounding' of 
of this run, or papers that preceded the highly important papers. If you like your results we are grateful for a citation.

  1. Neese,F.
     The ORCA program system
     WIRES Comput. Molec. Sci., 2012 2(1)73-78
     doi.org/10.1002/wcms.81
  2. Neese,F.
     Software update: the ORCA program system, version 4.0
     WIRES Comput. Molec. Sci., 2018 8(1)1-6
     doi.org/10.1002/wcms.1327
  3. Neese,F.; Wennmohs,F.; Becker,U.; Riplinger,C.
     The ORCA quantum chemistry program package
     J. Chem. Phys., 2020 152 Art. No. L224108
     doi.org/10.1063/5.0004608

List of optional additional citations

  1. Neese,F.
     Approximate second-order SCF convergence for spin unrestricted wavefunctions
     Chem. Phys. Lett., 2000 325(1-3)93-98
     doi.org/10.1016/s0009-2614(00)00662-x

Timings for individual modules:

Sum of individual times          ...        8.229 sec (=   0.137 min)
Startup calculation              ...        0.622 sec (=   0.010 min)   7.6 %
SCF iterations                   ...        7.514 sec (=   0.125 min)  91.3 %
Property calculations            ...        0.094 sec (=   0.002 min)   1.1 %
                             ****ORCA TERMINATED NORMALLY****
TOTAL RUN TIME: 0 days 0 hours 0 minutes 8 seconds 964 msec
