      -----------------------------------------------------------      
     |                   =====================                   |     
     |                           x T B                           |     
     |                   =====================                   |     
     |                         S. Grimme                         |     
     |          Mulliken Center for Theoretical Chemistry        |     
     |                    University of Bonn                     |     
      -----------------------------------------------------------      

   * xtb version 6.7.1 (edcfbbe) compiled by 'albert@albert-system' on 2024-07-22

   xtb is free software: you can redistribute it and/or modify it under
   the terms of the GNU Lesser General Public License as published by
   the Free Software Foundation, either version 3 of the License, or
   (at your option) any later version.
   
   xtb is distributed in the hope that it will be useful,
   but WITHOUT ANY WARRANTY; without even the implied warranty of
   MERCHANTABILITY or FITNESS FOR A PARTICULAR PURPOSE.  See the
   GNU Lesser General Public License for more details.
   
   Cite this work as:
   * C. Bannwarth, E. Caldeweyher, S. Ehlert, A. Hansen, P. Pracht,
     J. Seibert, S. Spicher, S. Grimme, WIREs Comput. Mol. Sci., 2020, 11,
     e01493. DOI: 10.1002/wcms.1493
   
   for GFN2-xTB:
   * C. Bannwarth, S. Ehlert and S. Grimme., J. Chem. Theory Comput., 2019,
     15, 1652-1671. DOI: 10.1021/acs.jctc.8b01176
   for GFN1-xTB:
   * S. Grimme, C. Bannwarth, P. Shushkov, J. Chem. Theory Comput., 2017,
     13, 1989-2009. DOI: 10.1021/acs.jctc.7b00118
   for GFN0-xTB:
   * P. Pracht, E. Caldeweyher, S. Ehlert, S. Grimme, ChemRxiv, 2019, preprint.
     DOI: 10.26434/chemrxiv.8326202.v1
   for GFN-FF:
   * S. Spicher and S. Grimme, Angew. Chem. Int. Ed., 2020, 59, 15665-15673.
     DOI: 10.1002/anie.202004239
   
   for ALPB and GBSA implicit solvation:
   * S. Ehlert, M. Stahn, S. Spicher, S. Grimme, J. Chem. Theory Comput.,
     2021, 17, 4250-4261. DOI: 10.1021/acs.jctc.1c00471
   
   for ddCOSMO and CPCM-X implicit solvation:
   * M. Stahn, S. Ehlert, S. Grimme, J. Phys. Chem. A,
     2023, XX, XXXX-XXXX. DOI: 10.1021/acs.jpca.3c04382
   
   for DFT-D4:
   * E. Caldeweyher, C. Bannwarth and S. Grimme, J. Chem. Phys., 2017,
     147, 034112. DOI: 10.1063/1.4993215
   * E. Caldeweyher, S. Ehlert, A. Hansen, H. Neugebauer, S. Spicher,
     C. Bannwarth and S. Grimme, J. Chem. Phys., 2019, 150, 154122.
     DOI: 10.1063/1.5090222
   * E. Caldeweyher, J.-M. Mewes, S. Ehlert and S. Grimme, Phys. Chem. Chem. Phys.
     2020, 22, 8499-8512. DOI: 10.1039/D0CP00502A
   
   for sTDA-xTB:
   * S. Grimme and C. Bannwarth, J. Chem. Phys., 2016, 145, 054103.
     DOI: 10.1063/1.4959605
   
   in the mass-spec context:
   * V. Asgeirsson, C. Bauer and S. Grimme, Chem. Sci., 2017, 8, 4879.
     DOI: 10.1039/c7sc00601b
   * J. Koopman and S. Grimme, ACS Omega 2019, 4, 12, 15120-15133.
     DOI: 10.1021/acsomega.9b02011
   
   for metadynamics refer to:
   * S. Grimme, J. Chem. Theory Comput., 2019, 155, 2847-2862
     DOI: 10.1021/acs.jctc.9b00143
   
   for SPH calculations refer to:
   * S. Spicher and S. Grimme, J. Chem. Theory Comput., 2021, 17, 1701-1714
     DOI: 10.1021/acs.jctc.0c01306
   
   for ONIOM refer to:
   * C. Plett, A. Katbashev, S. Ehlert, S. Grimme, M. Bursch,
     Phys. Chem. Chem. Phys., 2023, 25, 17860-17868. DOI: 10.1039/D3CP02178E
   
   for DIPRO refer to:
   * J. Kohn, N. Gildemeister, S. Grimme, D. Fazzi, A. Hansen,
     J. Chem. Phys., 2023, just accepted.
   
   for PTB refer to:
   * S. Grimme, M. Mueller, A. Hansen, J. Chem. Phys., 2023, 158, 124111.
     DOI: 10.1063/5.0137838
   
   with help from (in alphabetical order)
   P. Atkinson, C. Bannwarth, F. Bohle, G. Brandenburg, E. Caldeweyher
   M. Checinski, S. Dohm, S. Ehlert, S. Ehrlich, I. Gerasimov, C. Hölzer
   A. Katbashev, J. Kohn, J. Koopman, C. Lavigne, S. Lehtola, F. März, M. Müller,
   F. Musil, H. Neugebauer, J. Pisarek, C. Plett, P. Pracht, F. Pultar,
   J. Seibert, P. Shushkov, S. Spicher, M. Stahn, M. Steiner, T. Strunk,
   J. Stückrath, T. Rose, and J. Unsleber
   
 * started run on 2025/04/11 at 12:19:02.390     
   ID    Z sym.   atoms
    1    6 C      1-3, 6, 7
    2    8 O      4, 5
    3    1 H      8-17

           -------------------------------------------------
          |                Calculation Setup                |
           -------------------------------------------------

          program call               : /srv/scratch/z5358697/.xtb/bin/xtb solv.coord --gfn2 --sp --chrg 0 --norestart --parallel 1 --alpb water reference -I xtb_sp-xcontrol-inp
          hostname                   : k071
          coordinate file            : solv.coord
          omp threads                :                     1


           -------------------------------------------------
          |                 G F N 2 - x T B                 |
           -------------------------------------------------

        Reference                      10.1021/acs.jctc.8b01176
      * Hamiltonian:
        H0-scaling (s, p, d)           1.850000    2.230000    2.230000
        zeta-weighting                 0.500000
      * Dispersion:
        s8                             2.700000
        a1                             0.520000
        a2                             5.000000
        s9                             5.000000
      * Repulsion:
        kExp                           1.500000    1.000000
        rExp                           1.000000
      * Coulomb:
        alpha                          2.000000
        third order                    shell-resolved
        anisotropic                    true
        a3                             3.000000
        a5                             4.000000
        cn-shift                       1.200000
        cn-exp                         4.000000
        max-rad                        5.000000

      * Solvation model:               ALPB
        Solvent                        water
        Parameter file                 internal GFN2-xTB/ALPB
        Dielectric constant                8.0200E+01
        Reference state                gsolv=reference [X=1]
        Free energy shift                  2.8945E-03 Eh       1.8164E+00 kcal/mol
        Temperature                        2.9815E+02 K
        Density                            1.0000E+00 kg/L
        Solvent mass                       1.8000E+01 g/mol
        Interaction kernel             P16
        Born radius scaling (c1)           1.4744E+00
        Born radii integrator          GBOBC
        Born offset                        0.0000E+00 a0       0.0000E+00 AA
        H-bond correction              true
        Ion screening                  false
        Surface tension                    1.0000E-05 Eh       1.5569E+01 dyn/cm
        Grid points                               974 per atom

          ...................................................
          :                      SETUP                      :
          :.................................................:
          :  # basis functions                  38          :
          :  # atomic orbitals                  38          :
          :  # shells                           24          :
          :  # electrons                        42          :
          :  max. iterations                   250          :
          :  Hamiltonian                  GFN2-xTB          :
          :  restarted?                      false          :
          :  GBSA solvation                   true          :
          :  PC potential                    false          :
          :  electronic temp.          300.0000000     K    :
          :  accuracy                    1.0000000          :
          :  -> integral cutoff          0.2500000E+02      :
          :  -> integral neglect         0.1000000E-07      :
          :  -> SCF convergence          0.1000000E-05 Eh   :
          :  -> wf. convergence          0.1000000E-03 e    :
          :  Broyden damping             0.4000000          :
          :  net charge                          0          :
          :  unpaired electrons                  0          :
          ...................................................

 iter      E             dE          RMSdq      gap      omega  full diag
   1    -24.1698976 -0.241699E+02  0.422E+00    5.91       0.0  T
   2    -24.2229412 -0.530435E-01  0.211E+00    4.93       1.0  T
   3    -24.2244318 -0.149064E-02  0.107E+00    5.25       1.0  T
   4    -24.2258845 -0.145273E-02  0.156E-01    5.02       1.0  T
   5    -24.2260457 -0.161187E-03  0.674E-02    5.07       1.0  T
   6    -24.2260474 -0.163051E-05  0.232E-02    5.06       1.0  T
   7    -24.2260480 -0.631352E-06  0.374E-03    5.07       6.5  T
   8    -24.2260480 -0.182142E-07  0.211E-03    5.07      11.5  T
   9    -24.2260480 -0.753410E-08  0.406E-04    5.07      59.8  T
  10    -24.2260480 -0.604352E-09  0.197E-04    5.07     122.9  T

   *** convergence criteria satisfied after 10 iterations ***

         #    Occupation            Energy/Eh            Energy/eV
      -------------------------------------------------------------
         1        2.0000           -0.7487775             -20.3753
       ...           ...                  ...                  ...
        15        2.0000           -0.4761403             -12.9564
        16        2.0000           -0.4662844             -12.6882
        17        2.0000           -0.4596332             -12.5073
        18        2.0000           -0.4513482             -12.2818
        19        2.0000           -0.4459545             -12.1350
        20        2.0000           -0.4416285             -12.0173
        21        2.0000           -0.4220992             -11.4859 (HOMO)
        22                         -0.2359504              -6.4205 (LUMO)
        23                         -0.0069156              -0.1882
        24                          0.1115600               3.0357
        25                          0.1183787               3.2212
        26                          0.1243271               3.3831
       ...                                ...                  ...
        38                          0.6219138              16.9231
      -------------------------------------------------------------
                  HL-Gap            0.1861488 Eh            5.0654 eV
             Fermi-level           -0.3290248 Eh           -8.9532 eV

 SCC (total)                   0 d,  0 h,  0 min,  0.025 sec
 SCC setup                      ...        0 min,  0.001 sec (  4.612%)
 Dispersion                     ...        0 min,  0.000 sec (  0.375%)
 classical contributions        ...        0 min,  0.000 sec (  0.094%)
 integral evaluation            ...        0 min,  0.001 sec (  5.310%)
 iterations                     ...        0 min,  0.018 sec ( 73.363%)
 molecular gradient             ...        0 min,  0.004 sec ( 15.439%)
 printout                       ...        0 min,  0.000 sec (  0.734%)

         :::::::::::::::::::::::::::::::::::::::::::::::::::::
         ::                     SUMMARY                     ::
         :::::::::::::::::::::::::::::::::::::::::::::::::::::
         :: total energy             -23.956034933120 Eh    ::
         :: total w/o Gsasa/hb       -23.957814774405 Eh    ::
         :: gradient norm              0.000027512697 Eh/a0 ::
         :: HOMO-LUMO gap              5.065366834372 eV    ::
         ::.................................................::
         :: SCC energy               -24.226044268560 Eh    ::
         :: -> isotropic ES            0.058163814066 Eh    ::
         :: -> anisotropic ES          0.000589659940 Eh    ::
         :: -> anisotropic XC          0.006436108743 Eh    ::
         :: -> dispersion             -0.009068854598 Eh    ::
         :: -> Gsolv                  -0.006966748534 Eh    ::
         ::    -> Gelec               -0.008746589819 Eh    ::
         ::    -> Gsasa                0.001164446573 Eh    ::
         ::    -> Ghb                 -0.002279154449 Eh    ::
         ::    -> Gshift               0.002894549160 Eh    ::
         :: repulsion energy           0.270009335440 Eh    ::
         :: add. restraining           0.000000000000 Eh    ::
         :: total charge              -0.000000000000 e     ::
         :::::::::::::::::::::::::::::::::::::::::::::::::::::

           -------------------------------------------------
          |                Property Printout                |
           -------------------------------------------------

    * Orbital Energies and Occupations

         #    Occupation            Energy/Eh            Energy/eV
      -------------------------------------------------------------
         1        2.0000           -0.7487775             -20.3753
       ...           ...                  ...                  ...
         9        2.0000           -0.5647025             -15.3663
        10        2.0000           -0.5502725             -14.9737
        11        2.0000           -0.5175416             -14.0830
        12        2.0000           -0.5150263             -14.0146
        13        2.0000           -0.4975512             -13.5391
        14        2.0000           -0.4927380             -13.4081
        15        2.0000           -0.4761403             -12.9564
        16        2.0000           -0.4662844             -12.6882
        17        2.0000           -0.4596332             -12.5073
        18        2.0000           -0.4513482             -12.2818
        19        2.0000           -0.4459545             -12.1350
        20        2.0000           -0.4416285             -12.0173
        21        2.0000           -0.4220992             -11.4859 (HOMO)
        22                         -0.2359504              -6.4205 (LUMO)
        23                         -0.0069156              -0.1882
        24                          0.1115600               3.0357
        25                          0.1183787               3.2212
        26                          0.1243271               3.3831
        27                          0.1536285               4.1804
        28                          0.1598339               4.3493
        29                          0.1604456               4.3659
        30                          0.1663508               4.5266
        31                          0.1811183               4.9285
        32                          0.1892899               5.1508
       ...                                ...                  ...
        38                          0.6219138              16.9231
      -------------------------------------------------------------
                  HL-Gap            0.1861488 Eh            5.0654 eV
             Fermi-level           -0.3290248 Eh           -8.9532 eV

     #   Z          covCN         q      C6AA      α(0)
     1   6 C        3.753    -0.115    22.768     6.804
     2   6 C        3.803    -0.099    22.394     6.737
     3   6 C        2.711     0.365    20.817     7.468
     4   8 O        0.856    -0.479    23.328     6.476
     5   8 O        1.703    -0.283    18.704     5.839
     6   6 C        3.693     0.069    19.599     6.334
     7   6 C        3.750    -0.127    23.002     6.840
     8   1 H        0.925     0.051     2.310     2.377
     9   1 H        0.925     0.063     2.168     2.303
    10   1 H        0.925     0.050     2.316     2.380
    11   1 H        0.924     0.090     1.875     2.141
    12   1 H        0.924     0.089     1.884     2.147
    13   1 H        0.924     0.058     2.225     2.333
    14   1 H        0.924     0.080     1.975     2.198
    15   1 H        0.925     0.070     2.080     2.255
    16   1 H        0.925     0.066     2.133     2.284
    17   1 H        0.925     0.053     2.284     2.364

 Mol. C6AA /au·bohr⁶  :       2198.324838
 Mol. C8AA /au·bohr⁸  :      46871.631883
 Mol. α(0) /au        :         69.279269


Wiberg/Mayer (AO) data.
largest (>0.10) Wiberg bond orders for each atom

 ---------------------------------------------------------------------------
     #   Z sym  total        # sym  WBO       # sym  WBO       # sym  WBO
 ---------------------------------------------------------------------------
     1   6 C    3.991 --     2 C    1.020    10 H    0.987     8 H    0.987
                             9 H    0.985
     2   6 C    3.990 --     1 C    1.020     3 C    0.981    11 H    0.948
                            12 H    0.948
     3   6 C    3.904 --     4 O    1.703     5 O    1.154     2 C    0.981
     4   8 O    1.983 --     3 C    1.703     5 O    0.167
     5   8 O    2.302 --     3 C    1.154     6 C    0.920     4 O    0.167
     6   6 C    3.912 --     7 C    1.014    13 H    0.970    14 H    0.969
                             5 O    0.920
     7   6 C    3.989 --     6 C    1.014    17 H    0.986    16 H    0.985
                            15 H    0.980
     8   1 H    0.997 --     1 C    0.987
     9   1 H    0.995 --     1 C    0.985
    10   1 H    0.997 --     1 C    0.987
    11   1 H    0.992 --     2 C    0.948
    12   1 H    0.992 --     2 C    0.948
    13   1 H    0.997 --     6 C    0.970
    14   1 H    0.993 --     6 C    0.969
    15   1 H    0.994 --     7 C    0.980
    16   1 H    0.996 --     7 C    0.985
    17   1 H    0.997 --     7 C    0.986
 ---------------------------------------------------------------------------

Topologies differ in total number of bonds
Writing topology from bond orders to xtbtopo.mol

molecular dipole:
                 x           y           z       tot (Debye)
 q only:        0.286       0.998       0.217
   full:        0.295       1.046       0.174       2.798
molecular quadrupole (traceless):
                xx          xy          yy          xz          yz          zz
 q only:        8.819      -2.526      -6.703      -1.040      -0.765      -2.116
  q+dip:        6.545      -2.780      -6.460      -1.042      -0.704      -0.086
   full:        7.017      -2.824      -7.154      -0.941      -0.904       0.137


           -------------------------------------------------
          | TOTAL ENERGY              -23.956034933120 Eh   |
          | GRADIENT NORM               0.000027512697 Eh/α |
          | HOMO-LUMO GAP               5.065366834372 eV   |
           -------------------------------------------------

------------------------------------------------------------------------
 * finished run on 2025/04/11 at 12:19:02.450     
------------------------------------------------------------------------
 total:
 * wall-time:     0 d,  0 h,  0 min,  0.059 sec
 *  cpu-time:     0 d,  0 h,  0 min,  0.021 sec
 * ratio c/w:     0.347 speedup
 SCF:
 * wall-time:     0 d,  0 h,  0 min,  0.025 sec
 *  cpu-time:     0 d,  0 h,  0 min,  0.013 sec
 * ratio c/w:     0.506 speedup

