 Entering Gaussian System
 *********************************************
 Gaussian 98:
 frequency output generated by the xtb code
 *********************************************
                         Standard orientation:
 --------------------------------------------------------------------
  Center     Atomic     Atomic              Coordinates (Angstroms)
  Number     Number      Type              X           Y           Z
 --------------------------------------------------------------------
    1          6             0        4.151025    0.069080   -0.460891
    2          7             0        2.726179   -0.181898   -0.487627
    3          6             0        2.290602   -1.090245   -1.523214
    4          6             0        1.928976    0.365431    0.440919
    5          8             0        2.373578    1.048258    1.371746
    6          6             0        0.458159    0.141428    0.316725
    7          6             0       -0.251507    0.573220   -0.796558
    8          6             0       -1.627585    0.439341   -0.858793
    9          6             0       -2.317194   -0.139031    0.202490
   10          6             0       -1.606888   -0.562786    1.328476
   11          6             0       -0.239431   -0.410893    1.388113
   12          8             0       -3.662910   -0.330038    0.245683
   13          6             0       -4.446486    0.083731   -0.859514
   14          1             0        4.358608    0.787430    0.329520
   15          1             0        4.470748    0.475104   -1.420759
   16          1             0        4.694802   -0.855212   -0.260710
   17          1             0        1.270172   -1.414208   -1.341999
   18          1             0        2.946263   -1.961869   -1.525510
   19          1             0        2.350169   -0.607565   -2.500697
   20          1             0        0.270756    1.034798   -1.620542
   21          1             0       -2.148208    0.791432   -1.734031
   22          1             0       -2.156444   -1.000036    2.146499
   23          1             0        0.305586   -0.722246    2.266398
   24          1             0       -4.365659    1.161892   -1.018190
   25          1             0       -5.469829   -0.171154   -0.594125
   26          1             0       -4.158133   -0.449871   -1.768395
 --------------------------------------------------------------------
     1 basis functions        1 primitive gaussians
     1 alpha electrons        1 beta electrons
 
 Harmonic frequencies (cm**-1), IR intensities (km*mol⁻¹),
 Raman scattering activities (A**4/amu), Raman depolarization ratios,
 reduced masses (AMU), force constants (mDyne/A) and normal coordinates:
                      1                      2                      3
                        a                      a                      a 
 Frequencies --    39.9865                54.5679                75.7592
 Red. masses --    11.1471                10.1134                 9.2615
 Frc consts  --     0.0000                 0.0000                 0.0000
 IR Inten    --     5.3249                 2.4615                 0.7245
 Raman Activ --     0.0000                 0.0000                 0.0000
 Depolar     --     0.0000                 0.0000                 0.0000
 Atom AN      X      Y      Z        X      Y      Z        X      Y      Z
   1   6    -0.01   0.14  -0.04    -0.05  -0.31  -0.06     0.14  -0.36   0.44
   2   7     0.00   0.09  -0.10    -0.10  -0.05  -0.02     0.09  -0.03   0.04
   3   6     0.06   0.23  -0.23    -0.29   0.10  -0.07     0.15   0.23  -0.21
   4   6    -0.00  -0.14   0.04     0.04   0.04   0.04    -0.02   0.07  -0.11
   5   8     0.02  -0.42   0.24     0.22  -0.08   0.06    -0.12   0.04  -0.06
   6   6    -0.00  -0.07   0.02     0.01   0.21   0.10    -0.02   0.09  -0.19
   7   6     0.04  -0.28  -0.09     0.00   0.29   0.13    -0.10   0.02  -0.16
   8   6     0.03  -0.22  -0.08     0.01   0.21   0.09    -0.11  -0.03  -0.06
   9   6    -0.02   0.06   0.04     0.03   0.07   0.02    -0.02  -0.01   0.00
  10   6    -0.07   0.30   0.16     0.02   0.09   0.04     0.07   0.05  -0.03
  11   6    -0.06   0.24   0.14     0.01   0.16   0.07     0.06   0.10  -0.13
  12   8    -0.04   0.17   0.06     0.06  -0.14  -0.08    -0.01  -0.05   0.14
  13   6     0.02  -0.13  -0.09     0.09  -0.42  -0.22    -0.14  -0.07   0.21
  14   1    -0.01   0.01   0.02     0.03  -0.12  -0.01     0.03  -0.16   0.18
  15   1    -0.01   0.08   0.00    -0.00  -0.09  -0.01     0.14  -0.07   0.18
  16   1     0.01   0.04  -0.05    -0.06  -0.12  -0.04    -0.04  -0.15   0.12
  17   1     0.03   0.02  -0.07    -0.09   0.06  -0.01     0.01   0.12  -0.15
  18   1     0.05   0.09  -0.12    -0.11   0.01  -0.06    -0.01   0.03  -0.06
  19   1    -0.02   0.12  -0.04    -0.09   0.05  -0.01     0.14   0.11  -0.03
  20   1     0.02  -0.14  -0.05    -0.00   0.11   0.05    -0.05   0.01  -0.06
  21   1     0.02  -0.11  -0.05     0.00   0.07   0.03    -0.05  -0.02  -0.01
  22   1    -0.03   0.16   0.07     0.01   0.01   0.00     0.04   0.02   0.01
  23   1    -0.03   0.12   0.07     0.00   0.04   0.02     0.04   0.04  -0.04
  24   1     0.02  -0.05  -0.11    -0.06  -0.12  -0.08    -0.05  -0.02   0.05
  25   1     0.00  -0.01  -0.02     0.04  -0.20  -0.10    -0.03  -0.02   0.09
  26   1     0.01  -0.11   0.02     0.11  -0.12  -0.04    -0.07  -0.02   0.05
                      4                      5                      6
                        a                      a                      a 
 Frequencies --   111.1702               135.8343               147.1148
 Red. masses --    10.3811                 6.0732                 2.1691
 Frc consts  --     0.0000                 0.0000                 0.0000
 IR Inten    --     5.3704                 3.0903                 1.4217
 Raman Activ --     0.0000                 0.0000                 0.0000
 Depolar     --     0.0000                 0.0000                 0.0000
 Atom AN      X      Y      Z        X      Y      Z        X      Y      Z
   1   6    -0.05  -0.14  -0.03     0.01  -0.04   0.01    -0.02   0.07  -0.08
   2   7    -0.09   0.02   0.03     0.04  -0.23   0.19    -0.01  -0.01  -0.02
   3   6    -0.23   0.13  -0.01    -0.10   0.14  -0.07     0.08  -0.11   0.04
   4   6     0.01   0.10   0.07     0.00   0.01   0.01    -0.00  -0.02  -0.00
   5   8     0.13   0.06   0.06    -0.08   0.32  -0.18     0.03  -0.05   0.01
   6   6     0.01   0.14   0.09     0.02  -0.11   0.04    -0.01   0.04   0.02
   7   6     0.05  -0.09  -0.02     0.04  -0.10   0.03    -0.01   0.04   0.02
   8   6     0.07  -0.25  -0.11     0.04  -0.05   0.02    -0.01   0.01   0.00
   9   6     0.06  -0.21  -0.10     0.01   0.01   0.03    -0.01  -0.02  -0.01
  10   6     0.01   0.03   0.02    -0.01  -0.06   0.02    -0.02   0.07   0.03
  11   6    -0.01   0.21   0.11     0.00  -0.13   0.02    -0.02   0.10   0.04
  12   8     0.09  -0.42  -0.23    -0.02   0.20   0.05     0.01  -0.15  -0.07
  13   6     0.01   0.35   0.12     0.08  -0.02  -0.10    -0.02   0.04   0.02
  14   1     0.02  -0.05  -0.01     0.04  -0.25   0.21     0.04  -0.28   0.24
  15   1    -0.02  -0.04  -0.01    -0.09   0.31   0.11    -0.08   0.41   0.11
  16   1    -0.04  -0.06  -0.02     0.05  -0.06  -0.34     0.02  -0.05  -0.44
  17   1    -0.03  -0.03   0.07     0.05  -0.14   0.11    -0.09   0.22  -0.18
  18   1    -0.02   0.07  -0.10     0.10   0.14  -0.27    -0.17  -0.19   0.26
  19   1    -0.18   0.09   0.02    -0.27   0.19   0.04     0.36  -0.16  -0.03
  20   1     0.02  -0.04  -0.01     0.01  -0.03   0.01    -0.00   0.01   0.00
  21   1     0.03  -0.13  -0.06     0.02  -0.01   0.01    -0.00  -0.00  -0.00
  22   1    -0.00   0.02   0.01    -0.01  -0.01   0.00    -0.01   0.03   0.01
  23   1    -0.01   0.12   0.06    -0.01  -0.05   0.00    -0.01   0.04   0.02
  24   1     0.11   0.11   0.16     0.03  -0.01  -0.09    -0.00   0.02   0.06
  25   1    -0.01   0.18   0.06     0.02   0.01  -0.04    -0.00   0.00   0.00
  26   1    -0.11   0.18  -0.04     0.04  -0.06   0.01    -0.02   0.05  -0.02
                      7                      8                      9
                        a                      a                      a 
 Frequencies --   173.2240               194.8995               236.1699
 Red. masses --     8.3825                 8.7599                 6.5494
 Frc consts  --     0.0000                 0.0000                 0.0000
 IR Inten    --     2.7490                 3.0376                 1.0060
 Raman Activ --     0.0000                 0.0000                 0.0000
 Depolar     --     0.0000                 0.0000                 0.0000
 Atom AN      X      Y      Z        X      Y      Z        X      Y      Z
   1   6     0.05   0.14  -0.03     0.04   0.06   0.04     0.04   0.08  -0.08
   2   7     0.10  -0.13   0.11     0.09  -0.20   0.02     0.11  -0.33   0.21
   3   6     0.05  -0.19   0.18     0.22  -0.00  -0.20     0.15   0.05  -0.13
   4   6     0.03  -0.06   0.00    -0.01  -0.14  -0.08     0.06  -0.09   0.04
   5   8    -0.03  -0.27   0.18    -0.07   0.08  -0.24     0.14   0.06  -0.10
   6   6     0.01   0.11  -0.18    -0.02  -0.17   0.04     0.01   0.00   0.09
   7   6    -0.02   0.16  -0.14    -0.04  -0.02   0.11     0.01   0.14   0.14
   8   6    -0.04   0.19  -0.08    -0.05   0.16   0.19     0.01   0.10   0.02
   9   6     0.01   0.09  -0.10    -0.07   0.06   0.12    -0.06   0.02  -0.07
  10   6     0.04   0.14  -0.11    -0.10   0.19   0.19    -0.09   0.08  -0.02
  11   6     0.03   0.16  -0.14    -0.07   0.09   0.15    -0.09   0.02   0.05
  12   8     0.05  -0.17  -0.01    -0.04  -0.30  -0.16    -0.06  -0.13  -0.11
  13   6    -0.23  -0.10   0.21     0.06   0.10  -0.08    -0.22  -0.08   0.04
  14   1     0.01  -0.02   0.05    -0.04   0.08  -0.04    -0.01   0.11  -0.10
  15   1    -0.05   0.15   0.02     0.01  -0.04  -0.01    -0.06  -0.04  -0.08
  16   1     0.08   0.05  -0.12     0.05   0.06   0.09     0.09   0.09   0.03
  17   1     0.11  -0.25   0.22     0.07  -0.04  -0.09     0.02   0.05  -0.12
  18   1     0.18   0.07  -0.10     0.09   0.02  -0.11     0.00  -0.02  -0.07
  19   1    -0.25  -0.01   0.06     0.05   0.07  -0.03     0.12   0.09   0.01
  20   1    -0.01   0.04  -0.05    -0.01  -0.02   0.03     0.01   0.06   0.05
  21   1    -0.03   0.07  -0.01    -0.01   0.09   0.07     0.02   0.02  -0.01
  22   1     0.02   0.03  -0.03    -0.03   0.08   0.07    -0.04   0.03  -0.01
  23   1     0.02   0.05  -0.04    -0.03   0.04   0.05    -0.05  -0.01   0.02
  24   1    -0.16  -0.01   0.13    -0.14   0.08   0.22     0.20  -0.08  -0.21
  25   1    -0.03  -0.13   0.09     0.04  -0.20  -0.17    -0.09   0.31   0.21
  26   1    -0.07   0.06   0.01     0.19   0.28  -0.12    -0.34  -0.28   0.07
                     10                     11                     12
                        a                      a                      a 
 Frequencies --   246.3440               268.2902               295.0612
 Red. masses --     7.6296                10.6300                11.7113
 Frc consts  --     0.0000                 0.0000                 0.0000
 IR Inten    --     3.4692                 7.2838                 3.5130
 Raman Activ --     0.0000                 0.0000                 0.0000
 Depolar     --     0.0000                 0.0000                 0.0000
 Atom AN      X      Y      Z        X      Y      Z        X      Y      Z
   1   6     0.02  -0.02  -0.13    -0.15   0.11  -0.08     0.15   0.01  -0.12
   2   7     0.03  -0.11   0.18    -0.06  -0.40   0.34     0.16  -0.14   0.17
   3   6    -0.06   0.16  -0.02    -0.16   0.08  -0.04     0.14   0.02   0.05
   4   6     0.08   0.02   0.14    -0.11  -0.03   0.03     0.12   0.12   0.01
   5   8     0.16   0.16   0.03    -0.31  -0.04   0.12     0.34  -0.08   0.07
   6   6     0.06  -0.04   0.13    -0.05   0.07  -0.17    -0.00   0.29  -0.05
   7   6     0.15  -0.15   0.01    -0.02   0.06  -0.18    -0.23   0.04  -0.03
   8   6     0.14  -0.10  -0.17    -0.01  -0.02  -0.07    -0.22  -0.22   0.09
   9   6     0.01   0.04  -0.18     0.14  -0.01   0.03    -0.22  -0.19   0.12
  10   6    -0.06  -0.03  -0.16     0.15   0.00   0.02    -0.01  -0.19  -0.02
  11   6    -0.07  -0.07   0.02     0.12   0.06  -0.09    -0.00   0.12  -0.12
  12   8    -0.01   0.20   0.01     0.18   0.00   0.12    -0.33   0.11   0.09
  13   6    -0.35  -0.09   0.15     0.29   0.03   0.03     0.03   0.10  -0.18
  14   1     0.04   0.05  -0.10    -0.07   0.14  -0.11     0.08   0.03  -0.06
  15   1    -0.05  -0.07  -0.08    -0.15  -0.03  -0.09    -0.03  -0.01  -0.06
  16   1     0.03   0.01  -0.00     0.07   0.11   0.03     0.08   0.02  -0.05
  17   1    -0.07   0.15  -0.10    -0.10   0.14  -0.13     0.04   0.00   0.01
  18   1    -0.12  -0.03   0.02    -0.16  -0.06  -0.01     0.04   0.00  -0.02
  19   1     0.12   0.07   0.02     0.11   0.09   0.03     0.04   0.04   0.03
  20   1     0.07  -0.05   0.01    -0.02   0.02  -0.06    -0.13   0.02  -0.04
  21   1     0.06  -0.02  -0.06    -0.03  -0.02  -0.01    -0.07  -0.09   0.02
  22   1    -0.05  -0.00  -0.06     0.05   0.00   0.01     0.06  -0.09   0.02
  23   1    -0.06  -0.03   0.03     0.08   0.04  -0.05     0.01   0.04  -0.04
  24   1    -0.38   0.02   0.18     0.08   0.01   0.03    -0.01   0.04  -0.01
  25   1    -0.03  -0.33   0.01     0.08  -0.01  -0.04    -0.01  -0.02  -0.17
  26   1     0.04   0.16  -0.02     0.13   0.03   0.01     0.13   0.07  -0.04
                     13                     14                     15
                        a                      a                      a 
 Frequencies --   325.2705               375.0167               396.3113
 Red. masses --    10.8164                 9.1788                 9.1913
 Frc consts  --     0.0000                 0.0000                 0.0000
 IR Inten    --    17.1024                 0.8874                 7.2452
 Raman Activ --     0.0000                 0.0000                 0.0000
 Depolar     --     0.0000                 0.0000                 0.0000
 Atom AN      X      Y      Z        X      Y      Z        X      Y      Z
   1   6    -0.31   0.22   0.34     0.01   0.12   0.14    -0.09  -0.22  -0.24
   2   7    -0.24  -0.17  -0.08     0.04  -0.03  -0.02    -0.14   0.05   0.01
   3   6     0.05  -0.17  -0.18    -0.15   0.01   0.04     0.41  -0.09  -0.11
   4   6    -0.09  -0.01  -0.05     0.05  -0.02  -0.03    -0.12   0.06   0.05
   5   8     0.35  -0.10  -0.21     0.15  -0.04  -0.07    -0.22   0.05   0.12
   6   6    -0.07   0.21   0.13     0.03  -0.03  -0.05    -0.11   0.13   0.11
   7   6     0.03   0.07   0.02    -0.05   0.29   0.12    -0.02   0.31   0.15
   8   6     0.05  -0.05  -0.08     0.02  -0.34  -0.14     0.05  -0.19  -0.16
   9   6     0.08  -0.07  -0.08    -0.03   0.03   0.04     0.08  -0.10  -0.10
  10   6     0.03  -0.17  -0.08    -0.04   0.40   0.17    -0.05   0.04   0.03
  11   6    -0.02   0.10   0.10     0.07  -0.39  -0.21    -0.06  -0.05   0.06
  12   8     0.08   0.14   0.07    -0.04  -0.05  -0.02     0.09   0.09   0.08
  13   6     0.03  -0.01   0.05    -0.01   0.02  -0.02     0.07  -0.00   0.06
  14   1    -0.23   0.06   0.14    -0.06   0.04   0.05     0.09  -0.08  -0.09
  15   1    -0.03   0.13   0.15     0.03   0.05   0.06    -0.07  -0.09  -0.09
  16   1    -0.02   0.11   0.13     0.03   0.06   0.06    -0.08  -0.10  -0.11
  17   1     0.03  -0.11  -0.08    -0.05   0.05   0.05     0.16  -0.19  -0.10
  18   1     0.07  -0.00  -0.05    -0.08  -0.03   0.00     0.26   0.08  -0.02
  19   1     0.01  -0.02  -0.04    -0.06  -0.01   0.01     0.10   0.01  -0.02
  20   1     0.03   0.02   0.02    -0.04   0.18   0.08     0.01   0.16   0.09
  21   1     0.02  -0.02  -0.03     0.02  -0.21  -0.09     0.02  -0.11  -0.07
  22   1    -0.01  -0.09  -0.05    -0.01   0.22   0.11    -0.05   0.05   0.01
  23   1    -0.01   0.04   0.03     0.04  -0.24  -0.12    -0.01  -0.04   0.01
  24   1    -0.04   0.00   0.02    -0.02   0.01   0.04    -0.02   0.00   0.03
  25   1     0.02  -0.05   0.01    -0.00  -0.03  -0.03     0.03  -0.04   0.00
  26   1     0.04   0.01   0.02     0.02   0.04  -0.02     0.05   0.02   0.02
                     16                     17                     18
                        a                      a                      a 
 Frequencies --   447.0927               466.0635               543.2016
 Red. masses --    10.8801                10.6744                 9.8052
 Frc consts  --     0.0000                 0.0000                 0.0000
 IR Inten    --     3.7204                 1.2261                 0.4296
 Raman Activ --     0.0000                 0.0000                 0.0000
 Depolar     --     0.0000                 0.0000                 0.0000
 Atom AN      X      Y      Z        X      Y      Z        X      Y      Z
   1   6     0.20   0.07   0.04     0.17   0.03   0.01     0.25   0.04  -0.01
   2   7     0.20  -0.04  -0.11     0.14   0.04  -0.01     0.19  -0.07  -0.07
   3   6    -0.16  -0.02  -0.00    -0.06   0.06   0.07    -0.05  -0.03  -0.03
   4   6     0.04  -0.14  -0.14     0.02  -0.10   0.00    -0.03   0.00  -0.19
   5   8    -0.32  -0.07  -0.08     0.10  -0.02  -0.11    -0.23  -0.11  -0.07
   6   6     0.05  -0.08   0.00    -0.09  -0.11   0.06    -0.15   0.35   0.25
   7   6     0.02   0.28   0.19    -0.09   0.03   0.08    -0.05  -0.00   0.08
   8   6     0.08  -0.15   0.03    -0.11   0.09  -0.26    -0.01  -0.11  -0.11
   9   6     0.08  -0.41  -0.12    -0.08  -0.03  -0.28     0.02   0.42   0.17
  10   6     0.06  -0.13   0.03    -0.20   0.06  -0.25    -0.03  -0.15  -0.00
  11   6     0.03   0.25   0.17    -0.25   0.04   0.05    -0.05  -0.03   0.17
  12   8    -0.02   0.25  -0.04    -0.01  -0.11   0.37     0.12  -0.04  -0.10
  13   6    -0.14   0.03  -0.05     0.36  -0.04   0.20     0.01  -0.01   0.01
  14   1    -0.01   0.03   0.02     0.05   0.01   0.00     0.04   0.02  -0.00
  15   1     0.09   0.03   0.03     0.05   0.01   0.00     0.07   0.02   0.00
  16   1     0.08   0.04   0.04     0.04   0.01   0.00     0.09   0.02   0.01
  17   1    -0.06   0.08   0.08    -0.02   0.07   0.07    -0.02   0.05   0.06
  18   1    -0.12  -0.06  -0.03    -0.06  -0.02   0.00    -0.07  -0.05  -0.04
  19   1    -0.08  -0.03  -0.01    -0.04   0.00   0.01    -0.05  -0.02  -0.02
  20   1    -0.01   0.19   0.11     0.01   0.03   0.06     0.03  -0.16  -0.04
  21   1     0.00   0.02   0.05     0.03   0.08  -0.09     0.02  -0.24  -0.13
  22   1     0.02   0.04   0.05    -0.13   0.05  -0.10    -0.02  -0.24  -0.12
  23   1     0.00   0.19   0.09    -0.13   0.03   0.06     0.00  -0.18  -0.02
  24   1    -0.10   0.01  -0.04     0.18  -0.01   0.07    -0.02   0.00   0.01
  25   1    -0.02  -0.04   0.02     0.06   0.04  -0.08     0.02  -0.02   0.03
  26   1    -0.04   0.01  -0.01     0.19  -0.01   0.08    -0.03   0.01  -0.02
                     19                     20                     21
                        a                      a                      a 
 Frequencies --   573.3699               596.5192               661.3649
 Red. masses --    12.0974                11.4008                11.4935
 Frc consts  --     0.0000                 0.0000                 0.0000
 IR Inten    --    52.2008                 5.3918                 5.9036
 Raman Activ --     0.0000                 0.0000                 0.0000
 Depolar     --     0.0000                 0.0000                 0.0000
 Atom AN      X      Y      Z        X      Y      Z        X      Y      Z
   1   6    -0.09   0.01   0.02    -0.02  -0.01  -0.00     0.11   0.02   0.00
   2   7    -0.05  -0.09  -0.14    -0.01  -0.03   0.08     0.07  -0.15  -0.02
   3   6    -0.06  -0.17  -0.20     0.03   0.03   0.06    -0.05  -0.13  -0.14
   4   6     0.18   0.02   0.04    -0.07   0.21  -0.15     0.01   0.51  -0.30
   5   8    -0.25   0.13   0.22     0.06  -0.10   0.01    -0.07  -0.07   0.20
   6   6     0.29   0.07   0.10    -0.04  -0.11   0.10    -0.02   0.22   0.13
   7   6     0.12  -0.05   0.21    -0.35  -0.20   0.22     0.12  -0.20  -0.06
   8   6     0.08  -0.04   0.02    -0.34   0.12  -0.21     0.09   0.16   0.14
   9   6    -0.22   0.11  -0.06     0.06  -0.04  -0.14     0.03  -0.29  -0.14
  10   6     0.19   0.13  -0.31     0.32   0.15  -0.12    -0.20   0.13   0.14
  11   6     0.20   0.08  -0.04     0.35  -0.15   0.31    -0.14  -0.22  -0.08
  12   8    -0.36  -0.15   0.19     0.06   0.06  -0.09     0.02   0.03   0.03
  13   6    -0.02   0.01  -0.02    -0.05   0.03  -0.08     0.03  -0.01   0.05
  14   1    -0.10   0.01   0.03     0.02  -0.00  -0.01    -0.02   0.01   0.01
  15   1     0.02   0.03   0.03    -0.03  -0.01  -0.01     0.05   0.02   0.01
  16   1     0.01   0.03   0.04    -0.01  -0.00  -0.01     0.06   0.03   0.02
  17   1    -0.01  -0.06  -0.07     0.01   0.00   0.01    -0.02  -0.02  -0.03
  18   1    -0.00  -0.04  -0.04     0.01   0.01   0.02    -0.03  -0.04  -0.04
  19   1    -0.00  -0.04  -0.05     0.01   0.01   0.02    -0.02  -0.04  -0.04
  20   1     0.02  -0.04   0.04    -0.06  -0.03   0.10     0.04  -0.02   0.00
  21   1     0.13  -0.02  -0.06    -0.07   0.09  -0.05     0.02   0.12   0.07
  22   1     0.10  -0.02  -0.09     0.03   0.10  -0.04    -0.09   0.11   0.06
  23   1    -0.01  -0.04   0.01     0.07  -0.01   0.11    -0.06  -0.04  -0.00
  24   1     0.08  -0.00   0.02    -0.04   0.01  -0.03     0.01  -0.00   0.00
  25   1    -0.05   0.05  -0.13    -0.00  -0.00   0.02     0.01  -0.00   0.01
  26   1     0.07   0.01   0.02    -0.04   0.00  -0.02     0.01  -0.01   0.02
                     22                     23                     24
                        a                      a                      a 
 Frequencies --   697.2096               712.7786               802.4954
 Red. masses --    11.8673                11.8753                 7.6170
 Frc consts  --     0.0000                 0.0000                 0.0000
 IR Inten    --    23.7926                10.1608                39.4228
 Raman Activ --     0.0000                 0.0000                 0.0000
 Depolar     --     0.0000                 0.0000                 0.0000
 Atom AN      X      Y      Z        X      Y      Z        X      Y      Z
   1   6     0.12   0.03  -0.00    -0.05  -0.02  -0.01    -0.15  -0.03  -0.00
   2   7     0.03   0.04  -0.16    -0.01   0.08   0.09    -0.01  -0.01   0.02
   3   6    -0.05  -0.14  -0.18     0.08   0.21   0.24     0.03   0.08   0.09
   4   6     0.17  -0.41   0.40    -0.20  -0.26  -0.07     0.07   0.04  -0.10
   5   8    -0.04   0.26   0.11    -0.09  -0.19  -0.34    -0.02  -0.04  -0.02
   6   6    -0.06   0.32   0.11    -0.08   0.33   0.17     0.19  -0.14  -0.07
   7   6    -0.18  -0.13  -0.09     0.20  -0.06  -0.09    -0.12   0.00   0.28
   8   6    -0.23   0.16  -0.02     0.16   0.16   0.11    -0.07   0.12   0.26
   9   6     0.08  -0.25  -0.10    -0.01  -0.25  -0.13    -0.04  -0.22  -0.10
  10   6     0.01   0.13   0.09     0.12   0.19  -0.00    -0.07   0.19  -0.07
  11   6     0.03  -0.11  -0.06     0.15  -0.11   0.02    -0.11   0.21  -0.16
  12   8     0.13   0.09  -0.06    -0.24  -0.04   0.13     0.20   0.14  -0.09
  13   6     0.02   0.01  -0.00    -0.08   0.01  -0.04     0.10  -0.02   0.07
  14   1    -0.02   0.01   0.01     0.06  -0.01  -0.02    -0.05  -0.01   0.00
  15   1     0.07   0.03   0.02    -0.06  -0.03  -0.03    -0.04  -0.01   0.00
  16   1     0.05   0.02   0.02    -0.05  -0.03  -0.04    -0.04  -0.01   0.00
  17   1    -0.02  -0.02  -0.03     0.02   0.06   0.08     0.01   0.01   0.02
  18   1    -0.02  -0.05  -0.06     0.02   0.05   0.05     0.02   0.03   0.03
  19   1    -0.03  -0.04  -0.05     0.01   0.05   0.06     0.02   0.02   0.02
  20   1    -0.06  -0.08  -0.06     0.09  -0.09  -0.04    -0.07  -0.25  -0.09
  21   1    -0.09   0.00  -0.00     0.08  -0.02  -0.02     0.06  -0.39  -0.14
  22   1    -0.00   0.02   0.01     0.06  -0.01  -0.02     0.06  -0.24  -0.13
  23   1     0.02  -0.08  -0.04     0.06  -0.11  -0.04    -0.06  -0.22  -0.12
  24   1    -0.03   0.00  -0.01     0.03   0.00   0.00    -0.04  -0.00   0.01
  25   1     0.03  -0.02   0.05    -0.05   0.03  -0.09     0.06  -0.06   0.10
  26   1    -0.02  -0.00  -0.01     0.04   0.00   0.01    -0.02   0.00  -0.00
                     25                     26                     27
                        a                      a                      a 
 Frequencies --   819.0276               861.1186               904.8912
 Red. masses --     9.1346                 3.4317                 2.7530
 Frc consts  --     0.0000                 0.0000                 0.0000
 IR Inten    --    34.6040                 1.5135                 1.7064
 Raman Activ --     0.0000                 0.0000                 0.0000
 Depolar     --     0.0000                 0.0000                 0.0000
 Atom AN      X      Y      Z        X      Y      Z        X      Y      Z
   1   6    -0.11  -0.02  -0.00    -0.00  -0.00   0.00    -0.03  -0.01  -0.00
   2   7     0.01   0.01  -0.01     0.00   0.00  -0.00     0.01  -0.01  -0.00
   3   6     0.06   0.10   0.12     0.00   0.01   0.01     0.00   0.02   0.01
   4   6     0.01  -0.13  -0.06    -0.00  -0.02  -0.00     0.04   0.02  -0.02
   5   8    -0.10  -0.08  -0.13    -0.01  -0.01  -0.02     0.00   0.01   0.02
   6   6     0.15   0.27   0.12    -0.00   0.06   0.03     0.00  -0.01  -0.01
   7   6    -0.09  -0.26   0.22    -0.01   0.07   0.07    -0.03   0.28   0.12
   8   6    -0.00  -0.28   0.15    -0.02   0.21   0.13     0.02  -0.14  -0.09
   9   6    -0.12   0.12   0.06    -0.02   0.06   0.02     0.02  -0.04  -0.02
  10   6    -0.01   0.00  -0.23     0.03  -0.25  -0.14     0.01  -0.13  -0.04
  11   6    -0.07   0.01  -0.29     0.02  -0.21  -0.11    -0.01   0.09   0.06
  12   8     0.23   0.05  -0.15     0.01  -0.00  -0.01    -0.01  -0.01   0.00
  13   6     0.11  -0.03   0.08     0.01  -0.01   0.01    -0.01   0.00  -0.00
  14   1    -0.02  -0.01  -0.00     0.00   0.00  -0.00    -0.02  -0.00   0.00
  15   1    -0.04  -0.01  -0.01    -0.00  -0.00  -0.00    -0.00   0.00   0.00
  16   1    -0.03  -0.01  -0.01    -0.00  -0.00  -0.00    -0.00   0.00   0.00
  17   1     0.01   0.03   0.04     0.00   0.00   0.01     0.00  -0.00   0.01
  18   1     0.01   0.02   0.03    -0.00   0.00   0.00     0.00   0.01   0.00
  19   1     0.00   0.03   0.03     0.00   0.00   0.00     0.01  -0.00  -0.00
  20   1    -0.12   0.15   0.13     0.01  -0.18  -0.08     0.07  -0.61  -0.30
  21   1    -0.00   0.32   0.21     0.06  -0.44  -0.21    -0.04   0.33   0.15
  22   1     0.03   0.20   0.06    -0.06   0.48   0.21    -0.05   0.33   0.15
  23   1    -0.11   0.10   0.01    -0.05   0.43   0.18     0.03  -0.30  -0.12
  24   1    -0.03  -0.01  -0.00    -0.00  -0.00   0.01     0.00  -0.00  -0.01
  25   1     0.06  -0.03   0.13     0.01  -0.02   0.00    -0.01   0.01  -0.00
  26   1    -0.04  -0.01   0.00    -0.00   0.01  -0.01     0.00  -0.00   0.00
                     28                     29                     30
                        a                      a                      a 
 Frequencies --   919.4348               930.9408              1002.0962
 Red. masses --     3.8392                10.4967                 9.3800
 Frc consts  --     0.0000                 0.0000                 0.0000
 IR Inten    --     1.6145                40.1773                 9.0371
 Raman Activ --     0.0000                 0.0000                 0.0000
 Depolar     --     0.0000                 0.0000                 0.0000
 Atom AN      X      Y      Z        X      Y      Z        X      Y      Z
   1   6     0.01   0.00   0.00    -0.41  -0.13  -0.08     0.12   0.07   0.07
   2   7    -0.00   0.00   0.00     0.18  -0.10  -0.16    -0.10   0.05   0.08
   3   6    -0.00  -0.01  -0.01     0.15   0.20   0.21    -0.09  -0.06  -0.05
   4   6    -0.02   0.00   0.01     0.42  -0.05  -0.16    -0.10  -0.00   0.01
   5   8     0.00   0.00   0.00    -0.10   0.03   0.06    -0.01  -0.05  -0.08
   6   6    -0.00  -0.00  -0.00     0.16   0.09   0.03     0.14   0.03   0.02
   7   6     0.02  -0.20  -0.12    -0.01  -0.03  -0.04    -0.05  -0.16   0.35
   8   6    -0.02   0.14   0.06    -0.10   0.11  -0.26    -0.04   0.14  -0.30
   9   6     0.00   0.00   0.01     0.11   0.02   0.00     0.17   0.01   0.01
  10   6     0.04  -0.23  -0.10    -0.13  -0.14   0.26    -0.03  -0.13   0.29
  11   6    -0.04   0.30   0.14    -0.03  -0.04   0.04    -0.08   0.15  -0.36
  12   8    -0.00  -0.01   0.00    -0.05  -0.03   0.06     0.07  -0.07   0.17
  13   6    -0.00  -0.00  -0.01    -0.06   0.01  -0.04    -0.18   0.04  -0.14
  14   1     0.01   0.00  -0.00    -0.29  -0.03   0.03     0.17   0.02  -0.02
  15   1     0.00  -0.00  -0.00    -0.01   0.03   0.04    -0.04  -0.03  -0.03
  16   1     0.00  -0.00  -0.00    -0.03   0.02   0.05    -0.03  -0.03  -0.04
  17   1    -0.00   0.00  -0.00     0.04   0.11   0.13    -0.02  -0.08  -0.09
  18   1    -0.00  -0.00  -0.00     0.00   0.02   0.03     0.02   0.02   0.01
  19   1    -0.00  -0.00  -0.00    -0.00   0.04   0.04     0.02   0.00   0.00
  20   1    -0.03   0.34   0.16     0.01   0.06   0.03     0.12  -0.08   0.16
  21   1     0.02  -0.19  -0.09    -0.03   0.02  -0.07     0.14   0.09  -0.15
  22   1    -0.04   0.41   0.19    -0.08  -0.02   0.05     0.14  -0.05   0.17
  23   1     0.05  -0.55  -0.22     0.01   0.02   0.02     0.09   0.07  -0.16
  24   1     0.00   0.00   0.01     0.02   0.00   0.00     0.03   0.01  -0.01
  25   1    -0.00  -0.00  -0.00    -0.03   0.02  -0.06    -0.07   0.04  -0.12
  26   1    -0.01   0.01  -0.01     0.02   0.00   0.00     0.03   0.01  -0.01
                     31                     32                     33
                        a                      a                      a 
 Frequencies --  1042.2321              1043.2952              1085.5692
 Red. masses --     4.2374                11.4269                 3.1065
 Frc consts  --     0.0000                 0.0000                 0.0000
 IR Inten    --    18.8675                68.2386                 2.6305
 Raman Activ --     0.0000                 0.0000                 0.0000
 Depolar     --     0.0000                 0.0000                 0.0000
 Atom AN      X      Y      Z        X      Y      Z        X      Y      Z
   1   6     0.24  -0.11  -0.20     0.03  -0.04  -0.07     0.05  -0.25   0.15
   2   7    -0.12  -0.03  -0.03    -0.00  -0.02  -0.03    -0.01  -0.01  -0.02
   3   6    -0.25   0.11   0.23    -0.02   0.03   0.05    -0.02   0.25  -0.18
   4   6     0.00  -0.02  -0.01    -0.00   0.01   0.00    -0.03  -0.00   0.03
   5   8    -0.01  -0.03  -0.04     0.01   0.01   0.01     0.01   0.02   0.00
   6   6    -0.01   0.01   0.00    -0.04  -0.01  -0.01    -0.03  -0.01  -0.01
   7   6     0.01  -0.00   0.01    -0.05   0.00  -0.02    -0.00  -0.01   0.02
   8   6    -0.01   0.01  -0.03     0.03  -0.08   0.18     0.01   0.00   0.00
   9   6    -0.03  -0.00  -0.01     0.19   0.02   0.02    -0.01  -0.00   0.00
  10   6    -0.00  -0.02   0.03     0.03   0.09  -0.19     0.01   0.00  -0.00
  11   6     0.02   0.00   0.00    -0.10  -0.01  -0.01    -0.01   0.01  -0.01
  12   8    -0.07   0.03  -0.08     0.38  -0.16   0.44     0.00  -0.00   0.00
  13   6     0.07  -0.03   0.08    -0.35   0.14  -0.41    -0.00   0.00  -0.00
  14   1    -0.34  -0.02   0.06    -0.12  -0.01   0.02    -0.09   0.11  -0.09
  15   1     0.25   0.14   0.09     0.07   0.04   0.03    -0.38   0.06  -0.04
  16   1     0.20   0.10   0.12     0.05   0.03   0.04     0.43   0.16  -0.07
  17   1    -0.03  -0.31  -0.36     0.00  -0.03  -0.04     0.07  -0.06   0.18
  18   1     0.23   0.24   0.17     0.03   0.03   0.03     0.08   0.12   0.36
  19   1     0.22   0.11   0.11     0.03   0.02   0.02    -0.09  -0.39  -0.27
  20   1     0.02   0.00   0.02    -0.11   0.02  -0.05     0.02  -0.00   0.02
  21   1     0.02   0.01  -0.02    -0.10  -0.06   0.10     0.01   0.00  -0.01
  22   1     0.03  -0.01   0.03    -0.15   0.05  -0.15     0.02  -0.00   0.01
  23   1     0.03   0.01  -0.01    -0.14  -0.03   0.05     0.00   0.00  -0.01
  24   1    -0.00  -0.01   0.01     0.01   0.03  -0.04     0.00  -0.00  -0.00
  25   1     0.02  -0.01   0.03    -0.10   0.06  -0.15    -0.00  -0.00   0.00
  26   1    -0.00  -0.00   0.01     0.01   0.01  -0.04     0.00   0.00   0.00
                     34                     35                     36
                        a                      a                      a 
 Frequencies --  1093.8057              1112.7771              1120.8511
 Red. masses --     5.6569                 3.6963                 4.2886
 Frc consts  --     0.0000                 0.0000                 0.0000
 IR Inten    --   174.1540                 2.4655                 6.9229
 Raman Activ --     0.0000                 0.0000                 0.0000
 Depolar     --     0.0000                 0.0000                 0.0000
 Atom AN      X      Y      Z        X      Y      Z        X      Y      Z
   1   6     0.01  -0.11  -0.27    -0.00   0.00  -0.00    -0.02   0.25  -0.11
   2   7     0.05  -0.09  -0.04     0.00  -0.00   0.00    -0.01  -0.24   0.16
   3   6     0.23   0.05  -0.01     0.00   0.00  -0.00    -0.08   0.22  -0.14
   4   6    -0.30   0.07   0.16    -0.00   0.00   0.00     0.07  -0.04  -0.02
   5   8     0.08   0.06   0.07     0.00   0.00   0.00    -0.02  -0.01  -0.02
   6   6    -0.25  -0.08   0.02    -0.00   0.00   0.00     0.06  -0.00   0.07
   7   6    -0.01  -0.03   0.08    -0.00   0.00   0.00     0.04   0.03  -0.07
   8   6     0.06   0.01  -0.01     0.00  -0.00  -0.00    -0.06   0.02  -0.06
   9   6    -0.07  -0.02   0.02    -0.00   0.00  -0.00    -0.00  -0.02   0.05
  10   6     0.10   0.04  -0.04    -0.00  -0.00   0.00     0.02   0.02  -0.03
  11   6    -0.05   0.06  -0.14     0.00  -0.00  -0.00    -0.03  -0.00  -0.01
  12   8     0.03  -0.00   0.01    -0.02   0.20   0.09    -0.02  -0.03   0.05
  13   6    -0.01   0.01  -0.02     0.05  -0.38  -0.18     0.06   0.04  -0.06
  14   1    -0.35  -0.06   0.07    -0.00  -0.00   0.00     0.13  -0.10   0.08
  15   1     0.30   0.10   0.09     0.00  -0.00   0.00     0.32  -0.08   0.03
  16   1     0.06   0.05   0.13    -0.00  -0.00   0.00    -0.38  -0.15   0.06
  17   1     0.04   0.21   0.25     0.00   0.00   0.00     0.06  -0.12   0.09
  18   1    -0.13  -0.13  -0.09    -0.00   0.00   0.00     0.10   0.13   0.33
  19   1    -0.12  -0.05  -0.05    -0.00  -0.00  -0.00    -0.03  -0.32  -0.21
  20   1     0.16  -0.05   0.11    -0.00  -0.00  -0.00     0.09   0.01   0.02
  21   1     0.10   0.03  -0.04    -0.00   0.02   0.01    -0.14  -0.03   0.04
  22   1     0.27  -0.03   0.13     0.00  -0.01  -0.00     0.11  -0.01   0.05
  23   1     0.05   0.03  -0.08     0.00   0.01   0.00    -0.15  -0.04   0.07
  24   1    -0.00   0.00  -0.00     0.28  -0.02   0.53    -0.07   0.01  -0.02
  25   1     0.01  -0.01   0.02    -0.03   0.20   0.09     0.05  -0.04   0.09
  26   1    -0.00   0.00  -0.00    -0.32   0.33  -0.39    -0.07  -0.01  -0.03
                     37                     38                     39
                        a                      a                      a 
 Frequencies --  1124.1719              1149.4348              1182.2498
 Red. masses --     3.9832                 4.0379                 3.5426
 Frc consts  --     0.0000                 0.0000                 0.0000
 IR Inten    --     1.8590                 4.7387               143.6392
 Raman Activ --     0.0000                 0.0000                 0.0000
 Depolar     --     0.0000                 0.0000                 0.0000
 Atom AN      X      Y      Z        X      Y      Z        X      Y      Z
   1   6    -0.01  -0.08   0.09     0.01  -0.01  -0.01    -0.00  -0.01  -0.01
   2   7     0.01   0.10  -0.06    -0.01  -0.00   0.00     0.00   0.00  -0.00
   3   6    -0.01  -0.09   0.07     0.01   0.00  -0.01     0.01   0.00   0.01
   4   6     0.04   0.03  -0.05    -0.02  -0.00   0.02     0.01   0.01   0.00
   5   8    -0.02  -0.02  -0.01     0.01   0.01   0.00     0.00  -0.00   0.00
   6   6     0.02  -0.05   0.13    -0.01   0.02  -0.05    -0.06  -0.02   0.04
   7   6     0.10   0.07  -0.12     0.00  -0.03   0.07     0.03  -0.05   0.11
   8   6    -0.09   0.05  -0.14     0.04   0.01  -0.01    -0.05  -0.02   0.04
   9   6    -0.04  -0.06   0.12    -0.05  -0.01   0.00     0.27  -0.00   0.08
  10   6     0.06   0.05  -0.08    -0.08  -0.03   0.03     0.01   0.05  -0.10
  11   6    -0.10  -0.00  -0.05     0.08   0.02  -0.01     0.02   0.09  -0.19
  12   8    -0.03  -0.07   0.15    -0.12  -0.12   0.23    -0.18   0.02  -0.09
  13   6     0.13   0.09  -0.17     0.21   0.14  -0.25     0.03  -0.04   0.10
  14   1     0.01   0.05  -0.04    -0.02  -0.00   0.00    -0.01   0.00   0.00
  15   1    -0.18   0.01  -0.03     0.02   0.01   0.01     0.00   0.01   0.00
  16   1     0.13   0.05  -0.05     0.01   0.00   0.01     0.01   0.00   0.00
  17   1    -0.03   0.01  -0.09     0.00   0.01   0.02     0.00   0.01   0.01
  18   1    -0.01  -0.02  -0.12    -0.01  -0.01  -0.00    -0.01  -0.01  -0.02
  19   1     0.04   0.14   0.10    -0.01  -0.01  -0.01    -0.01   0.00   0.00
  20   1     0.27  -0.02   0.09    -0.01  -0.01   0.01     0.42  -0.08   0.26
  21   1    -0.26  -0.06   0.07     0.17   0.06  -0.08    -0.49  -0.17   0.24
  22   1     0.36  -0.04   0.18    -0.33   0.04  -0.17    -0.30   0.06  -0.21
  23   1    -0.34  -0.09   0.15     0.32   0.09  -0.15     0.17   0.07  -0.14
  24   1    -0.18   0.03  -0.05    -0.28   0.05  -0.09     0.01  -0.01   0.02
  25   1     0.13  -0.09   0.24     0.23  -0.17   0.43    -0.04   0.04  -0.11
  26   1    -0.17  -0.02  -0.08    -0.27  -0.01  -0.13     0.01  -0.01   0.02
                     40                     41                     42
                        a                      a                      a 
 Frequencies --  1209.3218              1248.6283              1257.5359
 Red. masses --     7.8253                10.9350                10.4727
 Frc consts  --     0.0000                 0.0000                 0.0000
 IR Inten    --    54.0680               388.5432               142.6949
 Raman Activ --     0.0000                 0.0000                 0.0000
 Depolar     --     0.0000                 0.0000                 0.0000
 Atom AN      X      Y      Z        X      Y      Z        X      Y      Z
   1   6     0.15  -0.05  -0.08     0.16   0.01  -0.01     0.24   0.10   0.10
   2   7    -0.23   0.00   0.05    -0.28  -0.07  -0.04    -0.46  -0.32  -0.34
   3   6     0.13   0.00  -0.02     0.10   0.04   0.04     0.14   0.16   0.21
   4   6    -0.27   0.05   0.11    -0.11   0.02   0.04     0.18  -0.00  -0.07
   5   8    -0.02  -0.06  -0.09    -0.03  -0.03  -0.04    -0.00   0.07   0.11
   6   6     0.42   0.03   0.02     0.38   0.05  -0.03    -0.15  -0.10   0.13
   7   6     0.00  -0.01   0.03     0.23   0.07  -0.07    -0.03  -0.02   0.03
   8   6    -0.00   0.06  -0.13    -0.27  -0.02  -0.03     0.12   0.02  -0.01
   9   6     0.29   0.01   0.07    -0.49  -0.01  -0.11     0.13   0.05  -0.06
  10   6     0.00  -0.04   0.10    -0.13  -0.06   0.10    -0.02   0.04  -0.09
  11   6     0.05   0.03  -0.07     0.10  -0.05   0.13    -0.08  -0.00  -0.01
  12   8    -0.24  -0.01  -0.04     0.32   0.02   0.03    -0.08  -0.02   0.02
  13   6     0.08  -0.01   0.04    -0.07   0.02  -0.05     0.03   0.00   0.00
  14   1    -0.09  -0.01   0.01     0.01   0.01   0.00     0.15   0.03  -0.01
  15   1     0.09   0.06   0.03     0.03   0.02   0.00    -0.04  -0.05  -0.03
  16   1     0.09   0.04   0.05     0.04   0.01   0.01     0.00  -0.02  -0.06
  17   1     0.01   0.11   0.11     0.01   0.08   0.07     0.02   0.10   0.08
  18   1    -0.08  -0.08  -0.05    -0.04  -0.04  -0.02    -0.01   0.01   0.01
  19   1    -0.09  -0.01  -0.02    -0.05   0.01   0.01    -0.01   0.06   0.05
  20   1    -0.30   0.04  -0.16     0.20  -0.01   0.04    -0.22   0.03  -0.10
  21   1    -0.11  -0.02   0.02    -0.19  -0.04   0.04    -0.11  -0.04   0.07
  22   1    -0.19   0.02  -0.09    -0.08  -0.01   0.01     0.19  -0.02   0.09
  23   1    -0.34  -0.10   0.17     0.18   0.03  -0.03     0.19   0.06  -0.11
  24   1    -0.05   0.00  -0.01     0.07  -0.00   0.03    -0.03   0.00  -0.01
  25   1     0.02  -0.01   0.02    -0.01   0.00  -0.01     0.00   0.00  -0.01
  26   1    -0.05  -0.01  -0.01     0.07  -0.01   0.03    -0.03  -0.01  -0.01
                     43                     44                     45
                        a                      a                      a 
 Frequencies --  1266.2474              1327.3291              1387.1707
 Red. masses --     5.2324                11.7882                 2.6945
 Frc consts  --     0.0000                 0.0000                 0.0000
 IR Inten    --     5.5636                49.2516                 2.5374
 Raman Activ --     0.0000                 0.0000                 0.0000
 Depolar     --     0.0000                 0.0000                 0.0000
 Atom AN      X      Y      Z        X      Y      Z        X      Y      Z
   1   6     0.12   0.06   0.05    -0.00  -0.01  -0.00    -0.01   0.00   0.01
   2   7    -0.24  -0.17  -0.19     0.01   0.02   0.03     0.02  -0.01  -0.02
   3   6     0.07   0.09   0.11    -0.01  -0.02  -0.02    -0.00   0.01   0.01
   4   6     0.10  -0.02  -0.02    -0.01   0.02  -0.02    -0.01   0.00  -0.00
   5   8     0.01   0.05   0.07    -0.02  -0.02  -0.02     0.00   0.01   0.01
   6   6    -0.10   0.06  -0.20     0.08  -0.17   0.44    -0.04  -0.02   0.04
   7   6    -0.13   0.02  -0.08    -0.27   0.08  -0.23     0.06  -0.01   0.03
   8   6    -0.06  -0.04   0.07     0.23   0.11  -0.19    -0.02   0.01  -0.03
   9   6    -0.01  -0.10   0.22    -0.12  -0.20   0.41     0.05  -0.01   0.03
  10   6     0.11  -0.00   0.04    -0.32   0.04  -0.19     0.09   0.01   0.01
  11   6     0.08   0.04  -0.06     0.31   0.10  -0.14    -0.06   0.01  -0.04
  12   8     0.02   0.03  -0.06     0.11   0.03  -0.03    -0.11   0.03  -0.09
  13   6    -0.04  -0.02   0.02    -0.06  -0.01   0.01    -0.21   0.08  -0.22
  14   1     0.08   0.01  -0.00    -0.01   0.00  -0.00     0.00   0.00  -0.00
  15   1    -0.02  -0.03  -0.02    -0.00   0.01   0.00    -0.00  -0.01  -0.00
  16   1    -0.01  -0.02  -0.03     0.01   0.00   0.01    -0.00  -0.00  -0.01
  17   1     0.01   0.04   0.04    -0.00   0.00   0.00     0.00  -0.01  -0.02
  18   1    -0.01   0.00  -0.00     0.02   0.01   0.00    -0.00  -0.00  -0.01
  19   1     0.00   0.03   0.03     0.01   0.01   0.00     0.00  -0.01  -0.00
  20   1     0.37  -0.06   0.20    -0.02   0.01  -0.04    -0.06   0.01  -0.03
  21   1     0.39   0.12  -0.17     0.04   0.02  -0.04    -0.05  -0.01   0.01
  22   1    -0.25   0.04  -0.15    -0.05   0.01  -0.02    -0.03   0.01  -0.03
  23   1    -0.35  -0.11   0.17     0.09   0.03  -0.04    -0.01   0.01  -0.02
  24   1     0.04  -0.01  -0.01     0.05  -0.01   0.02     0.38   0.03   0.36
  25   1    -0.00  -0.01   0.02    -0.02   0.01  -0.02     0.16  -0.20   0.48
  26   1     0.04   0.02   0.01     0.05  -0.00   0.02     0.41  -0.21   0.25
                     46                     47                     48
                        a                      a                      a 
 Frequencies --  1390.7058              1397.2046              1405.3206
 Red. masses --     2.5794                 5.3365                 9.9045
 Frc consts  --     0.0000                 0.0000                 0.0000
 IR Inten    --    11.2698                56.9474                 6.6108
 Raman Activ --     0.0000                 0.0000                 0.0000
 Depolar     --     0.0000                 0.0000                 0.0000
 Atom AN      X      Y      Z        X      Y      Z        X      Y      Z
   1   6     0.33   0.09   0.02     0.18  -0.02  -0.08     0.01   0.00   0.01
   2   7     0.06   0.04   0.03    -0.20   0.13   0.22     0.04  -0.01  -0.02
   3   6     0.05   0.07   0.06    -0.05  -0.25  -0.30    -0.02  -0.02  -0.01
   4   6    -0.03  -0.02  -0.03     0.22  -0.02  -0.07    -0.02   0.03  -0.03
   5   8     0.02   0.03   0.04    -0.04  -0.05  -0.07    -0.01  -0.01  -0.00
   6   6     0.00   0.00  -0.01    -0.04   0.01  -0.03    -0.00  -0.13   0.31
   7   6    -0.01  -0.00   0.01    -0.04  -0.00  -0.01     0.37   0.08  -0.08
   8   6     0.02   0.00  -0.00     0.01  -0.02   0.04    -0.42  -0.02  -0.06
   9   6    -0.01   0.00  -0.01     0.05   0.02  -0.02     0.02  -0.13   0.28
  10   6    -0.02  -0.00   0.00    -0.02   0.01  -0.02     0.36   0.07  -0.06
  11   6     0.02   0.00   0.00    -0.02  -0.01   0.03    -0.34   0.00  -0.11
  12   8     0.00  -0.00   0.00    -0.02  -0.00   0.00     0.02   0.03  -0.06
  13   6     0.00   0.00   0.00    -0.01   0.00  -0.01    -0.01  -0.03   0.06
  14   1    -0.55  -0.00   0.17    -0.18  -0.03   0.06    -0.04   0.00   0.01
  15   1    -0.42  -0.14  -0.21    -0.14   0.07  -0.03    -0.03  -0.02  -0.02
  16   1    -0.37  -0.24  -0.06    -0.10  -0.05   0.12    -0.02  -0.02  -0.02
  17   1     0.02  -0.11  -0.15    -0.03   0.30   0.39    -0.01   0.04   0.01
  18   1    -0.11  -0.09  -0.10     0.21   0.14   0.30     0.05   0.04   0.02
  19   1    -0.09  -0.12  -0.07     0.08   0.33   0.15     0.01   0.02   0.01
  20   1    -0.00  -0.00   0.00     0.04  -0.01   0.03    -0.11   0.06  -0.15
  21   1    -0.01  -0.00   0.01     0.03   0.00   0.00     0.15   0.09  -0.14
  22   1     0.00  -0.00   0.00     0.03  -0.00   0.02    -0.10   0.05  -0.14
  23   1    -0.01  -0.00   0.01     0.01   0.00  -0.00     0.11   0.07  -0.14
  24   1    -0.00   0.00   0.00     0.02   0.00   0.02    -0.00  -0.02  -0.11
  25   1    -0.00   0.00  -0.00     0.01  -0.01   0.03    -0.03   0.02  -0.05
  26   1    -0.00  -0.00  -0.00     0.02  -0.01   0.01    -0.01   0.09  -0.05
                     49                     50                     51
                        a                      a                      a 
 Frequencies --  1425.1578              1455.1620              1457.8058
 Red. masses --     7.2810                 1.6043                 1.5444
 Frc consts  --     0.0000                 0.0000                 0.0000
 IR Inten    --   205.5361                 5.8518                 7.8348
 Raman Activ --     0.0000                 0.0000                 0.0000
 Depolar     --     0.0000                 0.0000                 0.0000
 Atom AN      X      Y      Z        X      Y      Z        X      Y      Z
   1   6    -0.05   0.09   0.12     0.05  -0.12   0.07    -0.00   0.01  -0.00
   2   7     0.28  -0.20  -0.32    -0.03   0.01   0.01     0.00   0.00  -0.00
   3   6    -0.18  -0.04  -0.00    -0.06   0.12  -0.10     0.00  -0.00   0.00
   4   6    -0.39  -0.02   0.05     0.02   0.01   0.01    -0.00  -0.00   0.00
   5   8     0.08   0.11   0.14    -0.01  -0.01  -0.01    -0.00  -0.00  -0.00
   6   6     0.04   0.00  -0.01     0.02   0.00   0.01     0.00   0.00  -0.00
   7   6     0.03  -0.02   0.06     0.00   0.00  -0.01    -0.00   0.00   0.00
   8   6     0.06   0.03  -0.05    -0.02  -0.01   0.01     0.00   0.00   0.00
   9   6    -0.10   0.00  -0.03     0.02  -0.00   0.01     0.00  -0.00  -0.00
  10   6     0.02  -0.03   0.08    -0.01   0.01  -0.02    -0.00   0.00  -0.00
  11   6     0.08   0.03  -0.06    -0.02  -0.01   0.01     0.00   0.00   0.00
  12   8     0.02  -0.00   0.00    -0.00  -0.00  -0.00     0.00  -0.03  -0.01
  13   6     0.02   0.00  -0.00    -0.01  -0.01   0.00     0.02  -0.20  -0.09
  14   1    -0.08   0.01   0.04    -0.07   0.34  -0.29     0.00  -0.02   0.02
  15   1     0.00  -0.25  -0.09     0.08   0.26   0.14    -0.00  -0.03  -0.01
  16   1    -0.01  -0.06  -0.25    -0.18  -0.15  -0.14     0.02   0.01   0.00
  17   1    -0.01   0.10   0.26     0.19  -0.41   0.33    -0.00   0.01  -0.01
  18   1     0.24   0.20   0.05    -0.28  -0.20  -0.03     0.00   0.00   0.01
  19   1     0.33   0.13   0.09     0.36   0.10   0.06    -0.01   0.00  -0.00
  20   1    -0.05   0.00  -0.02     0.00   0.01   0.00     0.00   0.00   0.00
  21   1    -0.09  -0.03   0.03     0.01   0.00  -0.01     0.00  -0.02  -0.01
  22   1    -0.07   0.00  -0.02     0.01  -0.00   0.00     0.00   0.00   0.00
  23   1    -0.07  -0.02   0.03     0.02   0.00  -0.01     0.00  -0.00   0.00
  24   1    -0.03   0.01   0.02    -0.00  -0.00  -0.03    -0.46   0.03  -0.00
  25   1    -0.01   0.01  -0.02    -0.00   0.02   0.03    -0.08   0.64   0.31
  26   1    -0.02  -0.03   0.01     0.03   0.03  -0.01     0.45   0.15   0.05
                     52                     53                     54
                        a                      a                      a 
 Frequencies --  1459.7591              1467.2456              1467.4826
 Red. masses --     1.7825                 1.6106                 2.1619
 Frc consts  --     0.0000                 0.0000                 0.0000
 IR Inten    --    14.8563                 7.9082                30.3161
 Raman Activ --     0.0000                 0.0000                 0.0000
 Depolar     --     0.0000                 0.0000                 0.0000
 Atom AN      X      Y      Z        X      Y      Z        X      Y      Z
   1   6    -0.07   0.13   0.02    -0.01  -0.04   0.16    -0.00   0.00   0.03
   2   7    -0.05   0.06   0.04    -0.00   0.01   0.06     0.00  -0.01   0.00
   3   6     0.07   0.05  -0.13     0.10  -0.09  -0.02    -0.02  -0.02   0.03
   4   6     0.05   0.02   0.01     0.03   0.01   0.01    -0.04   0.01   0.03
   5   8    -0.02  -0.03  -0.04    -0.01  -0.02  -0.02    -0.00  -0.01  -0.01
   6   6     0.02   0.00   0.00     0.00   0.00  -0.01     0.10   0.03  -0.04
   7   6    -0.01   0.01  -0.02    -0.01   0.00  -0.01    -0.07   0.00  -0.03
   8   6    -0.03  -0.01   0.01    -0.00  -0.01   0.01     0.00  -0.02   0.04
   9   6     0.04  -0.00   0.02     0.01   0.00   0.00     0.11   0.03  -0.03
  10   6    -0.02   0.01  -0.03    -0.01   0.00  -0.01    -0.10   0.01  -0.05
  11   6    -0.02  -0.01   0.02    -0.01  -0.00   0.01    -0.01  -0.03   0.06
  12   8    -0.01  -0.00   0.00    -0.00   0.00  -0.00    -0.06  -0.03   0.05
  13   6    -0.02   0.00   0.01     0.02   0.01  -0.01    -0.16  -0.06   0.11
  14   1    -0.09  -0.23   0.25    -0.21   0.36  -0.26    -0.04   0.04  -0.02
  15   1     0.15  -0.46  -0.15     0.31  -0.06   0.09     0.04  -0.03   0.00
  16   1     0.29   0.13  -0.20    -0.03  -0.14  -0.51     0.00  -0.02  -0.08
  17   1     0.12  -0.31   0.07    -0.09   0.19  -0.24    -0.03   0.09  -0.01
  18   1    -0.29  -0.22   0.27     0.08   0.04   0.23     0.08   0.06  -0.07
  19   1    -0.06   0.26   0.12    -0.37   0.08   0.02     0.02  -0.07  -0.03
  20   1     0.02  -0.00   0.01     0.02  -0.01   0.00     0.05  -0.01   0.03
  21   1     0.02   0.01  -0.01     0.02   0.00  -0.00    -0.02  -0.01   0.03
  22   1     0.02  -0.00   0.01     0.01  -0.00   0.00     0.07  -0.01   0.04
  23   1     0.03   0.01  -0.01     0.00   0.00  -0.00     0.05   0.01  -0.00
  24   1     0.04  -0.01  -0.04    -0.04   0.01   0.06     0.32  -0.10  -0.52
  25   1     0.01  -0.03   0.01    -0.01   0.02  -0.02     0.08  -0.13   0.25
  26   1     0.01   0.04  -0.02    -0.02  -0.06   0.03     0.21   0.51  -0.23
                     55                     56                     57
                        a                      a                      a 
 Frequencies --  1475.1544              1491.7109              1568.1868
 Red. masses --     6.4987                 6.4657                11.6927
 Frc consts  --     0.0000                 0.0000                 0.0000
 IR Inten    --    79.7338                29.1518                33.7849
 Raman Activ --     0.0000                 0.0000                 0.0000
 Depolar     --     0.0000                 0.0000                 0.0000
 Atom AN      X      Y      Z        X      Y      Z        X      Y      Z
   1   6    -0.00   0.03   0.03     0.01   0.03   0.03     0.00   0.00  -0.00
   2   7    -0.06   0.03   0.06    -0.21   0.14   0.23    -0.03   0.01   0.02
   3   6    -0.07  -0.00   0.05    -0.05  -0.02   0.02    -0.00  -0.00  -0.00
   4   6    -0.01   0.04   0.06     0.31   0.03  -0.01    -0.00  -0.05  -0.03
   5   8    -0.03  -0.05  -0.07    -0.06  -0.08  -0.11     0.02   0.03   0.03
   6   6     0.29   0.05  -0.03    -0.26  -0.05   0.03    -0.01   0.19  -0.45
   7   6    -0.14   0.06  -0.16     0.09  -0.04   0.09     0.15  -0.11   0.27
   8   6    -0.17  -0.09   0.16     0.10   0.05  -0.08     0.17   0.16  -0.29
   9   6     0.32   0.02   0.04    -0.21  -0.01  -0.04    -0.07  -0.23   0.48
  10   6    -0.18   0.07  -0.20     0.13  -0.04   0.13    -0.07   0.10  -0.24
  11   6    -0.16  -0.10   0.19     0.09   0.07  -0.13    -0.18  -0.13   0.25
  12   8    -0.08  -0.00  -0.02     0.06   0.00   0.01     0.04   0.02  -0.04
  13   6     0.03   0.02  -0.04     0.01  -0.00   0.01    -0.02  -0.01   0.01
  14   1    -0.08  -0.01   0.04    -0.14   0.01   0.04    -0.00   0.00  -0.00
  15   1     0.09  -0.15  -0.04     0.19  -0.20  -0.03     0.02  -0.00   0.00
  16   1     0.08   0.02  -0.14     0.15   0.04  -0.23     0.00   0.00  -0.01
  17   1    -0.01   0.08   0.11    -0.00   0.08   0.14    -0.00   0.01   0.01
  18   1     0.10   0.08  -0.29     0.07   0.05  -0.38     0.00   0.00  -0.02
  19   1     0.22  -0.20  -0.08     0.23  -0.27  -0.12     0.01  -0.01  -0.01
  20   1     0.17  -0.01   0.07    -0.11   0.02  -0.04    -0.10  -0.01  -0.00
  21   1     0.20   0.06  -0.07    -0.10  -0.03   0.03    -0.11  -0.01  -0.01
  22   1     0.17  -0.01   0.07    -0.10   0.01  -0.04     0.05   0.02  -0.02
  23   1     0.18   0.05  -0.06    -0.11  -0.03   0.03     0.08   0.01  -0.00
  24   1    -0.07   0.03   0.17    -0.00  -0.00  -0.02     0.00  -0.00   0.00
  25   1    -0.02   0.02  -0.05    -0.00   0.00  -0.01    -0.01   0.01  -0.02
  26   1    -0.04  -0.16   0.08    -0.01   0.02  -0.01     0.00  -0.00   0.00
                     58                     59                     60
                        a                      a                      a 
 Frequencies --  1595.7710              1608.7217              2950.3367
 Red. masses --    11.5249                12.9710                 1.9595
 Frc consts  --     0.0000                 0.0000                 0.0000
 IR Inten    --   191.4757               934.2605                41.2543
 Raman Activ --     0.0000                 0.0000                 0.0000
 Depolar     --     0.0000                 0.0000                 0.0000
 Atom AN      X      Y      Z        X      Y      Z        X      Y      Z
   1   6    -0.00   0.00   0.00    -0.00   0.02   0.02     0.00  -0.00  -0.00
   2   7     0.01  -0.00  -0.01     0.13  -0.13  -0.21     0.00   0.00   0.00
   3   6    -0.00  -0.00   0.00    -0.01   0.01   0.02     0.00  -0.00   0.00
   4   6     0.01  -0.01  -0.01     0.18   0.44   0.63     0.00  -0.00  -0.00
   5   8     0.02   0.02   0.02    -0.19  -0.28  -0.39    -0.00   0.00   0.00
   6   6    -0.26  -0.01  -0.06    -0.07  -0.00  -0.06     0.00   0.00   0.00
   7   6     0.43  -0.03   0.16     0.01  -0.01   0.03    -0.00   0.00   0.00
   8   6    -0.39  -0.08   0.06     0.02   0.02  -0.02     0.00  -0.00  -0.00
   9   6     0.22   0.01   0.04    -0.02  -0.02   0.03     0.00  -0.00  -0.00
  10   6    -0.46   0.00  -0.14    -0.01   0.01  -0.02    -0.00   0.00   0.00
  11   6     0.45   0.10  -0.08     0.01  -0.00   0.02     0.00   0.00  -0.00
  12   8    -0.00  -0.00   0.00     0.01   0.00  -0.00    -0.00   0.01   0.00
  13   6    -0.01   0.00  -0.01    -0.00   0.00  -0.00    -0.03   0.27   0.11
  14   1    -0.00   0.00  -0.00     0.01  -0.00   0.01     0.00  -0.00  -0.00
  15   1     0.00   0.00   0.00    -0.09   0.01  -0.03     0.00  -0.00   0.00
  16   1    -0.00  -0.00  -0.00    -0.07  -0.04   0.03    -0.00   0.00  -0.00
  17   1    -0.00   0.01   0.01    -0.00  -0.00  -0.02    -0.00  -0.00   0.00
  18   1     0.01   0.00   0.00     0.03   0.02   0.05    -0.00   0.00   0.00
  19   1     0.00   0.00   0.00    -0.00   0.05   0.02     0.00   0.00  -0.00
  20   1    -0.09   0.02  -0.06    -0.02  -0.00  -0.00     0.00  -0.00  -0.00
  21   1     0.06   0.03  -0.06    -0.01  -0.00   0.00    -0.00  -0.00  -0.00
  22   1     0.07  -0.03   0.08     0.01  -0.00   0.00     0.00   0.00  -0.00
  23   1    -0.07  -0.04   0.07     0.01  -0.00   0.00     0.00  -0.00   0.00
  24   1     0.00   0.00   0.01    -0.00   0.00   0.00    -0.07  -0.70   0.12
  25   1    -0.00  -0.00   0.00    -0.00   0.00  -0.00    -0.01   0.04   0.02
  26   1     0.00  -0.01   0.00    -0.00  -0.00   0.00     0.19  -0.29  -0.54
                     61                     62                     63
                        a                      a                      a 
 Frequencies --  2960.9461              2970.0749              2979.3981
 Red. masses --     1.4396                 1.8764                 1.9176
 Frc consts  --     0.0000                 0.0000                 0.0000
 IR Inten    --    41.2140                34.6607                30.5487
 Raman Activ --     0.0000                 0.0000                 0.0000
 Depolar     --     0.0000                 0.0000                 0.0000
 Atom AN      X      Y      Z        X      Y      Z        X      Y      Z
   1   6     0.00  -0.00  -0.00    -0.01   0.04  -0.02    -0.07   0.24  -0.14
   2   7     0.00  -0.00  -0.00    -0.00  -0.00  -0.01    -0.01   0.00   0.00
   3   6    -0.00   0.00  -0.00    -0.04   0.18  -0.20     0.00  -0.02   0.03
   4   6    -0.00  -0.00  -0.00    -0.00   0.00   0.00     0.00   0.00  -0.00
   5   8     0.00   0.00   0.00    -0.00  -0.00  -0.00     0.00   0.00   0.00
   6   6     0.00   0.00  -0.00    -0.00  -0.00   0.00     0.00  -0.00   0.00
   7   6    -0.00   0.00  -0.00    -0.00  -0.00   0.00     0.00   0.00  -0.00
   8   6    -0.00   0.00  -0.00     0.00  -0.00   0.00    -0.00   0.00  -0.00
   9   6    -0.00  -0.00   0.00    -0.00  -0.00   0.00     0.00   0.00   0.00
  10   6     0.00   0.00  -0.00    -0.00  -0.00   0.00    -0.00  -0.00   0.00
  11   6    -0.00  -0.00   0.00     0.00  -0.00   0.00     0.00  -0.00   0.00
  12   8     0.01  -0.01   0.02    -0.00   0.00  -0.00    -0.00  -0.00   0.00
  13   6    -0.08  -0.07   0.17     0.00   0.00  -0.00    -0.00  -0.00   0.00
  14   1    -0.00  -0.00  -0.00    -0.00  -0.00  -0.01    -0.01   0.02  -0.04
  15   1    -0.00  -0.00   0.00    -0.02  -0.01   0.04    -0.14  -0.13   0.39
  16   1    -0.00   0.00  -0.00     0.07  -0.11   0.02     0.42  -0.71   0.14
  17   1     0.00   0.00  -0.00    -0.02   0.02  -0.03    -0.00  -0.00   0.00
  18   1     0.00  -0.00  -0.00     0.22  -0.26  -0.03    -0.02   0.02   0.00
  19   1    -0.00  -0.00   0.01    -0.06  -0.39   0.79     0.01   0.06  -0.12
  20   1    -0.00  -0.00   0.00     0.00   0.00  -0.01    -0.00  -0.00   0.00
  21   1     0.01  -0.00   0.01    -0.00   0.00  -0.00     0.00  -0.00   0.00
  22   1    -0.00  -0.00   0.00    -0.00   0.00  -0.00     0.00   0.00  -0.00
  23   1    -0.00   0.00  -0.00    -0.00   0.00  -0.00    -0.00   0.00  -0.00
  24   1     0.04   0.65  -0.06    -0.00  -0.00   0.00     0.00   0.00  -0.00
  25   1     0.00  -0.00   0.01     0.00   0.00  -0.00     0.00   0.00  -0.00
  26   1     0.19  -0.38  -0.59    -0.00   0.00   0.00     0.00  -0.00  -0.00
                     64                     65                     66
                        a                      a                      a 
 Frequencies --  2994.6110              2997.8354              3037.2474
 Red. masses --     1.5408                 1.4801                 1.7073
 Frc consts  --     0.0000                 0.0000                 0.0000
 IR Inten    --    12.9146                79.4285                12.3284
 Raman Activ --     0.0000                 0.0000                 0.0000
 Depolar     --     0.0000                 0.0000                 0.0000
 Atom AN      X      Y      Z        X      Y      Z        X      Y      Z
   1   6    -0.07   0.02   0.11    -0.09   0.00   0.13     0.00   0.00   0.00
   2   7    -0.01  -0.01  -0.01    -0.02   0.01   0.01     0.00   0.00   0.00
   3   6     0.12  -0.11  -0.06    -0.09   0.09   0.05    -0.00   0.00   0.00
   4   6    -0.00  -0.00   0.00     0.00  -0.00  -0.01    -0.00  -0.00  -0.00
   5   8     0.00  -0.00  -0.00     0.00   0.00   0.00     0.00   0.00   0.00
   6   6    -0.00   0.00  -0.00    -0.00  -0.00  -0.00    -0.00  -0.00   0.00
   7   6     0.00   0.00  -0.00     0.00  -0.00   0.00    -0.00  -0.00   0.00
   8   6    -0.00   0.00  -0.00    -0.00   0.00  -0.00     0.00  -0.00   0.00
   9   6    -0.00  -0.00  -0.00     0.00   0.00  -0.00    -0.00   0.00  -0.00
  10   6     0.00   0.00  -0.00    -0.00  -0.00   0.00    -0.00  -0.00   0.00
  11   6     0.00   0.00  -0.00     0.00  -0.00   0.00     0.00  -0.00   0.00
  12   8    -0.00   0.00  -0.00    -0.00  -0.00   0.00     0.01  -0.00   0.00
  13   6     0.00   0.00   0.00    -0.00  -0.00   0.00     0.24   0.06  -0.06
  14   1    -0.01  -0.01   0.00    -0.00   0.03   0.05    -0.00  -0.00  -0.00
  15   1     0.15   0.21  -0.47     0.19   0.26  -0.59     0.00   0.00  -0.00
  16   1     0.14  -0.26   0.07     0.16  -0.30   0.09     0.00  -0.00   0.00
  17   1    -0.00  -0.02  -0.00    -0.03   0.00   0.01     0.00   0.00  -0.00
  18   1    -0.43   0.56  -0.01     0.34  -0.45   0.01     0.00  -0.00   0.00
  19   1     0.00  -0.14   0.24    -0.00   0.12  -0.21    -0.00  -0.00   0.00
  20   1    -0.00  -0.00   0.00     0.00   0.00  -0.00    -0.00  -0.00   0.00
  21   1     0.00  -0.00   0.00     0.00  -0.00   0.00    -0.00   0.00  -0.00
  22   1    -0.00  -0.00   0.00     0.00   0.00  -0.00     0.00   0.00  -0.00
  23   1     0.00  -0.00   0.00    -0.00   0.00  -0.00    -0.00   0.00  -0.00
  24   1    -0.00   0.00   0.00     0.00   0.00  -0.00     0.03   0.02  -0.02
  25   1    -0.00  -0.00   0.00     0.00   0.00  -0.00    -0.91  -0.23   0.24
  26   1     0.00  -0.00  -0.00     0.00  -0.00  -0.00     0.03   0.01  -0.02
                     67                     68                     69
                        a                      a                      a 
 Frequencies --  3041.5010              3058.3939              3087.5637
 Red. masses --     1.7230                 1.7084                 1.8060
 Frc consts  --     0.0000                 0.0000                 0.0000
 IR Inten    --    13.3140                15.5797                50.8252
 Raman Activ --     0.0000                 0.0000                 0.0000
 Depolar     --     0.0000                 0.0000                 0.0000
 Atom AN      X      Y      Z        X      Y      Z        X      Y      Z
   1   6     0.05   0.16   0.19     0.00   0.00  -0.00     0.00  -0.00   0.00
   2   7     0.01   0.01   0.01     0.01   0.00   0.00     0.00   0.00  -0.00
   3   6    -0.01   0.00   0.00     0.24   0.07  -0.04     0.00  -0.00   0.00
   4   6     0.00  -0.00  -0.00     0.00   0.00   0.00     0.00   0.00   0.00
   5   8    -0.00   0.00   0.00    -0.00  -0.00  -0.00    -0.00  -0.00  -0.00
   6   6     0.00   0.00   0.00    -0.00  -0.00  -0.00     0.00  -0.00   0.00
   7   6    -0.00  -0.00   0.00     0.01   0.00  -0.01    -0.05  -0.04   0.07
   8   6     0.00  -0.00   0.00     0.00  -0.00   0.00    -0.01   0.01  -0.01
   9   6    -0.00  -0.00   0.00     0.00   0.00  -0.00     0.00   0.00  -0.00
  10   6     0.00   0.00  -0.00     0.00   0.00  -0.00     0.03   0.02  -0.04
  11   6    -0.00   0.00  -0.00     0.00  -0.00   0.00     0.12  -0.07   0.20
  12   8     0.00   0.00  -0.00    -0.00   0.00   0.00     0.00  -0.00   0.00
  13   6    -0.00  -0.00   0.00     0.00  -0.00  -0.00     0.00   0.00  -0.00
  14   1    -0.18  -0.64  -0.70    -0.00  -0.01  -0.01    -0.00  -0.00  -0.00
  15   1     0.01   0.03  -0.00    -0.01  -0.01   0.02    -0.00  -0.00   0.00
  16   1    -0.00   0.03   0.02    -0.01   0.01  -0.00    -0.00   0.00  -0.00
  17   1     0.02   0.01  -0.00    -0.91  -0.28   0.17    -0.01  -0.00   0.00
  18   1     0.02  -0.03   0.00     0.03   0.01  -0.01    -0.00   0.00  -0.00
  19   1    -0.00   0.01  -0.02     0.03   0.01  -0.02     0.00   0.00  -0.00
  20   1     0.00   0.00  -0.00    -0.02  -0.01   0.02     0.17   0.15  -0.27
  21   1    -0.00   0.00  -0.00    -0.00   0.00  -0.00     0.04  -0.02   0.06
  22   1    -0.00  -0.00   0.00     0.00   0.00   0.00    -0.12  -0.10   0.18
  23   1     0.00  -0.00   0.00    -0.00   0.00  -0.00    -0.43   0.25  -0.70
  24   1    -0.00  -0.00   0.00     0.00   0.00  -0.00    -0.00  -0.00   0.00
  25   1     0.00   0.00  -0.00    -0.00  -0.00   0.00     0.00  -0.00   0.00
  26   1    -0.00   0.00   0.00     0.00  -0.00  -0.00    -0.00   0.00   0.00
                     70                     71                     72
                        a                      a                      a 
 Frequencies --  3090.8798              3109.1614              3114.7262
 Red. masses --     1.8048                 1.8595                 1.8530
 Frc consts  --     0.0000                 0.0000                 0.0000
 IR Inten    --    27.6228                69.3553                32.8072
 Raman Activ --     0.0000                 0.0000                 0.0000
 Depolar     --     0.0000                 0.0000                 0.0000
 Atom AN      X      Y      Z        X      Y      Z        X      Y      Z
   1   6    -0.00  -0.00  -0.00    -0.00   0.00  -0.00     0.00   0.00   0.00
   2   7     0.00   0.00  -0.00     0.00  -0.00  -0.00    -0.00  -0.00   0.00
   3   6     0.01   0.00  -0.00     0.00   0.00  -0.00    -0.00  -0.00  -0.00
   4   6    -0.00  -0.00   0.00    -0.00  -0.00  -0.00     0.00   0.00  -0.00
   5   8     0.00   0.00   0.00     0.00   0.00   0.00    -0.00  -0.00  -0.00
   6   6    -0.01  -0.00   0.00    -0.00  -0.00   0.00     0.00  -0.00   0.00
   7   6    -0.12  -0.10   0.19     0.00   0.00  -0.00     0.03   0.03  -0.06
   8   6    -0.03   0.02  -0.04    -0.02   0.01  -0.03    -0.13   0.09  -0.21
   9   6    -0.00   0.00  -0.00     0.01   0.00  -0.00    -0.01  -0.00  -0.00
  10   6    -0.01  -0.01   0.02     0.13   0.11  -0.20    -0.02  -0.02   0.03
  11   6    -0.05   0.03  -0.08    -0.04   0.02  -0.06     0.01  -0.00   0.01
  12   8    -0.00  -0.00   0.00    -0.00   0.00  -0.00     0.00   0.00  -0.00
  13   6     0.00   0.00  -0.00     0.00   0.00  -0.00     0.00   0.00  -0.00
  14   1     0.00   0.00   0.00     0.00   0.00   0.00     0.00  -0.00  -0.00
  15   1    -0.00   0.00  -0.00     0.00   0.00  -0.00    -0.00  -0.00   0.00
  16   1     0.00  -0.00   0.00     0.00  -0.00   0.00    -0.00   0.00  -0.00
  17   1    -0.03  -0.01   0.01    -0.00   0.00   0.00     0.00   0.00  -0.00
  18   1    -0.00   0.00  -0.00     0.00  -0.00   0.00     0.00  -0.00  -0.00
  19   1     0.00   0.00  -0.00    -0.00   0.00  -0.00    -0.00  -0.00   0.00
  20   1     0.42   0.37  -0.66    -0.01  -0.01   0.01    -0.11  -0.10   0.17
  21   1     0.11  -0.07   0.18     0.08  -0.05   0.12     0.45  -0.30   0.75
  22   1     0.06   0.05  -0.09    -0.46  -0.37   0.70     0.07   0.06  -0.11
  23   1     0.17  -0.10   0.28     0.13  -0.07   0.20    -0.03   0.01  -0.04
  24   1    -0.00  -0.00   0.00     0.00  -0.00   0.00    -0.00  -0.01   0.00
  25   1    -0.00  -0.00   0.00    -0.00  -0.00   0.00    -0.01  -0.00   0.00
  26   1    -0.00   0.00   0.00    -0.00   0.00   0.00    -0.00   0.00   0.01
