      -----------------------------------------------------------      
     |                   =====================                   |     
     |                           x T B                           |     
     |                   =====================                   |     
     |                         S. Grimme                         |     
     |          Mulliken Center for Theoretical Chemistry        |     
     |                    University of Bonn                     |     
      -----------------------------------------------------------      

   * xtb version 6.7.1 (edcfbbe) compiled by 'albert@albert-system' on 2024-07-22

   xtb is free software: you can redistribute it and/or modify it under
   the terms of the GNU Lesser General Public License as published by
   the Free Software Foundation, either version 3 of the License, or
   (at your option) any later version.
   
   xtb is distributed in the hope that it will be useful,
   but WITHOUT ANY WARRANTY; without even the implied warranty of
   MERCHANTABILITY or FITNESS FOR A PARTICULAR PURPOSE.  See the
   GNU Lesser General Public License for more details.
   
   Cite this work as:
   * C. Bannwarth, E. Caldeweyher, S. Ehlert, A. Hansen, P. Pracht,
     J. Seibert, S. Spicher, S. Grimme, WIREs Comput. Mol. Sci., 2020, 11,
     e01493. DOI: 10.1002/wcms.1493
   
   for GFN2-xTB:
   * C. Bannwarth, S. Ehlert and S. Grimme., J. Chem. Theory Comput., 2019,
     15, 1652-1671. DOI: 10.1021/acs.jctc.8b01176
   for GFN1-xTB:
   * S. Grimme, C. Bannwarth, P. Shushkov, J. Chem. Theory Comput., 2017,
     13, 1989-2009. DOI: 10.1021/acs.jctc.7b00118
   for GFN0-xTB:
   * P. Pracht, E. Caldeweyher, S. Ehlert, S. Grimme, ChemRxiv, 2019, preprint.
     DOI: 10.26434/chemrxiv.8326202.v1
   for GFN-FF:
   * S. Spicher and S. Grimme, Angew. Chem. Int. Ed., 2020, 59, 15665-15673.
     DOI: 10.1002/anie.202004239
   
   for ALPB and GBSA implicit solvation:
   * S. Ehlert, M. Stahn, S. Spicher, S. Grimme, J. Chem. Theory Comput.,
     2021, 17, 4250-4261. DOI: 10.1021/acs.jctc.1c00471
   
   for ddCOSMO and CPCM-X implicit solvation:
   * M. Stahn, S. Ehlert, S. Grimme, J. Phys. Chem. A,
     2023, XX, XXXX-XXXX. DOI: 10.1021/acs.jpca.3c04382
   
   for DFT-D4:
   * E. Caldeweyher, C. Bannwarth and S. Grimme, J. Chem. Phys., 2017,
     147, 034112. DOI: 10.1063/1.4993215
   * E. Caldeweyher, S. Ehlert, A. Hansen, H. Neugebauer, S. Spicher,
     C. Bannwarth and S. Grimme, J. Chem. Phys., 2019, 150, 154122.
     DOI: 10.1063/1.5090222
   * E. Caldeweyher, J.-M. Mewes, S. Ehlert and S. Grimme, Phys. Chem. Chem. Phys.
     2020, 22, 8499-8512. DOI: 10.1039/D0CP00502A
   
   for sTDA-xTB:
   * S. Grimme and C. Bannwarth, J. Chem. Phys., 2016, 145, 054103.
     DOI: 10.1063/1.4959605
   
   in the mass-spec context:
   * V. Asgeirsson, C. Bauer and S. Grimme, Chem. Sci., 2017, 8, 4879.
     DOI: 10.1039/c7sc00601b
   * J. Koopman and S. Grimme, ACS Omega 2019, 4, 12, 15120-15133.
     DOI: 10.1021/acsomega.9b02011
   
   for metadynamics refer to:
   * S. Grimme, J. Chem. Theory Comput., 2019, 155, 2847-2862
     DOI: 10.1021/acs.jctc.9b00143
   
   for SPH calculations refer to:
   * S. Spicher and S. Grimme, J. Chem. Theory Comput., 2021, 17, 1701-1714
     DOI: 10.1021/acs.jctc.0c01306
   
   for ONIOM refer to:
   * C. Plett, A. Katbashev, S. Ehlert, S. Grimme, M. Bursch,
     Phys. Chem. Chem. Phys., 2023, 25, 17860-17868. DOI: 10.1039/D3CP02178E
   
   for DIPRO refer to:
   * J. Kohn, N. Gildemeister, S. Grimme, D. Fazzi, A. Hansen,
     J. Chem. Phys., 2023, just accepted.
   
   for PTB refer to:
   * S. Grimme, M. Mueller, A. Hansen, J. Chem. Phys., 2023, 158, 124111.
     DOI: 10.1063/5.0137838
   
   with help from (in alphabetical order)
   P. Atkinson, C. Bannwarth, F. Bohle, G. Brandenburg, E. Caldeweyher
   M. Checinski, S. Dohm, S. Ehlert, S. Ehrlich, I. Gerasimov, C. Hölzer
   A. Katbashev, J. Kohn, J. Koopman, C. Lavigne, S. Lehtola, F. März, M. Müller,
   F. Musil, H. Neugebauer, J. Pisarek, C. Plett, P. Pracht, F. Pultar,
   J. Seibert, P. Shushkov, S. Spicher, M. Stahn, M. Steiner, T. Strunk,
   J. Stückrath, T. Rose, and J. Unsleber
   
 * started run on 2025/04/11 at 11:49:46.908     
   ID    Z sym.   atoms
    1    6 C      1-4, 7
    2    8 O      5, 6
    3    1 H      8-17

           -------------------------------------------------
          |                Calculation Setup                |
           -------------------------------------------------

          program call               : /srv/scratch/z5358697/.xtb/bin/xtb solv.coord --gfn2 --sp --chrg 0 --norestart --parallel 1 --alpb water reference -I xtb_sp-xcontrol-inp
          hostname                   : k064
          coordinate file            : solv.coord
          omp threads                :                     1


           -------------------------------------------------
          |                 G F N 2 - x T B                 |
           -------------------------------------------------

        Reference                      10.1021/acs.jctc.8b01176
      * Hamiltonian:
        H0-scaling (s, p, d)           1.850000    2.230000    2.230000
        zeta-weighting                 0.500000
      * Dispersion:
        s8                             2.700000
        a1                             0.520000
        a2                             5.000000
        s9                             5.000000
      * Repulsion:
        kExp                           1.500000    1.000000
        rExp                           1.000000
      * Coulomb:
        alpha                          2.000000
        third order                    shell-resolved
        anisotropic                    true
        a3                             3.000000
        a5                             4.000000
        cn-shift                       1.200000
        cn-exp                         4.000000
        max-rad                        5.000000

      * Solvation model:               ALPB
        Solvent                        water
        Parameter file                 internal GFN2-xTB/ALPB
        Dielectric constant                8.0200E+01
        Reference state                gsolv=reference [X=1]
        Free energy shift                  2.8945E-03 Eh       1.8164E+00 kcal/mol
        Temperature                        2.9815E+02 K
        Density                            1.0000E+00 kg/L
        Solvent mass                       1.8000E+01 g/mol
        Interaction kernel             P16
        Born radius scaling (c1)           1.4744E+00
        Born radii integrator          GBOBC
        Born offset                        0.0000E+00 a0       0.0000E+00 AA
        H-bond correction              true
        Ion screening                  false
        Surface tension                    1.0000E-05 Eh       1.5569E+01 dyn/cm
        Grid points                               974 per atom

          ...................................................
          :                      SETUP                      :
          :.................................................:
          :  # basis functions                  38          :
          :  # atomic orbitals                  38          :
          :  # shells                           24          :
          :  # electrons                        42          :
          :  max. iterations                   250          :
          :  Hamiltonian                  GFN2-xTB          :
          :  restarted?                      false          :
          :  GBSA solvation                   true          :
          :  PC potential                    false          :
          :  electronic temp.          300.0000000     K    :
          :  accuracy                    1.0000000          :
          :  -> integral cutoff          0.2500000E+02      :
          :  -> integral neglect         0.1000000E-07      :
          :  -> SCF convergence          0.1000000E-05 Eh   :
          :  -> wf. convergence          0.1000000E-03 e    :
          :  Broyden damping             0.4000000          :
          :  net charge                          0          :
          :  unpaired electrons                  0          :
          ...................................................

 iter      E             dE          RMSdq      gap      omega  full diag
   1    -24.1623250 -0.241623E+02  0.415E+00    5.69       0.0  T
   2    -24.2178897 -0.555647E-01  0.207E+00    4.77       1.0  T
   3    -24.2195142 -0.162453E-02  0.106E+00    5.07       1.0  T
   4    -24.2209215 -0.140730E-02  0.162E-01    4.85       1.0  T
   5    -24.2210937 -0.172235E-03  0.707E-02    4.90       1.0  T
   6    -24.2210953 -0.153965E-05  0.211E-02    4.89       1.1  T
   7    -24.2210962 -0.875313E-06  0.454E-03    4.89       5.3  T
   8    -24.2210962 -0.328618E-07  0.258E-03    4.89       9.4  T
   9    -24.2210962 -0.945436E-08  0.462E-04    4.89      52.5  T
  10    -24.2210962 -0.801183E-09  0.202E-04    4.89     120.0  T

   *** convergence criteria satisfied after 10 iterations ***

         #    Occupation            Energy/Eh            Energy/eV
      -------------------------------------------------------------
         1        2.0000           -0.7512372             -20.4422
       ...           ...                  ...                  ...
        15        2.0000           -0.4776240             -12.9968
        16        2.0000           -0.4747657             -12.9190
        17        2.0000           -0.4538939             -12.3511
        18        2.0000           -0.4516005             -12.2887
        19        2.0000           -0.4457055             -12.1283
        20        2.0000           -0.4370263             -11.8921
        21        2.0000           -0.4196006             -11.4179 (HOMO)
        22                         -0.2398086              -6.5255 (LUMO)
        23                          0.0061227               0.1666
        24                          0.0949723               2.5843
        25                          0.1184426               3.2230
        26                          0.1267562               3.4492
       ...                                ...                  ...
        38                          0.6121235              16.6567
      -------------------------------------------------------------
                  HL-Gap            0.1797919 Eh            4.8924 eV
             Fermi-level           -0.3297046 Eh           -8.9717 eV

 SCC (total)                   0 d,  0 h,  0 min,  0.019 sec
 SCC setup                      ...        0 min,  0.002 sec (  8.207%)
 Dispersion                     ...        0 min,  0.000 sec (  0.516%)
 classical contributions        ...        0 min,  0.000 sec (  0.118%)
 integral evaluation            ...        0 min,  0.002 sec (  8.679%)
 iterations                     ...        0 min,  0.010 sec ( 54.840%)
 molecular gradient             ...        0 min,  0.005 sec ( 26.584%)
 printout                       ...        0 min,  0.000 sec (  0.918%)

         :::::::::::::::::::::::::::::::::::::::::::::::::::::
         ::                     SUMMARY                     ::
         :::::::::::::::::::::::::::::::::::::::::::::::::::::
         :: total energy             -23.952714517238 Eh    ::
         :: total w/o Gsasa/hb       -23.954710494845 Eh    ::
         :: gradient norm              0.000089256930 Eh/a0 ::
         :: HOMO-LUMO gap              4.892387465328 eV    ::
         ::.................................................::
         :: SCC energy               -24.221063333343 Eh    ::
         :: -> isotropic ES            0.057350594057 Eh    ::
         :: -> anisotropic ES          0.001076178129 Eh    ::
         :: -> anisotropic XC          0.006383927759 Eh    ::
         :: -> dispersion             -0.009596862740 Eh    ::
         :: -> Gsolv                  -0.007134488908 Eh    ::
         ::    -> Gelec               -0.009130466515 Eh    ::
         ::    -> Gsasa                0.001427586944 Eh    ::
         ::    -> Ghb                 -0.002326158498 Eh    ::
         ::    -> Gshift               0.002894549160 Eh    ::
         :: repulsion energy           0.268348816105 Eh    ::
         :: add. restraining           0.000000000000 Eh    ::
         :: total charge               0.000000000000 e     ::
         :::::::::::::::::::::::::::::::::::::::::::::::::::::

           -------------------------------------------------
          |                Property Printout                |
           -------------------------------------------------

    * Orbital Energies and Occupations

         #    Occupation            Energy/Eh            Energy/eV
      -------------------------------------------------------------
         1        2.0000           -0.7512372             -20.4422
       ...           ...                  ...                  ...
         9        2.0000           -0.5641425             -15.3511
        10        2.0000           -0.5505121             -14.9802
        11        2.0000           -0.5223077             -14.2127
        12        2.0000           -0.5120637             -13.9340
        13        2.0000           -0.5038306             -13.7099
        14        2.0000           -0.4951498             -13.4737
        15        2.0000           -0.4776240             -12.9968
        16        2.0000           -0.4747657             -12.9190
        17        2.0000           -0.4538939             -12.3511
        18        2.0000           -0.4516005             -12.2887
        19        2.0000           -0.4457055             -12.1283
        20        2.0000           -0.4370263             -11.8921
        21        2.0000           -0.4196006             -11.4179 (HOMO)
        22                         -0.2398086              -6.5255 (LUMO)
        23                          0.0061227               0.1666
        24                          0.0949723               2.5843
        25                          0.1184426               3.2230
        26                          0.1267562               3.4492
        27                          0.1387084               3.7744
        28                          0.1495723               4.0701
        29                          0.1607904               4.3753
        30                          0.1855333               5.0486
        31                          0.1956220               5.3231
        32                          0.2002009               5.4477
       ...                                ...                  ...
        38                          0.6121235              16.6567
      -------------------------------------------------------------
                  HL-Gap            0.1797919 Eh            4.8924 eV
             Fermi-level           -0.3297046 Eh           -8.9717 eV

     #   Z          covCN         q      C6AA      α(0)
     1   6 C        3.752    -0.112    22.707     6.795
     2   6 C        3.802    -0.058    21.621     6.620
     3   6 C        3.804    -0.101    22.428     6.742
     4   6 C        2.718     0.366    20.792     7.464
     5   8 O        0.856    -0.486    23.479     6.497
     6   8 O        1.704    -0.264    18.374     5.787
     7   6 C        3.650     0.011    20.709     6.537
     8   1 H        0.925     0.028     2.621     2.532
     9   1 H        0.925     0.050     2.316     2.380
    10   1 H        0.925     0.045     2.377     2.411
    11   1 H        0.924     0.052     2.293     2.368
    12   1 H        0.924     0.060     2.198     2.318
    13   1 H        0.925     0.085     1.923     2.169
    14   1 H        0.925     0.075     2.037     2.232
    15   1 H        0.924     0.073     2.051     2.239
    16   1 H        0.924     0.073     2.051     2.239
    17   1 H        0.925     0.102     1.763     2.077

 Mol. C6AA /au·bohr⁶  :       2204.616779
 Mol. C8AA /au·bohr⁸  :      46939.573696
 Mol. α(0) /au        :         69.407831


Wiberg/Mayer (AO) data.
largest (>0.10) Wiberg bond orders for each atom

 ---------------------------------------------------------------------------
     #   Z sym  total        # sym  WBO       # sym  WBO       # sym  WBO
 ---------------------------------------------------------------------------
     1   6 C    3.996 --     2 C    1.022     8 H    0.988    10 H    0.987
                             9 H    0.986
     2   6 C    3.991 --     1 C    1.022     3 C    0.982    11 H    0.977
                            12 H    0.975
     3   6 C    3.989 --     2 C    0.982     4 C    0.980    14 H    0.972
                            13 H    0.954
     4   6 C    3.903 --     5 O    1.698     6 O    1.162     3 C    0.980
     5   8 O    1.974 --     4 C    1.698     6 O    0.169
     6   8 O    2.317 --     4 C    1.162     7 C    0.941     5 O    0.169
     7   6 C    3.906 --    17 H    0.977    15 H    0.977    16 H    0.976
                             6 O    0.941
     8   1 H    0.999 --     1 C    0.988
     9   1 H    0.997 --     1 C    0.986
    10   1 H    0.998 --     1 C    0.987
    11   1 H    0.997 --     2 C    0.977
    12   1 H    0.996 --     2 C    0.975
    13   1 H    0.993 --     3 C    0.954
    14   1 H    0.994 --     3 C    0.972
    15   1 H    0.995 --     7 C    0.977
    16   1 H    0.995 --     7 C    0.976
    17   1 H    0.990 --     7 C    0.977
 ---------------------------------------------------------------------------

Topologies differ in total number of bonds
Writing topology from bond orders to xtbtopo.mol

molecular dipole:
                 x           y           z       tot (Debye)
 q only:       -0.144       0.697      -0.961
   full:       -0.102       0.670      -0.963       2.994
molecular quadrupole (traceless):
                xx          xy          yy          xz          yz          zz
 q only:        7.073       4.295      -2.197      -1.020       3.332      -4.876
  q+dip:        6.128       4.077      -1.341      -1.610       3.951      -4.787
   full:        6.395       3.830      -1.309      -1.658       4.483      -5.086


           -------------------------------------------------
          | TOTAL ENERGY              -23.952714517238 Eh   |
          | GRADIENT NORM               0.000089256930 Eh/α |
          | HOMO-LUMO GAP               4.892387465328 eV   |
           -------------------------------------------------

------------------------------------------------------------------------
 * finished run on 2025/04/11 at 11:49:46.973     
------------------------------------------------------------------------
 total:
 * wall-time:     0 d,  0 h,  0 min,  0.064 sec
 *  cpu-time:     0 d,  0 h,  0 min,  0.030 sec
 * ratio c/w:     0.463 speedup
 SCF:
 * wall-time:     0 d,  0 h,  0 min,  0.019 sec
 *  cpu-time:     0 d,  0 h,  0 min,  0.018 sec
 * ratio c/w:     0.940 speedup

