
                                 *****************
                                 * O   R   C   A *
                                 *****************

                                            #,                                       
                                            ###                                      
                                            ####                                     
                                            #####                                    
                                            ######                                   
                                           ########,                                 
                                     ,,################,,,,,                         
                               ,,#################################,,                 
                          ,,##########################################,,             
                       ,#########################################, ''#####,          
                    ,#############################################,,   '####,        
                  ,##################################################,,,,####,       
                ,###########''''           ''''###############################       
              ,#####''   ,,,,##########,,,,          '''####'''          '####       
            ,##' ,,,,###########################,,,                        '##       
           ' ,,###''''                  '''############,,,                           
         ,,##''                                '''############,,,,        ,,,,,,###''
      ,#''                                            '''#######################'''  
     '                                                          ''''####''''         
             ,#######,   #######,   ,#######,      ##                                
            ,#'     '#,  ##    ##  ,#'     '#,    #''#        ,####,   ,####,        
            ##       ##  ##   ,#'  ##            #'  '#       #'       #'  '#        
            ##       ##  #######   ##           ,######,      #####,   #    #        
            '#,     ,#'  ##    ##  '#,     ,#' ,#      #,     #,   #   #,  ,#        
             '#######'   ##     ##  '#######'  #'      '#     '####' # '####'        



                #########################################################
                #                        -***-                          #
                #          Department of theory and spectroscopy        #
                #                                                       #
                #                      Frank Neese                      #
                #                                                       #
                #     Directorship, Architecture, Infrastructure        #
                #                    SHARK, DRIVERS                     #
                #        Core code/Algorithms in most modules           #
                #                                                       #
                #        Max Planck Institute fuer Kohlenforschung      #
                #                Kaiser Wilhelm Platz 1                 #
                #                 D-45470 Muelheim/Ruhr                 #
                #                      Germany                          #
                #                                                       #
                #                  All rights reserved                  #
                #                        -***-                          #
                #########################################################


                         Program Version 6.0.0  -   RELEASE  -


 With contributions from (in alphabetic order):
   Daniel Aravena         : Magnetic Suceptibility
   Michael Atanasov       : Ab Initio Ligand Field Theory (pilot matlab implementation)
   Alexander A. Auer      : GIAO ZORA, VPT2 properties, NMR spectrum
   Ute Becker             : All parallelization in ORCA, NUMFREQ, NUMCALC
   Giovanni Bistoni       : ED, misc. LED, open-shell LED, HFLD
   Martin Brehm           : Molecular dynamics
   Dmytro Bykov           : pre 5.0 version of the SCF Hessian
   Marcos Casanova-Páez   : Triplet and SCS-CIS(D). UHF-(DLPNO)-IP/EA/STEOM-CCSD. UHF-CVS-IP/STEOM-CCSD
   Vijay G. Chilkuri      : MRCI spin determinant printing, contributions to CSF-ICE
   Pauline Colinet        : FMM embedding
   Dipayan Datta          : RHF DLPNO-CCSD density
   Achintya Kumar Dutta   : EOM-CC, STEOM-CC
   Nicolas Foglia         : Exact transition moments, OPA infrastructure, MCD improvements
   Dmitry Ganyushin       : Spin-Orbit,Spin-Spin,Magnetic field MRCI
   Miquel Garcia          : C-PCM and meta-GGA Hessian, CCSD/C-PCM, Gaussian charge scheme
   Tiago L. C. Gouveia    : GS-ROHF, GS-ROCIS
   Yang Guo               : DLPNO-NEVPT2, F12-NEVPT2, CIM, IAO-localization
   Andreas Hansen         : Spin unrestricted coupled pair/coupled cluster methods
   Ingolf Harden          : AUTO-CI MPn and infrastructure 
   Benjamin Helmich-Paris : MC-RPA, TRAH-(SCF,CASSCF), AVAS, COSX integrals, SCF dyn. polar.
   Lee Huntington         : MR-EOM, pCC
   Robert Izsak           : Overlap fitted RIJCOSX, COSX-SCS-MP3, EOM
   Riya Kayal             : Wick's Theorem for AUTO-CI, AUTO-CI UHF-CCSDT
   Emily Kempfer          : AUTO-CI, RHF CISDT and CCSDT
   Christian Kollmar      : KDIIS, OOCD, Brueckner-CCSD(T), CCSD density, CASPT2, CASPT2-K, improved NEVPT2
   Axel Koslowski         : Symmetry handling
   Simone Kossmann        : Meta GGA functionals, TD-DFT gradient, OOMP2, (MP2 Hessian; deprecated post 5.0)
   Lucas Lang             : DCDCAS
   Marvin Lechner         : AUTO-CI (C++ implementation), FIC-MRCC
   Spencer Leger          : CASSCF response
   Dagmar Lenk            : GEPOL surface, SMD, ORCA-2-JSON
   Dimitrios Liakos       : Extrapolation schemes; Compound Job, initial MDCI parallelization
   Dimitrios Manganas     : Further ROCIS development; embedding schemes. LFT, Crystal Embedding
   Dimitrios Pantazis     : SARC Basis sets
   Anastasios Papadopoulos: AUTO-CI, single reference methods and gradients
   Taras Petrenko         : pre 6.0 DFT Hessian and TD-DFT gradient, (ASA, deprecated), ECA, 1-Electron XAS/XES, NRVS
   Peter Pinski           : DLPNO-MP2, DLPNO-MP2 Gradient
   Christoph Reimann      : Effective Core Potentials
   Marius Retegan         : Local ZFS, SOC
   Christoph Riplinger    : Optimizer, TS searches, QM/MM, DLPNO-CCSD(T), (RO)-DLPNO pert. Triples
   Michael Roemelt        : Original ROCIS implementation
   Masaaki Saitow         : Open-shell DLPNO-CCSD energy and density
   Barbara Sandhoefer     : DKH picture change effects
   Kantharuban Sivalingam : CASSCF convergence/infrastructure, NEVPT2 and variants, FIC-MRCI
   Bernardo de Souza      : ESD, SOC TD-DFT
   Georgi Stoychev        : AutoAux, RI-MP2 NMR, DLPNO-MP2 response, X2C
   Van Anh Tran           : RI-MP2 g-tensors
   Willem Van den Heuvel  : Paramagnetic NMR
   Zikuan Wang            : NOTCH, Electric field optimization 
   Frank Wennmohs         : Technical directorship and infrastructure
   Hang Xu                : AUTO-CI-Response properties 


 We gratefully acknowledge several colleagues who have allowed us to
 interface, adapt or use parts of their codes:
   Stefan Grimme, W. Hujo, H. Kruse, P. Pracht,  : VdW corrections, initial TS optimization,
                  C. Bannwarth, S. Ehlert,         DFT functionals, gCP, sTDA/sTD-DF
                  L. Wittmann, M. Mueller
   Ed Valeev, F. Pavosevic, A. Kumar             : LibInt (2-el integral package), F12 methods
   Garnet Chan, S. Sharma, J. Yang, R. Olivares  : DMRG
   Ulf Ekstrom                                   : XCFun DFT Library
   Mihaly Kallay                                 : mrcc  (arbitrary order and MRCC methods)
   Frank Weinhold                                : gennbo (NPA and NBO analysis)
   Simon Mueller                                 : openCOSMO-RS
   Christopher J. Cramer and Donald G. Truhlar   : smd solvation model
   Lars Goerigk                                  : TD-DFT with DH, B97 family of functionals
   V. Asgeirsson, H. Jonsson                     : NEB implementation
   FAccTs GmbH                                   : IRC, NEB, NEB-TS, DLPNO-Multilevel, CI-OPT
                                                   MM, QMMM, 2- and 3-layer-ONIOM, Crystal-QMMM,
                                                   LR-CPCM, SF, NACMEs, symmetry and pop. for TD-DFT,
                                                   nearIR, NL-DFT gradient (VV10), updates on ESD,
                                                   ML-optimized integration grids, MBIS, APM,
                                                   GOAT, DOCKER, SOLVATOR, interface openCOSMO-RS
   S Lehtola, MJT Oliveira, MAL Marques          : LibXC Library
   Liviu Ungur et al                             : ANISO software


 Your calculation uses the libint2 library for the computation of 2-el integrals
 For citations please refer to: http://libint.valeyev.net

 Your ORCA version has been built with support for libXC version: 6.2.2
 For citations please refer to: https://libxc.gitlab.io

 This ORCA versions uses:
   CBLAS   interface :  Fast vector & matrix operations
   LAPACKE interface :  Fast linear algebra routines
   SCALAPACK package :  Parallel linear algebra routines
   Shared memory     :  Shared parallel matrices
   BLAS/LAPACK       :  OpenBLAS 0.3.27  USE64BITINT DYNAMIC_ARCH NO_AFFINITY SkylakeX SINGLE_THREADED
        Core in use  :  SkylakeX
   Copyright (c) 2011-2014, The OpenBLAS Project


Your calculation utilizes the geometrical counterpoise correction gCP
Please cite in your paper:
H.Kruse, S. Grimme J.Chem.Phys., 136, (2012), 154101 
   

Your calculation utilizes the atom-pairwise dispersion correction
based on EEQ partial charges (D4)


================================================================================

----- Orbital basis set information -----
Your calculation utilizes the basis: def2-SV(P)
   F. Weigend and R. Ahlrichs, Phys. Chem. Chem. Phys. 7, 3297 (2005).

----- AuxJ basis set information -----
Your calculation utilizes the auxiliary basis: def2/J
   F. Weigend, Phys. Chem. Chem. Phys. 8, 1057 (2006).

================================================================================
                                        WARNINGS
                       Please study these warnings very carefully!
================================================================================


================================================================================
                                       INPUT FILE
================================================================================
NAME = sp.inp
|  1> ! pbe def2-sv(p) def2/J RI DEFGRID1 loosescf d4 GCP(DFT/SV(P)) printgap
|  2> %output
|  3>     printlevel normal
|  4> end
|  5> * xyz 0 1
|  6> C -1.4401337782 0.0376930646 0.6212757562
|  7> C 0.0663583699 0.334646397 0.5100724279
|  8> C 0.8184403346 -0.8842038175 -0.043570518
|  9> O 2.2158396884 -0.7425556116 -0.004903953
| 10> O 0.2834685175 1.4192752448 -0.3720729965
| 11> O -2.0067882498 -0.2840007697 -0.6255991714
| 12> H -1.9507419421 0.9115561742 1.051331445
| 13> H -1.609843498 -0.8218939059 1.2711968606
| 14> H 0.4542771521 0.5693242738 1.5114281147
| 15> H 0.5630988099 -1.0105777439 -1.0968243532
| 16> H 0.5004575833 -1.7776402238 0.5080815318
| 17> H 2.5040920318 -0.6338718361 0.9125271735
| 18> H 0.045503614 2.2500325555 0.0620224203
| 19> H -1.7073541019 0.3787368947 -1.2675945676
| 20> *
| 21> 
| 22>                          ****END OF INPUT****
================================================================================

                       ****************************
                       * Single Point Calculation *
                       ****************************

---------------------------------
CARTESIAN COORDINATES (ANGSTROEM)
---------------------------------
  C     -1.440134    0.037693    0.621276
  C      0.066358    0.334646    0.510072
  C      0.818440   -0.884204   -0.043571
  O      2.215840   -0.742556   -0.004904
  O      0.283469    1.419275   -0.372073
  O     -2.006788   -0.284001   -0.625599
  H     -1.950742    0.911556    1.051331
  H     -1.609843   -0.821894    1.271197
  H      0.454277    0.569324    1.511428
  H      0.563099   -1.010578   -1.096824
  H      0.500458   -1.777640    0.508082
  H      2.504092   -0.633872    0.912527
  H      0.045504    2.250033    0.062022
  H     -1.707354    0.378737   -1.267595

----------------------------
CARTESIAN COORDINATES (A.U.)
----------------------------
  NO LB      ZA    FRAG     MASS         X           Y           Z
   0 C     6.0000    0    12.011   -2.721458    0.071230    1.174041
   1 C     6.0000    0    12.011    0.125399    0.632390    0.963897
   2 C     6.0000    0    12.011    1.546628   -1.670903   -0.082336
   3 O     8.0000    0    15.999    4.187330   -1.403227   -0.009267
   4 O     8.0000    0    15.999    0.535678    2.682042   -0.703116
   5 O     8.0000    0    15.999   -3.792280   -0.536684   -1.182211
   6 H     1.0000    0     1.008   -3.686368    1.722592    1.986729
   7 H     1.0000    0     1.008   -3.042163   -1.553154    2.402214
   8 H     1.0000    0     1.008    0.858459    1.075867    2.856185
   9 H     1.0000    0     1.008    1.064103   -1.909715   -2.072698
  10 H     1.0000    0     1.008    0.945728   -3.359253    0.960135
  11 H     1.0000    0     1.008    4.732048   -1.197844    1.724426
  12 H     1.0000    0     1.008    0.085989    4.251945    0.117205
  13 H     1.0000    0     1.008   -3.226432    0.715709   -2.395407

--------------------------------
INTERNAL COORDINATES (ANGSTROEM)
--------------------------------
 C      0   0   0     0.000000000000     0.00000000     0.00000000
 C      1   0   0     1.539501885070     0.00000000     0.00000000
 C      2   1   0     1.535494590859   110.62365624     0.00000000
 O      3   2   1     1.405092264403   113.40151235   187.90737070
 O      2   1   3     1.414827587892   110.06417765   119.23812296
 O      1   2   3     1.406869325235   111.97659921   300.12548918
 H      1   2   3     1.099684194135   109.22846534   178.08451021
 H      1   2   3     1.090911816231   110.31935771    58.63868168
 H      2   1   3     1.099212399370   108.70632359   240.38658319
 H      3   2   1     1.091106459001   108.98794483    70.44468358
 H      3   2   1     1.097115138112   108.85405802   311.84340668
 H      4   3   2     0.967771382302   109.48923437    61.14110857
 H      5   2   1     0.967069715928   109.93311954    75.27323949
 H      6   1   2     0.970072218696   107.81814241   312.47368011

---------------------------
INTERNAL COORDINATES (A.U.)
---------------------------
 C      0   0   0     0.000000000000     0.00000000     0.00000000
 C      1   0   0     2.909236945439     0.00000000     0.00000000
 C      2   1   0     2.901664256842   110.62365624     0.00000000
 O      3   2   1     2.655239572612   113.40151235   187.90737070
 O      2   1   3     2.673636667833   110.06417765   119.23812296
 O      1   2   3     2.658597730910   111.97659921   300.12548918
 H      1   2   3     2.078101960717   109.22846534   178.08451021
 H      1   2   3     2.061524568935   110.31935771    58.63868168
 H      2   1   3     2.077210397820   108.70632359   240.38658319
 H      3   2   1     2.061892390464   108.98794483    70.44468358
 H      3   2   1     2.073247148411   108.85405802   311.84340668
 H      4   3   2     1.828822872798   109.48923437    61.14110857
 H      5   2   1     1.827496915514   109.93311954    75.27323949
 H      6   1   2     1.833170823460   107.81814241   312.47368011

---------------------
BASIS SET INFORMATION
---------------------
There are 3 groups of distinct atoms

 Group   1 Type C   : 7s4p1d contracted to 3s2p1d pattern {511/31/1}
 Group   2 Type O   : 7s4p1d contracted to 3s2p1d pattern {511/31/1}
 Group   3 Type H   : 4s contracted to 2s pattern {31}

Atom   0C    basis set group =>   1
Atom   1C    basis set group =>   1
Atom   2C    basis set group =>   1
Atom   3O    basis set group =>   2
Atom   4O    basis set group =>   2
Atom   5O    basis set group =>   2
Atom   6H    basis set group =>   3
Atom   7H    basis set group =>   3
Atom   8H    basis set group =>   3
Atom   9H    basis set group =>   3
Atom  10H    basis set group =>   3
Atom  11H    basis set group =>   3
Atom  12H    basis set group =>   3
Atom  13H    basis set group =>   3
---------------------------------
AUXILIARY/J BASIS SET INFORMATION
---------------------------------
There are 3 groups of distinct atoms

 Group   1 Type C   : 12s5p4d2f1g contracted to 6s4p3d1f1g pattern {711111/2111/211/2/1}
 Group   2 Type O   : 12s5p4d2f1g contracted to 6s4p3d1f1g pattern {711111/2111/211/2/1}
 Group   3 Type H   : 5s2p1d contracted to 3s1p1d pattern {311/2/1}

Atom   0C    basis set group =>   1
Atom   1C    basis set group =>   1
Atom   2C    basis set group =>   1
Atom   3O    basis set group =>   2
Atom   4O    basis set group =>   2
Atom   5O    basis set group =>   2
Atom   6H    basis set group =>   3
Atom   7H    basis set group =>   3
Atom   8H    basis set group =>   3
Atom   9H    basis set group =>   3
Atom  10H    basis set group =>   3
Atom  11H    basis set group =>   3
Atom  12H    basis set group =>   3
Atom  13H    basis set group =>   3
------------------------------------------------------------------------------
                             ORCA STARTUP CALCULATIONS
                           -- RI-GTO INTEGRALS CHOSEN --
------------------------------------------------------------------------------
------------------------------------------------------------------------------
                   ___                                                        
                  /   \      - P O W E R E D   B Y -                         
                 /     \                                                     
                 |  |  |   _    _      __       _____    __    __             
                 |  |  |  | |  | |    /  \     |  _  \  |  |  /  |          
                  \  \/   | |  | |   /    \    | | | |  |  | /  /          
                 / \  \   | |__| |  /  /\  \   | |_| |  |  |/  /          
                |  |  |   |  __  | /  /__\  \  |    /   |      \           
                |  |  |   | |  | | |   __   |  |    \   |  |\   \          
                \     /   | |  | | |  |  |  |  | |\  \  |  | \   \       
                 \___/    |_|  |_| |__|  |__|  |_| \__\ |__|  \__/        
                                                                              
                      - O R C A' S   B I G   F R I E N D -                    
                                      &                                       
                       - I N T E G R A L  F E E D E R -                       
                                                                              
 v1 FN, 2020, v2 2021, v3 2022-2024                                           
------------------------------------------------------------------------------


----------------------
SHARK INTEGRAL PACKAGE
----------------------

Number of atoms                             ...     14
Number of basis functions                   ...    100
Number of shells                            ...     52
Maximum angular momentum                    ...      2
Integral batch strategy                     ... SHARK/LIBINT Hybrid
RI-J (if used) integral strategy            ... SPLIT-RIJ (Revised 2003 algorithm where possible)
Printlevel                                  ...      1
Contraction scheme used                     ... SEGMENTED contraction
Prescreening option                         ... SCHWARTZ
   Thresh                                   ... 1.000e-09
   Tcut                                     ... 1.000e-10
   Tpresel                                  ... 1.000e-10 
Coulomb Range Separation                    ... NOT USED
Exchange Range Separation                   ... NOT USED
Multipole approximations                    ... NOT USED
Finite Nucleus Model                        ... NOT USED
CABS basis                                  ... NOT available
Auxiliary Coulomb fitting basis             ... AVAILABLE
   # of basis functions in Aux-J            ...    382
   # of shells in Aux-J                     ...    130
   Maximum angular momentum in Aux-J        ...      4
Auxiliary J/K fitting basis                 ... NOT available
Auxiliary Correlation fitting basis         ... NOT available
Auxiliary 'external' fitting basis          ... NOT available

Checking pre-screening integrals            ... done (  0.0 sec) Dimension = 52
Check shell pair data                       ... done (  0.0 sec)
Shell pair information
Shell pair cut-off parameter TPreSel        ...   1.0e-10
Total number of shell pairs                 ...      1378
Shell pairs after pre-screening             ...      1328
Total number of primitive shell pairs       ...      5562
Primitive shell pairs kept                  ...      3982
          la=0 lb=0:    573 shell pairs
          la=1 lb=0:    396 shell pairs
          la=1 lb=1:     77 shell pairs
          la=2 lb=0:    192 shell pairs
          la=2 lb=1:     70 shell pairs
          la=2 lb=2:     20 shell pairs

Calculating one electron integrals          ... done (  0.0 sec)
Calculating RI/J V-Matrix + Cholesky decomp.... done (  0.1 sec)
Calculating Nuclear repulsion               ... done (  0.0 sec) ENN=    263.290968816312 Eh

Diagonalization of the overlap matrix:
Smallest eigenvalue                        ... 2.131e-03
Time for diagonalization                   ...    0.001 sec
Threshold for overlap eigenvalues          ... 1.000e-07
Number of eigenvalues below threshold      ... 0
Time for construction of square roots      ...    0.013 sec
Total time needed                          ...    0.022 sec

-------------------
DFT GRID GENERATION
-------------------

General Integration Accuracy     IntAcc      ... 4.159
Radial Grid Type                 RadialGrid  ... OptM3 with GC (2021)
Angular Grid (max. ang.)         AngularGrid ... 3 (Lebedev-194)
Angular grid pruning method      GridPruning ... 4 (adaptive)
Weight generation scheme         WeightScheme... mBecke (2022)
Basis function cutoff            BFCut       ... 1.0000e-10
Integration weight cutoff        WCut        ... 1.0000e-14
Partially contracted basis set               ... off
Rotationally invariant grid construction     ... off
Angular grids for H and He will be reduced by one unit

Total number of grid points                  ...    31041
Total number of batches                      ...      492
Average number of points per batch           ...       63
Average number of grid points per atom       ...     2217
Initializing property integral containers    ... done (  0.0 sec)

SHARK setup successfully completed in   0.6 seconds

Maximum memory used throughout the entire STARTUP-calculation: 15.2 MB
-------------------------------------------------------------------------------
                                 ORCA GUESS
                   Start orbitals & Density for SCF / CASSCF
-------------------------------------------------------------------------------

------------
SCF SETTINGS
------------
Hamiltonian:
 Density Functional     Method          .... DFT(GTOs)
 Exchange Functional    Exchange        .... PBE
   PBE kappa parameter   XKappa         ....  0.804000
   PBE mue parameter    XMuePBE         ....  0.219520
 Correlation Functional Correlation     .... PBE
   PBE beta parameter  CBetaPBE         ....  0.066725
 LDA part of GGA corr.  LDAOpt          .... PW91-LDA
 Gradients option       PostSCFGGA      .... off
   NL short-range parameter             ....  6.400000
 RI-approximation to the Coulomb term is turned on
   Number of AuxJ basis functions       .... 382


General Settings:
 Integral files         IntName         .... sp
 Hartree-Fock type      HFTyp           .... RHF
 Total Charge           Charge          ....    0
 Multiplicity           Mult            ....    1
 Number of Electrons    NEL             ....   50
 Basis Dimension        Dim             ....  100
 Nuclear Repulsion      ENuc            ....    263.2909688163 Eh

Convergence Acceleration:
 AO-DIIS                CNVDIIS         .... on
   Start iteration      DIISMaxIt       ....    12
   Startup error        DIISStart       ....  0.200000
   # of expansion vecs  DIISMaxEq       ....     5
   Bias factor          DIISBfac        ....   1.050
   Max. coefficient     DIISMaxC        ....  10.000
 MO-DIIS                CNVKDIIS        .... off
 Trust-Rad. Augm. Hess. CNVTRAH         .... auto
   Auto Start mean grad. ratio tolernc. ....  1.125000
   Auto Start start iteration           ....    50
   Auto Start num. interpolation iter.  ....    10
   Max. Number of Micro iterations      ....    24
   Max. Number of Macro iterations      .... Maxiter - #DIIS iter
   Number of Davidson start vectors     ....     2
   Converg. threshold    (grad. norm)   ....   1.000e-04
   Grad. Scal. Fac. for Micro threshold ....   0.100
   Minimum threshold for Micro iter.    ....   1.000e-02
   NR start threshold (gradient norm)   ....   1.000e-04
   Initial trust radius                 ....   0.400
   Minimum AH scaling param. (alpha)    ....   1.000
   Maximum AH scaling param. (alpha)    .... 1000.000
   Quad. conv. algorithm                .... NR
   White noise on init. David. guess    .... on
   Maximum white noise                  ....   0.010
   Pseudo random numbers                .... off
   Inactive MOs                         .... canonical
   Orbital update algorithm             .... Taylor
   Preconditioner                       .... Diag
   Full preconditioner red. dimension   ....   250
 SOSCF                  CNVSOSCF        .... on
   Start iteration      SOSCFMaxIt      ....   150
   Startup grad/error   SOSCFStart      ....  0.003300
   Hessian update       SOSCFHessUp     .... L-BFGS
 Level Shifting         CNVShift        .... on
   Level shift para.    LevelShift      ....    0.2500
   Turn off err/grad.   ShiftErr        ....    0.0010
 Zerner damping         CNVZerner       .... off
 Static damping         CNVDamp         .... on
   Fraction old density DampFac         ....    0.7000
   Max. Damping (<1)    DampMax         ....    0.9800
   Min. Damping (>=0)   DampMin         ....    0.0000
   Turn off err/grad.   DampErr         ....    0.1000

SCF Procedure:
 Maximum # iterations   MaxIter         ....   125
 SCF integral mode      SCFMode         .... Direct
   Integral package                     .... SHARK and LIBINT hybrid scheme
 Reset frequency        DirectResetFreq ....    20
 Integral Threshold     Thresh          ....  1.000e-09 Eh
 Primitive CutOff       TCut            ....  1.000e-10 Eh

Convergence Tolerance:
 Convergence Check Mode ConvCheckMode   .... Total+1el-Energy
 Convergence forced     ConvForced      .... 0
 Energy Change          TolE            ....  1.000e-05 Eh
 1-El. energy change                    ....  1.000e-02 Eh
 Orbital Gradient       TolG            ....  1.000e-04
 Orbital Rotation angle TolX            ....  1.000e-04
 DIIS Error             TolErr          ....  5.000e-04

------------------------------
INITIAL GUESS: MODEL POTENTIAL
------------------------------
Loading Hartree-Fock densities                     ... done
Calculating cut-offs                               ... done
Initializing the effective Hamiltonian             ... done
Setting up the integral package (SHARK)            ... done
Starting the Coulomb interaction                   ... done (   0.1 sec)
Making the grid                                    ... done (   0.2 sec)
Mapping shells                                     ... done
Starting the XC term evaluation                    ... done (   0.1 sec)
  promolecular density results
     # of electrons  =     49.997195733
     EX              =    -42.173748951
     EC              =     -1.665200287
     EX+EC           =    -43.838949238
Transforming the Hamiltonian                       ... done (   0.0 sec)
Diagonalizing the Hamiltonian                      ... done (   0.0 sec)
Back transforming the eigenvectors                 ... done (   0.0 sec)
Now organizing SCF variables                       ... done
                      ------------------
                      INITIAL GUESS DONE (   0.4 sec)
                      ------------------
             **** ENERGY FILE WAS UPDATED (sp.en.tmp) ****
Finished Guess after   0.5 sec
Maximum memory used throughout the entire GUESS-calculation: 11.8 MB

-------------------------------------------------------------------------------------------
                                      ORCA LEAN-SCF
                              memory conserving SCF solver
-------------------------------------------------------------------------------------------

----------------------------------------D-I-I-S--------------------------------------------
Iteration    Energy (Eh)           Delta-E    RMSDP     MaxDP     DIISErr   Damp  Time(sec)
-------------------------------------------------------------------------------------------
               ***  Starting incremental Fock matrix formation  ***
    1    -343.8878357380363013     0.00e+00  6.34e-03  7.94e-02  2.41e-01  0.700   0.6
    2    -343.9833605933471290    -9.55e-02  4.06e-03  4.37e-02  9.34e-02  0.700   0.6
                               ***Turning on AO-DIIS***
    3    -344.0131046320634596    -2.97e-02  1.48e-03  1.57e-02  2.10e-02  0.700   0.5
    4    -344.0327754813837373    -1.97e-02  1.95e-03  2.20e-02  1.06e-02  0.000   0.5
    5    -344.0786763243988844    -4.59e-02  6.15e-04  8.02e-03  6.45e-03  0.000   0.6
                              *** Initializing SOSCF ***
---------------------------------------S-O-S-C-F--------------------------------------
Iteration    Energy (Eh)           Delta-E    RMSDP     MaxDP     MaxGrad    Time(sec)
--------------------------------------------------------------------------------------
    6    -344.0789463908615744    -2.70e-04  2.22e-04  2.97e-03  1.28e-03     0.6
               *** Restarting incremental Fock matrix formation ***
    7    -344.0789704161288682    -2.40e-05  1.53e-04  1.81e-03  2.08e-04     0.6
    8    -344.0789722149339696    -1.80e-06  4.73e-05  6.29e-04  1.89e-04     0.5
                 **** Energy Check signals convergence ****

               *****************************************************
               *                     SUCCESS                       *
               *           SCF CONVERGED AFTER   8 CYCLES          *
               *****************************************************

             **** ENERGY FILE WAS UPDATED (sp.en.tmp) ****

----------------
TOTAL SCF ENERGY
----------------

Total Energy       :       -344.07897221493397 Eh           -9362.86483 eV

Components:
Nuclear Repulsion  :        263.29096881631210 Eh            7164.51150 eV
Electronic Energy  :       -607.36994103124607 Eh          -16527.37633 eV
One Electron Energy:       -992.65418709160190 Eh          -27011.49367 eV
Two Electron Energy:        385.28424606035583 Eh           10484.11734 eV

Virial components:
Potential Energy   :       -685.82074494627818 Eh          -18662.13123 eV
Kinetic Energy     :        341.74177273134421 Eh            9299.26640 eV
Virial Ratio       :          2.00683908046976

DFT components:
N(Alpha)           :       24.999898276350 electrons
N(Beta)            :       24.999898276350 electrons
N(Total)           :       49.999796552701 electrons
E(X)               :      -42.970153530919 Eh       
E(C)               :       -1.681553601557 Eh       
E(XC)              :      -44.651707132476 Eh       

---------------
SCF CONVERGENCE
---------------

  Last Energy change         ...    1.7988e-06  Tolerance :   1.0000e-05
  Last MAX-Density change    ...    6.2926e-04  Tolerance :   1.0000e-03
  Last RMS-Density change    ...    4.7315e-05  Tolerance :   1.0000e-04
  Last DIIS Error            ...    1.2788e-03  Tolerance :   5.0000e-04
  Last Orbital Gradient      ...    1.8856e-04  Tolerance :   1.0000e-04
  Last Orbital Rotation      ...    2.1446e-04  Tolerance :   1.0000e-04


----------------
ORBITAL ENERGIES
----------------

  NO   OCC          E(Eh)            E(eV) 
   0   2.0000     -18.761029      -510.5136 
   1   2.0000     -18.744168      -510.0547 
   2   2.0000     -18.740858      -509.9647 
   3   2.0000      -9.944999      -270.6172 
   4   2.0000      -9.933263      -270.2978 
   5   2.0000      -9.928724      -270.1743 
   6   2.0000      -0.944687       -25.7062 
   7   2.0000      -0.917882       -24.9768 
   8   2.0000      -0.911920       -24.8146 
   9   2.0000      -0.683530       -18.5998 
  10   2.0000      -0.605469       -16.4757 
  11   2.0000      -0.546605       -14.8739 
  12   2.0000      -0.486963       -13.2509 
  13   2.0000      -0.463067       -12.6007 
  14   2.0000      -0.444652       -12.0996 
  15   2.0000      -0.396823       -10.7981 
  16   2.0000      -0.391168       -10.6442 
  17   2.0000      -0.369122       -10.0443 
  18   2.0000      -0.361259        -9.8303 
  19   2.0000      -0.302988        -8.2447 
  20   2.0000      -0.285766        -7.7761 
  21   2.0000      -0.272775        -7.4226 
  22   2.0000      -0.240949        -6.5566 
  23   2.0000      -0.218171        -5.9367 
  24   2.0000      -0.205665        -5.5964 
  25   0.0000       0.008005         0.2178 
  26   0.0000       0.033350         0.9075 
  27   0.0000       0.059199         1.6109 
  28   0.0000       0.070086         1.9071 
  29   0.0000       0.079359         2.1595 
  30   0.0000       0.102962         2.8017 
  31   0.0000       0.111542         3.0352 
  32   0.0000       0.135742         3.6937 
  33   0.0000       0.152229         4.1424 
  34   0.0000       0.179767         4.8917 
  35   0.0000       0.191658         5.2153 
*Only the first 10 virtual orbitals were printed.

                    ********************************
                    * MULLIKEN POPULATION ANALYSIS *
                    ********************************

-----------------------
MULLIKEN ATOMIC CHARGES
-----------------------
   0 C :    0.045635
   1 C :   -0.076230
   2 C :    0.073699
   3 O :   -0.426323
   4 O :   -0.416456
   5 O :   -0.439154
   6 H :    0.061893
   7 H :    0.083171
   8 H :    0.048110
   9 H :    0.086072
  10 H :    0.072316
  11 H :    0.289947
  12 H :    0.300987
  13 H :    0.296334
Sum of atomic charges:   -0.0000000

--------------------------------
MULLIKEN REDUCED ORBITAL CHARGES
--------------------------------
  0 C s       :     3.042259  s :     3.042259
      pz      :     0.843866  p :     2.848970
      px      :     0.965036
      py      :     1.040068
      dz2     :     0.013244  d :     0.063136
      dxz     :     0.015178
      dyz     :     0.017611
      dx2y2   :     0.009899
      dxy     :     0.007205

  1 C s       :     3.097558  s :     3.097558
      pz      :     0.960653  p :     2.911205
      px      :     1.027648
      py      :     0.922904
      dz2     :     0.014380  d :     0.067467
      dxz     :     0.009551
      dyz     :     0.016312
      dx2y2   :     0.013430
      dxy     :     0.013794

  2 C s       :     3.029329  s :     3.029329
      pz      :     1.098979  p :     2.834037
      px      :     0.752677
      py      :     0.982381
      dz2     :     0.011198  d :     0.062936
      dxz     :     0.011302
      dyz     :     0.006310
      dx2y2   :     0.016270
      dxy     :     0.017854

  3 O s       :     3.787652  s :     3.787652
      pz      :     1.400882  p :     4.622928
      px      :     1.328378
      py      :     1.893668
      dz2     :     0.007136  d :     0.015742
      dxz     :     0.002981
      dyz     :     0.000909
      dx2y2   :     0.002898
      dxy     :     0.001818

  4 O s       :     3.791179  s :     3.791179
      pz      :     1.574589  p :     4.609996
      px      :     1.855061
      py      :     1.180347
      dz2     :     0.002398  d :     0.015281
      dxz     :     0.002167
      dyz     :     0.006468
      dx2y2   :     0.002211
      dxy     :     0.002037

  5 O s       :     3.792132  s :     3.792132
      pz      :     1.224968  p :     4.631371
      px      :     1.774400
      py      :     1.632003
      dz2     :     0.001449  d :     0.015652
      dxz     :     0.003360
      dyz     :     0.005937
      dx2y2   :     0.002203
      dxy     :     0.002702

  6 H s       :     0.938107  s :     0.938107

  7 H s       :     0.916829  s :     0.916829

  8 H s       :     0.951890  s :     0.951890

  9 H s       :     0.913928  s :     0.913928

 10 H s       :     0.927684  s :     0.927684

 11 H s       :     0.710053  s :     0.710053

 12 H s       :     0.699013  s :     0.699013

 13 H s       :     0.703666  s :     0.703666


------------------------
MULLIKEN OVERLAP CHARGES
------------------------
B(  0-C ,  1-C ) :   0.5924 B(  0-C ,  2-C ) :  -0.0841 B(  0-C ,  4-O ) :  -0.1006 
B(  0-C ,  5-O ) :   0.6886 B(  0-C ,  6-H ) :   0.6493 B(  0-C ,  7-H ) :   0.6465 
B(  0-C ,  8-H ) :  -0.0719 B(  0-C , 13-H ) :  -0.1205 B(  1-C ,  2-C ) :   0.5277 
B(  1-C ,  3-O ) :  -0.0976 B(  1-C ,  4-O ) :   0.5854 B(  1-C ,  5-O ) :  -0.0720 
B(  1-C ,  6-H ) :  -0.0588 B(  1-C ,  8-H ) :   0.6184 B(  1-C , 10-H ) :  -0.1087 
B(  1-C , 12-H ) :  -0.0619 B(  2-C ,  3-O ) :   0.6990 B(  2-C ,  4-O ) :  -0.1172 
B(  2-C ,  8-H ) :  -0.0769 B(  2-C ,  9-H ) :   0.6424 B(  2-C , 10-H ) :   0.7005 
B(  2-C , 11-H ) :  -0.1012 B(  3-O ,  9-H ) :  -0.0578 B(  3-O , 10-H ) :  -0.0639 
B(  3-O , 11-H ) :   0.5277 B(  4-O ,  8-H ) :  -0.0672 B(  4-O , 12-H ) :   0.5141 
B(  4-O , 13-H ) :   0.0578 B(  5-O ,  6-H ) :  -0.0711 B(  5-O ,  7-H ) :  -0.0676 
B(  5-O , 13-H ) :   0.5256 B(  6-H ,  7-H ) :  -0.0768 B(  9-H , 10-H ) :  -0.0660 



                     *******************************
                     * LOEWDIN POPULATION ANALYSIS *
                     *******************************

----------------------
LOEWDIN ATOMIC CHARGES
----------------------
   0 C :   -0.134481
   1 C :   -0.104621
   2 C :   -0.126822
   3 O :   -0.332337
   4 O :   -0.322714
   5 O :   -0.338978
   6 H :    0.088925
   7 H :    0.113162
   8 H :    0.094463
   9 H :    0.120074
  10 H :    0.099010
  11 H :    0.278913
  12 H :    0.287320
  13 H :    0.278088

-------------------------------
LOEWDIN REDUCED ORBITAL CHARGES
-------------------------------
  0 C s       :     2.926780  s :     2.926780
      pz      :     0.918467  p :     3.063987
      px      :     1.041204
      py      :     1.104315
      dz2     :     0.029638  d :     0.143714
      dxz     :     0.031796
      dyz     :     0.040143
      dx2y2   :     0.025759
      dxy     :     0.016379

  1 C s       :     2.907679  s :     2.907679
      pz      :     1.004431  p :     3.040154
      px      :     1.074771
      py      :     0.960952
      dz2     :     0.033583  d :     0.156788
      dxz     :     0.020648
      dyz     :     0.037975
      dx2y2   :     0.032421
      dxy     :     0.032161

  2 C s       :     2.919106  s :     2.919106
      pz      :     1.133574  p :     3.064458
      px      :     0.860643
      py      :     1.070241
      dz2     :     0.026137  d :     0.143259
      dxz     :     0.022134
      dyz     :     0.015482
      dx2y2   :     0.036380
      dxy     :     0.043127

  3 O s       :     3.541665  s :     3.541665
      pz      :     1.472697  p :     4.763336
      px      :     1.398355
      py      :     1.892285
      dz2     :     0.012252  d :     0.027335
      dxz     :     0.005339
      dyz     :     0.001115
      dx2y2   :     0.005706
      dxy     :     0.002923

  4 O s       :     3.545052  s :     3.545052
      pz      :     1.641940  p :     4.750956
      px      :     1.850899
      py      :     1.258117
      dz2     :     0.003434  d :     0.026706
      dxz     :     0.002768
      dyz     :     0.012084
      dx2y2   :     0.004661
      dxy     :     0.003760

  5 O s       :     3.541916  s :     3.541916
      pz      :     1.307809  p :     4.770052
      px      :     1.783875
      py      :     1.678367
      dz2     :     0.003739  d :     0.027010
      dxz     :     0.006605
      dyz     :     0.010505
      dx2y2   :     0.002824
      dxy     :     0.003337

  6 H s       :     0.911075  s :     0.911075

  7 H s       :     0.886838  s :     0.886838

  8 H s       :     0.905537  s :     0.905537

  9 H s       :     0.879926  s :     0.879926

 10 H s       :     0.900990  s :     0.900990

 11 H s       :     0.721087  s :     0.721087

 12 H s       :     0.712680  s :     0.712680

 13 H s       :     0.721912  s :     0.721912


---------------------------------
LOEWDIN BOND ORDERS (THRESH 0.050000)
---------------------------------
B(  0-C ,  1-C ) :   1.0643 B(  0-C ,  2-C ) :   0.0576 B(  0-C ,  4-O ) :   0.0802 
B(  0-C ,  5-O ) :   1.2485 B(  0-C ,  6-H ) :   0.9049 B(  0-C ,  7-H ) :   0.9081 
B(  1-C ,  2-C ) :   1.0617 B(  1-C ,  3-O ) :   0.0804 B(  1-C ,  4-O ) :   1.2014 
B(  1-C ,  5-O ) :   0.0750 B(  1-C ,  8-H ) :   0.8735 B(  2-C ,  3-O ) :   1.2555 
B(  2-C ,  4-O ) :   0.0584 B(  2-C ,  9-H ) :   0.9058 B(  2-C , 10-H ) :   0.9047 
B(  3-O , 11-H ) :   0.8918 B(  4-O , 12-H ) :   0.8861 B(  5-O , 13-H ) :   0.8768 


------------------------------------------
LOEWDIN REDUCED ORBITAL POPULATIONS PER MO
-------------------------------------------
THRESHOLD FOR PRINTING IS 0.1%%
                      0         1         2         3         4         5   
                 -18.76103 -18.74417 -18.74086  -9.94500  -9.93326  -9.92872
                   2.00000   2.00000   2.00000   2.00000   2.00000   2.00000
                  --------  --------  --------  --------  --------  --------
 0 C  s               0.0       0.0       0.0       0.0      99.6       0.0
 0 C  px              0.0       0.0       0.0       0.1       0.0       0.0
 1 C  s               0.0       0.0       0.0      99.6       0.0       0.0
 1 C  px              0.0       0.0       0.0       0.0       0.1       0.0
 2 C  s               0.0       0.0       0.0       0.0       0.0      99.6
 3 O  s               0.0       0.0      99.9       0.0       0.0       0.0
 3 O  px              0.0       0.0       0.0       0.0       0.0       0.1
 4 O  s              99.9       0.0       0.0       0.0       0.0       0.0
 5 O  s               0.0      99.9       0.0       0.0       0.0       0.0

                      6         7         8         9        10        11   
                  -0.94469  -0.91788  -0.91192  -0.68353  -0.60547  -0.54661
                   2.00000   2.00000   2.00000   2.00000   2.00000   2.00000
                  --------  --------  --------  --------  --------  --------
 0 C  s               4.2       4.1       2.9      10.1      17.7       3.4
 0 C  pz              1.8       3.3       2.6       1.1       2.4       0.3
 0 C  px              0.3       0.9       1.1       4.6       0.2       4.0
 0 C  py              0.0       0.1       0.4       0.0       0.1       1.4
 0 C  dz2             0.0       0.2       0.2       0.1       0.0       0.0
 0 C  dxz             0.0       0.1       0.1       0.0       0.0       0.0
 1 C  s              10.4       0.1       0.6      20.6       0.0       8.6
 1 C  pz              2.7       0.0       0.5       0.4       2.7       0.5
 1 C  px              0.0       2.0       0.2       0.5       8.3       0.8
 1 C  py              2.6       0.0       3.9       4.9       1.6       2.0
 1 C  dz2             0.0       0.0       0.0       0.0       0.0       0.1
 1 C  dyz             0.3       0.0       0.2       0.1       0.0       0.0
 1 C  dx2y2           0.1       0.0       0.1       0.1       0.2       0.0
 2 C  s               2.7       5.4       2.9      10.6      14.1       6.4
 2 C  pz              0.1       0.1       0.0       0.4       0.5       1.8
 2 C  px              0.2       5.6       3.3       4.3       0.5       0.3
 2 C  py              1.1       0.1       0.1       1.1       0.0       5.6
 2 C  dz2             0.0       0.1       0.1       0.0       0.0       0.0
 2 C  dx2y2           0.0       0.3       0.3       0.1       0.0       0.1
 3 O  s               4.5      33.0      21.5       2.6       2.2       0.2
 3 O  pz              0.1       1.1       0.8       0.5       2.5       4.0
 3 O  px              0.2       0.9       0.5       1.8       6.6       6.1
 3 O  py              0.0       0.0       0.0       0.0       0.1       1.0
 3 O  dz2             0.0       0.0       0.0       0.0       0.1       0.1
 4 O  s              40.2       0.4      18.7       4.1       0.0       0.9
 4 O  pz              2.1       0.0       0.8       0.3       0.1       1.1
 4 O  px              0.4       0.0       0.1       0.0       0.3       0.0
 4 O  py              0.0       0.0       0.1       6.1       0.9      15.5
 4 O  dyz             0.0       0.0       0.0       0.1       0.0       0.2
 5 O  s               9.9      26.2      22.7       3.1       1.9       0.2
 5 O  pz              0.1       0.1       0.1       2.1       8.8       7.8
 5 O  px              0.3       0.6       0.5       0.2       0.1       0.0
 5 O  py              0.4       0.9       0.7       0.2       0.2       0.8
 6 H  s               0.6       0.5       0.3       1.9       6.3       1.2
 7 H  s               0.5       0.5       0.4       2.7       5.8       3.0
 8 H  s               1.3       0.0       0.0       4.5       0.1       4.5
 9 H  s               0.5       0.5       0.4       2.1       5.2       3.6
10 H  s               0.3       0.6       0.4       2.6       3.3       3.5
11 H  s               1.0       6.8       4.4       1.3       3.3       3.1
12 H  s               8.1       0.1       4.0       3.0       0.2       4.9
13 H  s               2.5       5.2       4.1       1.5       3.0       2.5

                     12        13        14        15        16        17   
                  -0.48696  -0.46307  -0.44465  -0.39682  -0.39117  -0.36912
                   2.00000   2.00000   2.00000   2.00000   2.00000   2.00000
                  --------  --------  --------  --------  --------  --------
 0 C  s               0.4       0.8       0.4       0.2       0.6       0.1
 0 C  pz              1.8       3.3       0.2       7.4      17.5       2.3
 0 C  px              2.7       0.3       5.6      17.6       0.1       1.2
 0 C  py              0.1      15.0       2.7       4.4      11.0       9.3
 0 C  dxz             0.0       0.1       0.3       0.0       0.2       0.0
 0 C  dyz             0.0       0.0       0.0       0.0       0.3       0.1
 0 C  dx2y2           0.0       0.0       0.0       0.2       0.1       0.0
 0 C  dxy             0.0       0.0       0.0       0.2       0.0       0.3
 1 C  s               0.7       0.0       0.6       1.2       0.1       0.1
 1 C  pz             18.5       1.4       8.8       0.3       0.3       1.1
 1 C  px              0.0       3.2      14.3       7.0       0.6       2.2
 1 C  py              2.3       4.9       1.8       1.0       3.9      10.4
 1 C  dxz             0.1       0.0       0.0       0.1       0.2       0.0
 1 C  dyz             0.3       0.0       0.0       0.1       0.0       0.4
 1 C  dx2y2           0.0       0.1       0.0       0.1       0.0       0.1
 1 C  dxy             0.0       0.0       0.0       0.0       0.0       0.3
 2 C  s               0.4       0.2       0.4       1.0       0.3       0.4
 2 C  pz              6.8       3.9       1.0       4.3       1.6       0.2
 2 C  px              1.0       9.1       6.9       0.3       0.1       0.4
 2 C  py              1.8       0.0       3.9       2.9       7.8      20.9
 2 C  dyz             0.0       0.0       0.1       0.1       0.1       0.1
 2 C  dx2y2           0.0       0.3       0.0       0.3       0.0       0.0
 3 O  s               0.5       0.8       0.0       2.4       0.3       0.4
 3 O  pz              2.5      12.1       2.7       8.0       1.1       0.8
 3 O  px              0.2       7.2       7.9       0.1       0.2       0.7
 3 O  py              0.1       0.6       0.3       0.2       2.6       9.0
 3 O  dz2             0.0       0.1       0.1       0.0       0.0       0.0
 4 O  s               0.8       0.7       0.2       1.0       1.6       0.0
 4 O  pz              0.7       0.7       3.5       0.2       6.5       5.1
 4 O  px              0.2       1.1       3.9       2.6       3.0       0.4
 4 O  py             27.4       0.0       0.1       4.4       0.0       6.1
 4 O  dyz             0.2       0.0       0.0       0.0       0.0       0.0
 5 O  s               0.1       0.6       2.4       0.0       0.1       1.3
 5 O  pz              8.4       8.3       5.3       0.8      14.3       2.4
 5 O  px              0.1       0.0       2.9       7.1       0.5       0.4
 5 O  py              0.4       6.3       3.3       2.3       0.9       7.8
 5 O  dyz             0.1       0.0       0.0       0.0       0.2       0.0
 6 H  s               0.1       6.7       0.4      11.9       0.1       3.6
 7 H  s               0.0       0.3       0.2       0.7      16.0       4.9
 8 H  s               6.8       0.2       9.4       0.1       0.4       0.3
 9 H  s               0.4       0.1       2.3       0.2       0.2       0.1
10 H  s               3.1       1.9       2.3       6.1       4.0       5.2
11 H  s               0.6       5.5       2.7       1.2       0.0       0.1
12 H  s               8.1       0.0       0.0       1.5       0.1       1.3
13 H  s               2.3       3.7       2.6       0.5       2.9       0.0

                     18        19        20        21        22        23   
                  -0.36126  -0.30299  -0.28577  -0.27278  -0.24095  -0.21817
                   2.00000   2.00000   2.00000   2.00000   2.00000   2.00000
                  --------  --------  --------  --------  --------  --------
 0 C  s               0.2       0.0       0.4       0.0       0.7       0.1
 0 C  pz              0.2       1.0       0.5       0.0       0.0       0.0
 0 C  px              2.5       0.2       0.9       0.6       2.9       0.8
 0 C  py              1.0       0.2       5.2       0.0       3.9       0.2
 0 C  dz2             0.0       0.0       0.4       0.0       0.0       0.1
 0 C  dxz             0.0       0.1       0.0       0.0       0.1       0.0
 0 C  dyz             0.1       0.0       0.4       0.0       0.6       0.1
 0 C  dx2y2           0.0       0.0       0.2       0.0       0.0       0.3
 1 C  s               0.1       0.2       0.7       0.4       0.0       1.5
 1 C  pz              1.2       6.8       0.0       3.3       0.7       0.7
 1 C  px              1.6       0.2       2.9       0.8       0.9       0.3
 1 C  py              1.3       0.2       1.5       2.3       0.1       2.6
 1 C  dz2             0.1       0.5       0.0       0.3       0.4       0.0
 1 C  dxz             0.0       0.1       0.0       0.0       0.3       0.1
 1 C  dyz             0.3       0.0       0.0       0.0       0.0       0.0
 1 C  dx2y2           0.1       0.1       0.0       0.3       0.2       0.0
 1 C  dxy             0.0       0.2       0.2       0.0       0.3       0.0
 2 C  s               0.6       0.8       0.0       0.0       0.0       0.0
 2 C  pz             25.4       0.0       0.5       8.6       0.3       0.7
 2 C  px              7.0       0.3       0.1       3.3       0.1       0.1
 2 C  py              0.0       3.5       0.3       0.3       0.1       1.7
 2 C  dz2             0.6       0.0       0.0       0.3       0.1       0.0
 2 C  dxz             0.0       0.2       0.0       0.7       0.0       0.0
 2 C  dyz             0.1       0.0       0.0       0.0       0.0       0.1
 2 C  dx2y2           0.1       0.0       0.0       0.1       0.0       0.1
 2 C  dxy             0.0       0.0       0.0       0.0       0.0       1.3
 3 O  s               0.5       1.6       0.2       6.4       0.0       0.1
 3 O  pz              1.0       8.3       0.6      25.3       0.0       2.3
 3 O  px             17.0       6.2       0.1      12.4       0.1       0.0
 3 O  py              1.1       3.4       0.0       0.2       0.0      50.0
 3 O  dxz             0.2       0.0       0.0       0.0       0.0       0.0
 4 O  s               1.4       5.9       0.4       0.7       0.0       0.0
 4 O  pz              5.1      30.8      10.0       9.4       4.2       1.3
 4 O  px              0.7      10.5       5.7       0.0      49.2       5.9
 4 O  py              0.9       0.2       0.0       0.0       0.6       0.5
 5 O  s               0.4       0.4       6.8       0.1       0.8       0.0
 5 O  pz              0.1       1.7       0.4       0.0       2.8       0.5
 5 O  px              2.1       1.3      27.7       2.2       6.1      13.7
 5 O  py              0.4       3.0      22.8       2.7      13.7       6.6
 6 H  s               1.3       0.1       1.5       0.1       3.1       1.1
 7 H  s               0.4       0.7       4.9       0.1       3.1       0.1
 8 H  s               2.7       6.6       0.1       3.8       2.9       0.9
 9 H  s              19.3       0.2       0.4       7.8       0.4       0.2
10 H  s               0.7       1.2       0.0       2.9       0.1       5.4
11 H  s               1.5       0.7       0.1       3.4       0.0       0.1
12 H  s               0.5       2.5       0.1       0.6       0.0       0.2
13 H  s               0.3       0.0       3.7       0.1       1.0       0.0

                     24        25        26        27        28        29   
                  -0.20566   0.00800   0.03335   0.05920   0.07009   0.07936
                   2.00000   0.00000   0.00000   0.00000   0.00000   0.00000
                  --------  --------  --------  --------  --------  --------
 0 C  s               0.3       1.5       0.5       2.3       8.7       0.1
 0 C  pz              0.2       2.6       0.4       3.2       5.5       0.1
 0 C  px              5.5       0.7       0.2       0.9       0.5       0.4
 0 C  py              0.2       0.3       1.4       0.0       1.3       7.4
 0 C  dz2             0.1       0.1       0.2       0.8       0.1       0.1
 0 C  dxz             0.3       0.1       0.0       0.0       0.0       0.2
 0 C  dyz             0.3       0.0       0.0       0.0       0.0       0.2
 0 C  dx2y2           0.3       0.1       0.0       0.0       0.0       0.1
 0 C  dxy             0.1       0.0       0.0       0.0       0.1       0.3
 1 C  s               0.0       1.3       0.6       1.3       1.0       2.2
 1 C  pz              0.4       5.3       1.0       1.7       0.1       0.9
 1 C  px              7.7       0.3       0.2       0.5       0.4       1.8
 1 C  py              0.6       0.8       1.1       0.1       0.5       3.6
 1 C  dz2             0.1       0.1       0.0       0.2       0.0       0.0
 1 C  dxz             0.1       0.0       0.0       0.1       0.1       0.2
 1 C  dyz             0.0       0.2       0.2       0.1       0.0       0.1
 1 C  dx2y2           0.1       0.2       0.1       0.2       0.2       0.9
 1 C  dxy             0.2       0.0       0.0       0.0       0.0       0.5
 2 C  s               0.0       1.0       0.2       2.1       3.4       0.9
 2 C  pz              0.5       0.1       0.6       1.8       0.3       0.1
 2 C  px              0.2       0.3       3.9       2.0       1.4       3.0
 2 C  py              2.4       0.3       1.0       0.1       2.6       4.4
 2 C  dz2             0.0       0.1       0.2       0.2       0.0       0.1
 2 C  dxz             0.0       0.0       0.2       0.0       0.0       0.0
 2 C  dyz             0.1       0.3       0.0       0.1       0.0       0.0
 2 C  dx2y2           0.0       0.0       0.2       0.1       0.6       1.0
 2 C  dxy             0.6       0.0       0.1       0.0       0.0       0.0
 3 O  s               0.1       0.7       7.6       1.1       1.4       0.1
 3 O  pz              0.1       0.9       7.6       0.8       0.6       0.9
 3 O  px              1.5       0.2       0.1       0.1       0.6       1.5
 3 O  py             26.0       0.2       0.1       0.0       0.1       0.1
 4 O  s               0.3       6.7       1.1       0.3       2.3       2.3
 4 O  pz              0.2       1.3       0.6       0.7       1.6       2.4
 4 O  px              8.4       1.4       0.8       0.2       0.1       0.0
 4 O  py              0.0       2.7       0.7       1.1       2.0       0.0
 5 O  s               0.0       0.9       1.4       8.0       0.3       1.4
 5 O  pz              1.4       0.1       0.4       0.8       0.2       0.2
 5 O  px             23.5       1.0       0.1       1.1       0.1       0.3
 5 O  py             10.5       0.3       0.3       4.4       0.0       0.2
 5 O  dz2             0.0       0.0       0.0       0.1       0.1       0.0
 6 H  s               4.8       5.3       3.0       2.1       7.0      10.7
 7 H  s               0.0       2.8       0.2       0.6      25.7       8.4
 8 H  s               0.6      10.5       3.9       7.0       1.4      12.8
 9 H  s               0.2       0.4       0.0       9.7       1.2       1.4
10 H  s               1.5       3.9       2.9       1.0       9.6      14.2
11 H  s               0.1       5.5      42.4       3.6       3.4       2.5
12 H  s               0.3      35.5       7.3       1.6      15.0       5.8
13 H  s               0.1       3.7       6.7      37.9       0.4       5.8

                     30        31        32        33        34        35   
                   0.10296   0.11154   0.13574   0.15223   0.17977   0.19166
                   0.00000   0.00000   0.00000   0.00000   0.00000   0.00000
                  --------  --------  --------  --------  --------  --------
 0 C  s               3.2       1.5       3.2       2.9       0.5       2.1
 0 C  pz              2.3       4.3       1.5      16.5       0.5       1.7
 0 C  px              3.9       0.8       0.3       3.0       6.3       5.3
 0 C  py              6.1       1.0       5.6       1.4       2.5       1.9
 0 C  dz2             0.2       0.5       0.0       1.7       0.2       0.1
 0 C  dxz             0.9       0.0       0.0       2.2       0.1       0.1
 0 C  dyz             0.4       0.0       0.3       0.9       0.0       0.1
 0 C  dx2y2           0.0       0.1       0.0       0.0       0.6       0.6
 0 C  dxy             0.2       0.0       0.5       0.5       0.3       1.4
 1 C  s               0.2       5.4       0.0       1.9       0.1       1.3
 1 C  pz              6.1       2.7       0.4       1.4       6.9       0.6
 1 C  px              0.3       1.3       0.7       2.4       2.1      10.3
 1 C  py              3.1       2.1       0.2       0.3       8.0      17.4
 1 C  dz2             0.0       0.1       0.2       0.0       0.7       0.0
 1 C  dxz             0.3       0.0       0.0       2.3       0.0       0.1
 1 C  dyz             1.8       0.6       0.1       0.0       1.4       3.9
 1 C  dx2y2           0.2       0.0       0.1       0.3       1.9       1.1
 1 C  dxy             0.1       0.0       0.7       0.6       0.1       1.1
 2 C  s               1.8       3.5       5.3       4.8       2.4       0.0
 2 C  pz              1.9       6.5       8.9       1.6       1.3       4.1
 2 C  px              3.3       0.0       0.8       0.3      12.2       8.3
 2 C  py              0.0       0.7       4.1       5.1       0.4       6.7
 2 C  dz2             0.8       0.3       1.0       0.2       0.3       0.0
 2 C  dxz             0.1       0.2       0.0       0.0       0.3       0.2
 2 C  dyz             0.1       0.1       0.1       0.7       0.2       1.5
 2 C  dx2y2           0.1       0.1       0.0       0.1       3.3       1.3
 2 C  dxy             0.0       0.0       0.0       0.1       0.1       0.3
 3 O  s               0.9       1.1       0.7       0.2       1.4       0.2
 3 O  pz              0.1       0.5       0.7       0.0       0.8       1.2
 3 O  px              0.2       0.1       0.8       0.6      10.4       2.5
 3 O  py              0.1       0.0       0.1       0.2       0.0       0.6
 3 O  dz2             0.0       0.0       0.0       0.0       0.3       0.1
 3 O  dxz             0.0       0.2       0.1       0.1       0.1       0.1
 3 O  dx2y2           0.0       0.0       0.1       0.1       0.2       0.0
 4 O  s               0.4       0.1       0.0       0.1       0.6       0.9
 4 O  pz              0.4       1.5       0.0       0.7       0.9       2.1
 4 O  px              0.2       0.0       0.6       0.1       0.1       0.7
 4 O  py              3.5       1.5       0.3       0.3       8.3       2.6
 4 O  dz2             0.0       0.0       0.0       0.0       0.0       0.2
 4 O  dxz             0.0       0.0       0.0       0.0       0.0       0.2
 4 O  dyz             0.1       0.3       0.0       0.1       0.3       0.1
 4 O  dxy             0.1       0.0       0.0       0.0       0.0       0.1
 5 O  s               1.8       0.5       0.1       0.7       0.0       0.1
 5 O  pz              1.0       0.5       0.2      15.3       0.0       0.0
 5 O  px              0.4       0.2       0.1       1.0       0.4       0.2
 5 O  py              1.6       0.1       0.1       0.8       0.0       1.5
 5 O  dz2             0.1       0.0       0.1       0.1       0.0       0.0
 5 O  dxz             0.0       0.0       0.0       0.3       0.1       0.1
 5 O  dyz             0.1       0.0       0.0       0.2       0.0       0.0
 6 H  s              21.9      10.4       1.2       1.1       6.0       1.3
 7 H  s               2.6       2.5      22.5       0.6       2.2       1.7
 8 H  s              10.5      17.2       0.6       1.1       4.0       0.4
 9 H  s              11.9      23.5       3.7       9.4       0.8       5.4
10 H  s               0.6       0.1      32.3       1.2       1.0       0.8
11 H  s               0.6       6.9       1.1       0.1       3.6       3.0
12 H  s               1.6       0.6       0.6       0.1       5.9       0.7
13 H  s               1.9       0.1       0.1      14.4       0.0       1.2

                     36        37        38        39        40        41   
                   0.20965   0.23605   0.42568   0.43961   0.45885   0.46716
                   0.00000   0.00000   0.00000   0.00000   0.00000   0.00000
                  --------  --------  --------  --------  --------  --------
 0 C  s               3.5       1.5       7.5       0.3       0.2       5.8
 0 C  pz              2.8      11.1      20.6       0.6       2.9      23.2
 0 C  px             19.7       2.8       0.9       8.6       3.3       6.4
 0 C  py              0.3       1.1       0.1       5.9       2.2       0.4
 0 C  dz2             0.2       2.2       0.6       0.0       0.0       0.2
 0 C  dxz             0.6       0.1       0.1       0.2       0.1       0.0
 0 C  dyz             0.0       0.3       0.0       0.9       0.9       0.1
 0 C  dx2y2           5.4       0.2       0.0       0.6       0.7       0.5
 0 C  dxy             0.6       0.0       0.1       0.1       0.8       0.0
 1 C  s              13.5       7.1       0.1       8.1       3.0       1.0
 1 C  pz              1.7       7.4       0.6       7.5       2.1       0.5
 1 C  px              9.9       7.2       8.0       1.3       1.7       0.0
 1 C  py              5.3       0.5       3.3      11.5      22.9       0.4
 1 C  dz2             2.1       0.0       1.1       0.1       0.0       0.2
 1 C  dxz             0.1       0.2       0.0       0.0       0.2       0.1
 1 C  dyz             0.0       0.2       0.0       0.3       0.7       0.0
 1 C  dx2y2           0.3       0.7       0.3       0.4       0.5       0.3
 1 C  dxy             0.0       0.8       0.3       0.7       0.7       0.0
 2 C  s               0.0       6.2       3.0       0.9       0.6      12.1
 2 C  pz              1.1       2.7       1.4       3.4       6.0       0.9
 2 C  px             12.8       2.1       2.1      10.6      17.9      10.6
 2 C  py              1.4      12.1      12.5       0.8       7.6       7.4
 2 C  dz2             0.0       3.8       0.0       0.8       1.2       0.2
 2 C  dxz             0.2       0.0       0.1       0.0       0.4       0.1
 2 C  dyz             0.0       1.1       2.5       0.6       0.2       1.2
 2 C  dx2y2           1.0       0.0       0.0       0.2       0.2       0.1
 2 C  dxy             2.0       0.4       0.1       0.2       0.4       0.0
 3 O  s               0.9       0.8       0.3       0.5       0.3       0.3
 3 O  pz              0.7       0.3       0.5       0.4       0.3       0.7
 3 O  px              1.1       4.1       1.9       1.4       1.9       1.7
 3 O  py              2.4       0.2       0.2       0.9       0.4       0.2
 3 O  dz2             0.0       0.0       0.7       0.5       0.3       1.0
 3 O  dx2y2           0.0       0.5       0.1       0.2       0.3       0.5
 3 O  dxy             0.2       0.1       0.0       0.0       0.0       0.1
 4 O  s               0.2       1.3       0.5       0.4       0.3       0.7
 4 O  pz              0.1       0.4       0.5       0.3       0.6       0.1
 4 O  px              0.5       0.2       0.1       1.4       0.0       0.1
 4 O  py              0.4       2.7       0.6       4.8       1.4       0.9
 4 O  dz2             0.1       0.0       0.1       0.0       0.0       0.2
 4 O  dxz             0.1       0.1       0.0       0.0       0.0       0.1
 4 O  dyz             0.0       0.3       0.2       2.3       0.7       0.2
 4 O  dx2y2           0.3       0.3       0.7       0.0       0.5       0.0
 4 O  dxy             0.1       0.0       0.2       0.4       0.0       0.1
 5 O  s               0.0       1.7       0.2       0.4       0.0       0.3
 5 O  pz              0.1       6.5       3.1       0.1       0.4       4.0
 5 O  px              1.4       0.5       1.0       0.6       0.1       0.7
 5 O  py              0.4       0.1       0.1       1.0       0.8       0.1
 5 O  dz2             0.2       0.4       0.4       0.0       0.1       0.7
 5 O  dxz             0.2       0.2       0.6       0.0       0.1       0.6
 5 O  dyz             0.0       0.0       0.4       0.1       0.0       0.6
 5 O  dx2y2           0.0       0.0       0.2       0.1       0.0       0.1
 5 O  dxy             0.0       0.0       0.0       0.0       0.1       0.0
 6 H  s               0.7       0.1       0.1       0.1       3.6       0.5
 7 H  s               0.8       0.9       0.3       3.3       4.4       1.4
 8 H  s               0.7       0.1       1.7       2.6       0.1       1.6
 9 H  s               0.3       3.2       0.0       2.7       4.3       0.0
10 H  s               0.6       0.9       7.4       2.4       0.1       2.5
11 H  s               1.2       0.8       2.7       0.9       1.1       3.1
12 H  s               1.0       0.2       7.1       7.2       0.4       2.0
13 H  s               0.5       0.9       2.4       0.1       0.1       3.0

                     42        43        44        45        46        47   
                   0.47395   0.52311   0.54017   0.55876   0.56897   0.60621
                   0.00000   0.00000   0.00000   0.00000   0.00000   0.00000
                  --------  --------  --------  --------  --------  --------
 0 C  s               4.2       1.4       1.1       1.2       0.1       5.4
 0 C  pz              2.1       1.0       2.5       0.5       2.0       1.2
 0 C  px             19.0       0.0      13.3       9.5       1.9       1.3
 0 C  py              0.2       7.4       2.1       0.6       2.6       8.7
 0 C  dz2             0.2       1.2       0.1       0.0       0.0       0.1
 0 C  dxz             0.0       0.1       0.3       0.0       0.1       0.1
 0 C  dyz             0.1       4.0       0.8       0.0       1.2       0.0
 0 C  dx2y2           1.9       0.1       0.3       0.2       0.0       0.0
 0 C  dxy             0.6       0.0       0.1       0.1       1.0       0.1
 1 C  s               1.5       3.8       3.5       0.1       2.4       1.8
 1 C  pz              5.4       2.6       2.5       3.5       0.1       3.1
 1 C  px              8.5       1.7       2.0      22.8       3.0       4.8
 1 C  py              0.4       3.2       3.0       1.4      21.4       2.7
 1 C  dz2             1.9       2.7       0.1       0.1       0.4       0.0
 1 C  dxz             0.0       1.6       0.6       0.1       0.1       0.2
 1 C  dyz             0.2       0.0       0.0       0.2       0.1       0.0
 1 C  dx2y2           0.8       0.0       0.1       0.0       0.1       0.0
 1 C  dxy             0.0       0.0       0.0       0.1       0.0       0.0
 2 C  s               1.7       4.1       3.7       1.5       1.4      19.3
 2 C  pz              2.7       0.0       3.6       2.1       4.5       0.1
 2 C  px             16.0       0.3       0.9       0.6       9.3       0.2
 2 C  py              1.0       0.3       3.2       2.6       9.8       3.3
 2 C  dz2             0.7       0.0       1.0       0.1       0.4       0.0
 2 C  dxz             0.9       0.5       1.7       0.6       0.1       0.1
 2 C  dyz             0.1       0.3       0.1       1.0       0.2       0.5
 2 C  dx2y2           0.0       0.1       0.3       0.4       0.0       0.0
 2 C  dxy             0.3       0.0       0.3       0.5       0.2       0.0
 3 O  s               1.3       0.5       0.2       0.8       0.7       2.6
 3 O  pz              0.4       0.9       1.1       0.1       0.8       0.1
 3 O  px              0.9       0.9       0.1       0.6       0.1       0.4
 3 O  py              0.5       0.0       0.1       5.0       0.2       0.0
 3 O  dz2             0.0       0.9       0.7       0.1       0.0       0.0
 3 O  dxz             0.4       0.1       0.9       0.1       0.0       0.1
 3 O  dx2y2           0.9       0.0       0.3       0.0       0.0       0.2
 3 O  dxy             0.1       0.0       0.0       0.2       0.0       0.0
 4 O  s               0.0       0.2       1.0       0.2       0.2       0.6
 4 O  pz              0.1       2.1       0.2       2.8       1.3       2.1
 4 O  px              1.3       2.3       0.1       3.2       0.3       0.4
 4 O  py              0.5       0.0       0.3       1.7       0.3       0.5
 4 O  dz2             0.0       0.2       0.0       0.0       0.0       0.0
 4 O  dxz             0.2       0.0       0.0       0.2       0.0       0.0
 4 O  dyz             0.0       0.1       0.3       0.2       0.1       0.1
 4 O  dx2y2           0.1       0.0       0.0       0.9       0.0       0.2
 4 O  dxy             0.0       0.1       0.0       0.0       0.1       0.2
 5 O  s               0.0       1.6       0.0       0.5       0.1       0.2
 5 O  pz              0.2       0.2       0.4       0.3       0.2       1.0
 5 O  px              0.8       0.4       4.5       0.1       0.9       3.1
 5 O  py              0.6       1.5       0.5       0.2       0.1       3.8
 5 O  dz2             0.1       0.6       0.1       0.0       0.0       0.0
 5 O  dxz             0.0       0.0       0.0       0.1       0.0       0.2
 5 O  dyz             0.0       1.2       0.6       0.2       0.4       0.7
 5 O  dx2y2           0.0       0.1       0.0       0.0       0.0       0.1
 5 O  dxy             0.0       0.0       0.2       0.1       0.1       0.6
 6 H  s               5.3       0.8       8.0       1.2      11.0       0.4
 7 H  s               0.8      12.9       0.2       0.4       3.0       1.3
 8 H  s               3.4      15.4       0.6       1.6       7.1       0.4
 9 H  s               4.8       0.0       5.7       1.7       5.3       0.9
10 H  s               0.1       0.2       3.2       9.4       0.5       3.1
11 H  s               5.0       7.9      14.0       2.2       0.1       0.2
12 H  s               1.5       0.0       1.8      13.7       0.9       7.1
13 H  s               0.1      11.7       7.7       2.2       3.7      16.0

                     48        49        50        51        52        53   
                   0.61394   0.63107   0.63716   0.64297   0.65261   0.66280
                   0.00000   0.00000   0.00000   0.00000   0.00000   0.00000
                  --------  --------  --------  --------  --------  --------
 0 C  s              20.9       1.3      10.2       0.6       5.3       0.7
 0 C  pz             10.4       0.1       0.0       1.1       0.6       0.5
 0 C  px              5.5       4.1       0.4       0.2       0.5       5.1
 0 C  py              0.5       5.0       4.0       2.3      17.1      16.0
 0 C  dz2             0.2       0.0       0.0       0.2       0.1       0.1
 0 C  dxz             0.9       0.3       0.4       0.0       0.0       0.0
 0 C  dyz             0.2       0.4       0.1       0.7       0.2       0.2
 0 C  dx2y2           0.1       0.3       0.0       0.2       0.2       0.1
 0 C  dxy             0.0       0.4       0.0       0.0       0.0       0.2
 1 C  s               2.0       0.2       0.4      17.1       7.1       4.8
 1 C  pz              2.4       5.1       0.7      11.2       1.4       0.1
 1 C  px              6.1      10.3       5.1       2.1       0.4       0.6
 1 C  py              0.2       0.5       2.5       4.7       1.2       4.9
 1 C  dz2             0.0       0.0       0.1       0.1       0.1       0.1
 1 C  dxz             0.2       0.0       1.1       0.2       0.0       0.2
 1 C  dyz             0.0       0.2       0.2       0.2       0.1       0.1
 1 C  dx2y2           0.0       0.7       0.0       0.2       0.0       0.0
 2 C  s               2.6       1.7       4.0       3.9       4.2       0.8
 2 C  pz              5.3       1.6      19.3       1.3       2.5      11.3
 2 C  px              4.9       3.1       0.3       0.5       0.4       0.4
 2 C  py              9.7       8.4       1.0       0.2       5.5       0.1
 2 C  dz2             0.1       0.1       0.5       0.6       0.2       0.2
 2 C  dyz             0.0       0.1       0.3       0.1       0.4       0.1
 2 C  dx2y2           0.0       0.2       0.2       0.1       0.1       0.1
 2 C  dxy             0.0       1.3       0.4       0.1       0.0       0.0
 3 O  s               0.0       0.1       0.1       0.4       0.1       0.2
 3 O  pz              3.0       2.5      10.9       0.8       1.4       0.7
 3 O  px              0.4       0.2       2.0       0.1       1.6       0.3
 3 O  py              0.5       2.4       0.6       0.1       1.1       0.1
 3 O  dz2             0.1       0.1       0.8       0.0       0.1       0.1
 3 O  dyz             0.0       0.1       0.1       0.0       0.1       0.0
 4 O  s               0.0       0.0       0.5       0.1       3.8       0.1
 4 O  pz              0.1       3.7       0.4       1.5       0.7       0.6
 4 O  px              1.5       2.2       0.0       0.2       1.5       0.1
 4 O  py              0.1       0.9       1.7       2.0       0.2       0.9
 4 O  dz2             0.0       0.1       0.1       0.1       0.0       0.0
 4 O  dyz             0.0       0.1       0.0       0.3       0.3       0.1
 4 O  dx2y2           0.1       0.2       0.0       0.7       0.0       0.0
 4 O  dxy             0.1       0.1       0.1       0.2       0.0       0.0
 5 O  s               1.0       0.1       1.8       0.0       0.7       0.9
 5 O  pz              0.3       0.1       1.3       1.0       0.8       0.5
 5 O  px              2.2       0.1       0.4       0.1       0.3       4.2
 5 O  py              0.4       4.7       0.7       0.6       0.4       0.7
 5 O  dz2             0.1       0.1       0.0       0.0       0.1       0.0
 5 O  dxz             0.1       0.0       0.0       0.0       0.0       0.2
 5 O  dyz             0.0       0.1       0.0       0.1       0.2       0.3
 5 O  dx2y2           0.0       0.3       0.1       0.1       0.0       0.0
 6 H  s               2.6       5.1       2.6       1.2       1.2      20.6
 7 H  s               5.1       0.9       2.7      11.3       5.7       0.7
 8 H  s               1.7       2.5       4.0       8.9       4.9       0.4
 9 H  s               0.7       5.6       0.9       4.7       9.5       8.5
10 H  s               3.7       6.3       2.8       0.5       9.5       0.7
11 H  s               2.1       2.7      13.4       0.8       3.3       1.5
12 H  s               0.7       6.7       0.1      14.4       3.9       2.4
13 H  s               0.7       6.2       0.4       1.8       0.8       8.3

                     54        55        56        57        58        59   
                   0.68198   0.68730   0.85866   0.91873   0.93941   0.95317
                   0.00000   0.00000   0.00000   0.00000   0.00000   0.00000
                  --------  --------  --------  --------  --------  --------
 0 C  s               1.6       7.1      12.2       6.3       0.6       0.7
 0 C  pz              1.8      13.0       2.5       0.3       0.7       0.8
 0 C  px              1.1       1.2       0.1       6.8       0.6       0.0
 0 C  py              2.2       5.2       1.2       6.3       0.0       0.7
 0 C  dz2             0.2       0.0       0.6       0.0       1.4       0.0
 0 C  dxz             0.5       0.1       0.0       0.0       0.1       1.0
 0 C  dyz             0.1       0.4       0.2       0.5       0.0       0.0
 0 C  dx2y2           0.1       0.0       0.0       0.3       0.0       0.2
 0 C  dxy             0.0       0.1       1.1       0.1       0.3       0.0
 1 C  s               0.0       0.3      30.6       1.2       1.7       0.7
 1 C  pz             23.8       6.0       2.9       1.5       1.6       0.3
 1 C  px              0.2       1.8       1.3       0.0       0.2       0.5
 1 C  py              3.7       0.0       1.3       0.3       1.7       0.2
 1 C  dz2             0.1       0.0       0.5       0.0       0.3       0.9
 1 C  dxz             0.4       0.1       0.2       0.1       0.6       1.2
 1 C  dyz             0.0       0.1       0.2       0.0       0.3       0.0
 1 C  dx2y2           0.0       0.1       1.8       0.1       0.0       0.0
 1 C  dxy             0.1       0.0       0.1       0.1       0.2       0.4
 2 C  s               1.9       6.2       1.6      16.4       3.4       0.6
 2 C  pz             19.0       6.2       1.0       0.2       0.2       0.9
 2 C  px              0.7       0.1       1.0       4.9       1.4       0.7
 2 C  py              0.3      13.9       0.6       0.7       0.2       0.2
 2 C  dz2             0.3       0.1       0.0       0.4       0.1       0.2
 2 C  dxz             0.4       0.2       1.4       0.2       0.0       0.0
 2 C  dyz             0.0       0.1       0.0       0.4       0.9       0.0
 2 C  dx2y2           0.2       0.1       0.1       0.0       0.0       1.2
 2 C  dxy             0.2       0.1       0.0       0.4       0.4       0.0
 3 O  s               0.7       0.0       0.9       1.1       0.1      16.5
 3 O  pz              3.3       0.1       1.2       0.8       0.0       9.0
 3 O  px              0.6       0.0       1.5       0.6       0.6      33.0
 3 O  py              0.3       3.9       0.7       1.2       1.0       0.2
 3 O  dz2             0.4       0.0       0.0       0.0       0.0       0.0
 3 O  dxz             0.1       0.1       0.3       0.0       0.0       0.0
 3 O  dyz             0.0       0.0       0.1       0.1       0.0       0.0
 3 O  dx2y2           0.0       0.0       0.1       0.0       0.0       0.3
 4 O  s               0.2       0.1       4.1       7.2       6.6       0.6
 4 O  pz              3.1       0.0       1.6       3.8      34.8       4.5
 4 O  px              0.0       3.2       2.0       0.7       1.8       7.3
[...]
 0 C  py              0.0       0.0       0.1       0.1       0.0       0.0
 0 C  dz2             0.7       1.6       0.4       0.9       0.6       0.5
 0 C  dxz             0.2       2.8       0.4       0.6       1.7       0.3
 0 C  dyz             0.4       0.6       0.0       0.5       0.1       0.0
 0 C  dx2y2           0.1       0.2       1.2       2.8       0.2       0.5
 0 C  dxy             0.0       0.7       0.9       0.2       0.1       1.1
 1 C  s               0.1       0.3       0.0       0.0       0.0       0.0
 1 C  pz              0.1       0.7       0.1       0.1       0.0       0.2
 1 C  px              0.0       0.3       0.5       0.2       0.0       0.2
 1 C  py              0.0       0.2       0.1       0.0       0.0       0.1
 1 C  dz2             3.1       0.0       1.7       0.0       0.0       1.7
 1 C  dxz             0.1       0.0       1.6       0.8       1.4       0.0
 1 C  dyz             0.1       0.0       1.4       0.6       0.0       0.3
 1 C  dx2y2           2.3       0.0       0.3       3.3       0.1       1.8
 1 C  dxy             0.6       4.8       4.2       2.5       0.2       0.0
 2 C  s               0.0       0.4       0.0       0.0       0.1       0.1
 2 C  pz              0.2       0.0       0.0       0.0       0.0       0.0
 2 C  px              0.1       0.1       0.0       0.1       0.1       0.0
 2 C  py              0.2       0.1       0.2       0.0       0.0       0.2
 2 C  dz2             0.1       0.0       0.2       0.0       0.1       0.1
 2 C  dxz             6.8       0.0       0.3       0.0       1.1       0.1
 2 C  dyz             0.3       0.2       0.0       0.3       0.0       0.1
 2 C  dx2y2           0.1       0.0       0.2       0.1       0.3       0.4
 2 C  dxy             0.1       2.6       3.8       5.9       0.2       4.7
 3 O  s               0.1       0.0       0.3       0.3       1.0       0.0
 3 O  pz              1.1       0.0       0.1       0.2       0.5       0.0
 3 O  py              0.0       0.0       0.3       0.3       0.0       0.3
 3 O  dz2            12.7       0.3       1.5       6.3      16.0       0.6
 3 O  dxz            19.2       0.3       0.0       1.8      15.6       1.2
 3 O  dyz             0.1       0.0       0.3       0.3       1.4       0.0
 3 O  dx2y2           3.9       0.7       3.8       4.1       6.3       0.1
 3 O  dxy             8.5       5.0      19.0      15.7       3.0      19.0
 4 O  s               0.1       0.0       0.4       0.1       0.3       1.4
 4 O  pz              0.5       0.2       0.0       0.0       0.1       0.2
 4 O  px              0.1       0.2       0.8       0.1       0.0       0.1
 4 O  py              0.6       0.1       0.1       0.0       0.1       0.2
 4 O  dz2            15.8       4.6       9.7       0.6       0.1       1.9
 4 O  dxz             9.8       3.3      17.3       4.1       0.0       3.2
 4 O  dyz             0.4       0.4       4.7       0.2       1.4       7.4
 4 O  dx2y2           0.2       6.4       5.4       0.1       4.6      16.8
 4 O  dxy             0.8      15.1      11.8       2.1       4.0       0.9
 5 O  s               0.0       0.3       0.0       0.9       0.6       1.2
 5 O  pz              0.0       0.1       0.0       0.1       0.0       0.0
 5 O  px              0.0       0.7       0.0       0.6       0.0       0.1
 5 O  py              0.1       0.0       0.0       0.1       0.3       0.4
 5 O  dz2             1.0      11.9       0.0       0.8      11.9       8.5
 5 O  dxz             0.4      11.0       2.2       3.2       4.2       1.0
 5 O  dyz             0.0       8.2       3.0      26.2       7.2       8.3
 5 O  dx2y2           0.4       9.2       0.1       0.0       5.8       2.5
 5 O  dxy             6.4       4.9       0.1       8.8       2.7       6.5
 8 H  s               0.1       0.1       0.0       0.0       0.0       0.1
11 H  s               0.6       0.1       0.2       0.9       3.3       0.2
12 H  s               0.5       0.3       1.0       0.0       0.8       2.8
13 H  s               0.1       0.1       0.0       2.5       2.1       2.2

                     96        97        98        99   
                   2.95218   3.25944   3.27950   3.29871
                   0.00000   0.00000   0.00000   0.00000
                  --------  --------  --------  --------
 0 C  s               0.0       1.7       0.3       0.3
 0 C  pz              0.0       2.0       0.4       0.5
 0 C  px              0.0       0.4       0.4       0.2
 0 C  py              0.0       0.1       0.1       0.0
 0 C  dz2             0.8       3.2       0.9       1.0
 0 C  dxz             1.4       2.2       1.5       1.0
 0 C  dyz             0.0       0.9       0.2       0.3
 0 C  dx2y2           0.8       0.1       0.0       0.0
 0 C  dxy             0.2       0.2       0.0       0.2
 1 C  s               0.1       0.5       1.3       0.1
 1 C  pz              0.1       0.4       1.1       0.0
 1 C  px              0.1       0.0       0.1       0.3
 1 C  py              0.0       0.4       2.1       0.0
 1 C  dz2             0.9       0.0       0.3       0.1
 1 C  dxz             3.5       0.0       0.5       0.2
 1 C  dyz             0.1       1.7       6.7       0.0
 1 C  dx2y2           2.1       0.3       2.7       0.1
 1 C  dxy             0.6       0.0       0.7       0.3
 2 C  s               0.1       0.6       0.1       2.3
 2 C  px              0.0       0.7       0.1       3.2
 2 C  py              0.0       0.0       0.2       0.0
 2 C  dz2             0.4       0.6       0.0       2.0
 2 C  dxz             1.6       0.0       0.0       0.0
 2 C  dyz             0.3       0.0       0.1       0.0
 2 C  dx2y2           0.7       0.6       0.5       7.7
 2 C  dxy             0.3       0.1       0.0       0.3
 3 O  s               1.0       0.8       0.0       3.6
 3 O  pz              0.4       0.1       0.0       0.3
 3 O  px              0.0       0.7       0.0       3.4
 3 O  dz2            13.5       4.3       0.2      17.7
 3 O  dxz            11.6       0.0       0.0       0.0
 3 O  dyz             2.0       0.0       0.0       0.0
 3 O  dx2y2           2.1       7.8       0.6      38.3
 3 O  dxy             1.2       0.1       0.4       1.3
 4 O  s               1.2       1.0       3.6       0.0
 4 O  pz              0.1       0.1       0.6       0.0
 4 O  py              0.0       0.8       3.5       0.0
 4 O  dz2             3.9       0.0       0.4       0.1
 4 O  dxz             0.6       0.6       0.8       0.0
 4 O  dyz             1.9       9.5      41.2       0.3
 4 O  dx2y2          20.3       1.7      10.9       0.0
 4 O  dxy             9.5       1.4       2.4       0.6
 5 O  s               0.0       2.3       0.5       1.0
 5 O  pz              0.0       2.7       0.7       0.7
 5 O  px              0.1       0.2       0.0       0.2
 5 O  dz2             3.7      17.0       5.8       4.8
 5 O  dxz             4.6      20.4       4.2       4.5
 5 O  dyz             0.7       8.3       3.0       1.6
 5 O  dx2y2           2.3       1.3       0.0       0.4
 5 O  dxy             0.0       0.9       0.0       0.3
11 H  s               2.6       0.2       0.0       0.6
12 H  s               2.0       0.2       0.6       0.0
13 H  s               0.3       0.6       0.2       0.1


                      *****************************
                      * MAYER POPULATION ANALYSIS *
                      *****************************

  NA   - Mulliken gross atomic population
  ZA   - Total nuclear charge
  QA   - Mulliken gross atomic charge
  VA   - Mayer's total valence
  BVA  - Mayer's bonded valence
  FA   - Mayer's free valence

  ATOM       NA         ZA         QA         VA         BVA        FA
  0 C      5.9544     6.0000     0.0456     3.9576     3.9576     0.0000
  1 C      6.0762     6.0000    -0.0762     4.1199     4.1199    -0.0000
  2 C      5.9263     6.0000     0.0737     3.9337     3.9337    -0.0000
  3 O      8.4263     8.0000    -0.4263     2.0074     2.0074     0.0000
  4 O      8.4165     8.0000    -0.4165     1.9971     1.9971    -0.0000
  5 O      8.4392     8.0000    -0.4392     2.0141     2.0141    -0.0000
  6 H      0.9381     1.0000     0.0619     0.9541     0.9541    -0.0000
  7 H      0.9168     1.0000     0.0832     0.9594     0.9594    -0.0000
  8 H      0.9519     1.0000     0.0481     0.9601     0.9601     0.0000
  9 H      0.9139     1.0000     0.0861     0.9931     0.9931     0.0000
 10 H      0.9277     1.0000     0.0723     0.9547     0.9547    -0.0000
 11 H      0.7101     1.0000     0.2899     0.8868     0.8868    -0.0000
 12 H      0.6990     1.0000     0.3010     0.8811     0.8811    -0.0000
 13 H      0.7037     1.0000     0.2963     0.9076     0.9076    -0.0000

  Mayer bond orders larger than 0.100000
B(  0-C ,  1-C ) :   1.0300 B(  0-C ,  5-O ) :   1.0701 B(  0-C ,  6-H ) :   0.9150 
B(  0-C ,  7-H ) :   0.9156 B(  1-C ,  2-C ) :   1.0246 B(  1-C ,  4-O ) :   1.0478 
B(  1-C ,  8-H ) :   0.8917 B(  2-C ,  3-O ) :   1.0828 B(  2-C ,  9-H ) :   0.9052 
B(  2-C , 10-H ) :   0.9263 B(  3-O , 11-H ) :   0.8556 B(  4-O , 12-H ) :   0.8504 
B(  5-O , 13-H ) :   0.8341 

-------
TIMINGS
-------

Total SCF time: 0 days 0 hours 0 min 4 sec 

Total time                  ....       4.741 sec
Sum of individual times     ....       4.326 sec  ( 91.2%)

SCF preparation             ....       0.168 sec  (  3.6%)
Fock matrix formation       ....       3.544 sec  ( 74.8%)
  Startup                   ....       0.056 sec  (  1.6% of F)
  Split-RI-J                ....       0.981 sec  ( 27.7% of F)
  XC integration            ....       2.030 sec  ( 57.3% of F)
    Basis function eval.    ....       0.715 sec  ( 35.2% of XC)
    Density eval.           ....       0.221 sec  ( 10.9% of XC)
    XC-Functional eval.     ....       0.215 sec  ( 10.6% of XC)
    XC-Potential eval.      ....       0.388 sec  ( 19.1% of XC)
Diagonalization             ....       0.000 sec  (  0.0%)
Density matrix formation    ....       0.152 sec  (  3.2%)
Total Energy calculation    ....       0.029 sec  (  0.6%)
Population analysis         ....       0.060 sec  (  1.3%)
Orbital Transformation      ....       0.051 sec  (  1.1%)
Orbital Orthonormalization  ....       0.000 sec  (  0.0%)
DIIS solution               ....       0.240 sec  (  5.1%)
  MO trafo                  ....       0.000 sec  (  0.0 % of DIIS)
  Orb grad                  ....       0.000 sec  (  0.0 % of DIIS)
  Energy W gradient         ....       0.000 sec  (  0.0 % of DIIS)
  DIIS error                ....       0.001 sec  (  0.6 % of DIIS)
  DIIS work                 ....       0.191 sec  ( 79.9 % of DIIS)
  Form Q                    ....       0.000 sec  (  0.0 % of DIIS)
  Form QpQm                 ....       0.000 sec  (  0.0 % of DIIS)
  Exp/Cayley                ....       0.000 sec  (  0.0 % of DIIS)
  Orb update                ....       0.000 sec  (  0.0 % of DIIS)
  Wake-sleep                ....       0.015 sec  (  6.2 % of DIIS)
SOSCF solution              ....       0.081 sec  (  1.7%)
  MO trafo                  ....       0.047 sec  ( 58.3 % of SOSCF)
  Orb grad                  ....       0.002 sec  (  1.9 % of SOSCF)
  Rot update                ....       0.014 sec  ( 17.7 % of SOSCF)
  Step                      ....       0.018 sec  ( 22.1 % of SOSCF)
Finished LeanSCF after   4.8 sec

Maximum memory used throughout the entire LEANSCF-calculation: 9.4 MB


-------------------------------------------------------------------------------
                          DFT DISPERSION CORRECTION                            
                                                                               
                                DFTD4 V3.4.0                                   
-------------------------------------------------------------------------------
The PBE functional is recognized
Active option DFTDOPT                   ...         5   

-------------------------   ----------------
Dispersion correction           -0.009208062
-------------------------   ----------------

------------------   -----------------
gCP correction             0.082326656
------------------   -----------------

-------------------------   --------------------
FINAL SINGLE POINT ENERGY      -344.005853620596
-------------------------   --------------------


------------------------------------------------------------------------------
                              ORCA PROPERTY CALCULATIONS
------------------------------------------------------------------------------

GBWName                                 ... sp.gbw
Number of atoms                         ...     14
Number of basis functions               ...    100
Max core memory                         ...   1024 MB

Electric properties:
Dipole moment                           ... YES
Quadrupole moment                       ...  NO
Static polarizability (Dipole/Dipole)   ...  NO
Static polarizability (Dipole/Quad.)    ...  NO
Static polarizability (Quad./Quad.)     ...  NO
Static polarizability (Velocity)        ...  NO

Atomic electric properties:
Dipole moment                           ...  NO
Quadrupole moment                       ...  NO
Static polarizability                   ...  NO

Choice of electric origin               ... Center of mass
Position of electric origin             ...    -0.000009    -0.000006     0.000018

General magnetic properties:
Magnetizability                         ...  NO

EPR properties:
g-Tensor (aka g-matrix)                 ...  NO
Zero-Field splitting spin-orbit         ...  NO
Zero-field splitting spin-spin          ...  NO
Hyperfine couplings                     ...  NO (   0 nuclei)
Quadrupole couplings                    ...  NO (   0 nuclei)
Contact density                         ...  NO (   0 nuclei)

NMR properties:
Chemical shifts                         ...  NO (   0 nuclei)
Spin-rotation constants                 ...  NO (   0 nuclei)
Spin-spin couplings                     ...  NO (   0 nuclei,    0 pairs)

Choice of magnetic origin               ... GIAO
Position of magnetic origin             ...     0.000000     0.000000     0.000000

Properties with geometric perturbations:
SCF Hessian                             ...  NO
IR spectrum                             ...  NO
VCD spectrum                            ...  NO
X-ray spectroscopy properties:
SCF XES/XAS/RIXS spectra                ...  NO


-------------
DIPOLE MOMENT
-------------

Method             : SCF
Type of density    : Electron Density
Multiplicity       :   1
Irrep              :   0
Energy             :  -344.0789722149339696 Eh
Relativity type    : 
Basis              : AO
                                X                 Y                 Z
Electronic contribution:      1.043059206       0.809182937      -1.698124272
Nuclear contribution   :     -1.118972271      -0.120196007       2.754756413
                        -----------------------------------------
Total Dipole Moment    :     -0.075913065       0.688986930       1.056632141
                        -----------------------------------------
Magnitude (a.u.)       :      1.263699832
Magnitude (Debye)      :      3.212069704



--------------------
Rotational spectrum 
--------------------
 
Rotational constants in cm-1:             0.197336             0.075536             0.065079 
Rotational constants in MHz :          5915.985272          2264.503670          1951.031474 

Dipole components along the rotational axes: 
x,y,z [a.u.] :     0.143617     0.628204     1.087047 
x,y,z [Debye]:     0.365045     1.596767     2.763055 

 

Dipole moment calculation done in   0.0 sec 

Maximum memory used throughout the entire PROP-calculation: 6.0 MB

--------------------------------
SUGGESTED CITATIONS FOR THIS RUN
--------------------------------

Below you find a list of papers that are relevant to this ORCA run
We neither can nor want to force you to cite these papers, but we appreciate if you do
You receive ORCA, which is the product of decades of hard work by many enthusiastic individuals, for free
The only thing we kindly ask in return is that you cite our papers,
We deeply appreciate it, if you show your appreciation for ORCA by not just citing the generic ORCA reference.

Please note that relegating all ORCA citations to the supporting information does *not* help us.
SI sections are not indexed - citations you put there will not count into any citation statistics
But we need these citations in order to attract the funding resources that allow us to do what we are doing

Therefore, if you are a happy ORCA user, please consider citing a few of the papers listed below in the main body of your paper

In addition to the list printed below, the program has created the file sp.bibtex that contains the list in bibtex format
You can import this file easily into all common literature databanks and citation aid programs


List of essential papers. We consider these as the minimum necessary citations

  1. Neese,F.
     Software update: the ORCA program system, version 5.0
     WIRES Comput. Molec. Sci., 2022 12(1)e1606
     doi.org/10.1002/wcms.1606

List of papers to cite with high priority. The work reported in these papers was absolutely
necessary for this run to complete.
Our perspective: the developers of density functionals and basis sets usually get cited in chemistry papers
Good! But without the algorithms to do something with them, the functionals or basis sets would not do anything.
Hence, in our opinion, the algorithm design and method developments papers are equally worthy of getting cited

  1. Neese,F.
     An improvement of the resolution of the identity approximation for the formation of the Coulomb matrix
     J. Comp. Chem., 2003 24(14)1740-1747
     doi.org/10.1002/jcc.10318
  2. Neese,F.
     The SHARK Integral Generation and Digestion System
     J. Comp. Chem., 2022  1-16
     doi.org/10.1002/jcc.26942
  3. Caldeweyher,E.; Bannwarth,C.; Grimme,S.
     Extension of the D3 dispersion coefficient model
     J. Chem. Phys., 2017 147 034112-XXXX
     doi.org/10.1063/1.4993215
  4. Caldeweyher,E.; Ehlert,S.; Hansen,A.; Neugebauer,H.; Spicher,S.; Bannwarth,C.; Grimme,S.
     A generally applicable atomic-charge dependent London dispersion correction
     J. Chem. Phys., 2019 150 154122-XXXX
     doi.org/10.1063/1.5090222
  5. Caldeweyher,E.; Mewes,J.; Ehlert,S.; Grimme,S.
     Extension and evaluation of the D4 London-dispersion model for periodic systems
     Phys. Chem. Chem. Phys., 2020 22(16)8499-8512
     doi.org/10.1039/D0CP00502A

List of suggested additional citations. These are papers that are important in the 'surrounding' of 
of this run, or papers that preceded the highly important papers. If you like your results we are grateful for a citation.

  1. Neese,F.
     The ORCA program system
     WIRES Comput. Molec. Sci., 2012 2(1)73-78
     doi.org/10.1002/wcms.81
  2. Neese,F.
     Software update: the ORCA program system, version 4.0
     WIRES Comput. Molec. Sci., 2018 8(1)1-6
     doi.org/10.1002/wcms.1327
  3. Neese,F.; Wennmohs,F.; Becker,U.; Riplinger,C.
     The ORCA quantum chemistry program package
     J. Chem. Phys., 2020 152 Art. No. L224108
     doi.org/10.1063/5.0004608

List of optional additional citations

  1. Neese,F.
     Approximate second-order SCF convergence for spin unrestricted wavefunctions
     Chem. Phys. Lett., 2000 325(1-3)93-98
     doi.org/10.1016/s0009-2614(00)00662-x

Timings for individual modules:

Sum of individual times          ...        6.110 sec (=   0.102 min)
Startup calculation              ...        0.614 sec (=   0.010 min)  10.0 %
SCF iterations                   ...        5.393 sec (=   0.090 min)  88.3 %
Property calculations            ...        0.104 sec (=   0.002 min)   1.7 %
                             ****ORCA TERMINATED NORMALLY****
TOTAL RUN TIME: 0 days 0 hours 0 minutes 6 seconds 824 msec
