
                                 *****************
                                 * O   R   C   A *
                                 *****************

                                            #,                                       
                                            ###                                      
                                            ####                                     
                                            #####                                    
                                            ######                                   
                                           ########,                                 
                                     ,,################,,,,,                         
                               ,,#################################,,                 
                          ,,##########################################,,             
                       ,#########################################, ''#####,          
                    ,#############################################,,   '####,        
                  ,##################################################,,,,####,       
                ,###########''''           ''''###############################       
              ,#####''   ,,,,##########,,,,          '''####'''          '####       
            ,##' ,,,,###########################,,,                        '##       
           ' ,,###''''                  '''############,,,                           
         ,,##''                                '''############,,,,        ,,,,,,###''
      ,#''                                            '''#######################'''  
     '                                                          ''''####''''         
             ,#######,   #######,   ,#######,      ##                                
            ,#'     '#,  ##    ##  ,#'     '#,    #''#        ,####,   ,####,        
            ##       ##  ##   ,#'  ##            #'  '#       #'       #'  '#        
            ##       ##  #######   ##           ,######,      #####,   #    #        
            '#,     ,#'  ##    ##  '#,     ,#' ,#      #,     #,   #   #,  ,#        
             '#######'   ##     ##  '#######'  #'      '#     '####' # '####'        



                #########################################################
                #                        -***-                          #
                #          Department of theory and spectroscopy        #
                #                                                       #
                #                      Frank Neese                      #
                #                                                       #
                #     Directorship, Architecture, Infrastructure        #
                #                    SHARK, DRIVERS                     #
                #        Core code/Algorithms in most modules           #
                #                                                       #
                #        Max Planck Institute fuer Kohlenforschung      #
                #                Kaiser Wilhelm Platz 1                 #
                #                 D-45470 Muelheim/Ruhr                 #
                #                      Germany                          #
                #                                                       #
                #                  All rights reserved                  #
                #                        -***-                          #
                #########################################################


                         Program Version 6.0.0  -   RELEASE  -


 With contributions from (in alphabetic order):
   Daniel Aravena         : Magnetic Suceptibility
   Michael Atanasov       : Ab Initio Ligand Field Theory (pilot matlab implementation)
   Alexander A. Auer      : GIAO ZORA, VPT2 properties, NMR spectrum
   Ute Becker             : All parallelization in ORCA, NUMFREQ, NUMCALC
   Giovanni Bistoni       : ED, misc. LED, open-shell LED, HFLD
   Martin Brehm           : Molecular dynamics
   Dmytro Bykov           : pre 5.0 version of the SCF Hessian
   Marcos Casanova-Páez   : Triplet and SCS-CIS(D). UHF-(DLPNO)-IP/EA/STEOM-CCSD. UHF-CVS-IP/STEOM-CCSD
   Vijay G. Chilkuri      : MRCI spin determinant printing, contributions to CSF-ICE
   Pauline Colinet        : FMM embedding
   Dipayan Datta          : RHF DLPNO-CCSD density
   Achintya Kumar Dutta   : EOM-CC, STEOM-CC
   Nicolas Foglia         : Exact transition moments, OPA infrastructure, MCD improvements
   Dmitry Ganyushin       : Spin-Orbit,Spin-Spin,Magnetic field MRCI
   Miquel Garcia          : C-PCM and meta-GGA Hessian, CCSD/C-PCM, Gaussian charge scheme
   Tiago L. C. Gouveia    : GS-ROHF, GS-ROCIS
   Yang Guo               : DLPNO-NEVPT2, F12-NEVPT2, CIM, IAO-localization
   Andreas Hansen         : Spin unrestricted coupled pair/coupled cluster methods
   Ingolf Harden          : AUTO-CI MPn and infrastructure 
   Benjamin Helmich-Paris : MC-RPA, TRAH-(SCF,CASSCF), AVAS, COSX integrals, SCF dyn. polar.
   Lee Huntington         : MR-EOM, pCC
   Robert Izsak           : Overlap fitted RIJCOSX, COSX-SCS-MP3, EOM
   Riya Kayal             : Wick's Theorem for AUTO-CI, AUTO-CI UHF-CCSDT
   Emily Kempfer          : AUTO-CI, RHF CISDT and CCSDT
   Christian Kollmar      : KDIIS, OOCD, Brueckner-CCSD(T), CCSD density, CASPT2, CASPT2-K, improved NEVPT2
   Axel Koslowski         : Symmetry handling
   Simone Kossmann        : Meta GGA functionals, TD-DFT gradient, OOMP2, (MP2 Hessian; deprecated post 5.0)
   Lucas Lang             : DCDCAS
   Marvin Lechner         : AUTO-CI (C++ implementation), FIC-MRCC
   Spencer Leger          : CASSCF response
   Dagmar Lenk            : GEPOL surface, SMD, ORCA-2-JSON
   Dimitrios Liakos       : Extrapolation schemes; Compound Job, initial MDCI parallelization
   Dimitrios Manganas     : Further ROCIS development; embedding schemes. LFT, Crystal Embedding
   Dimitrios Pantazis     : SARC Basis sets
   Anastasios Papadopoulos: AUTO-CI, single reference methods and gradients
   Taras Petrenko         : pre 6.0 DFT Hessian and TD-DFT gradient, (ASA, deprecated), ECA, 1-Electron XAS/XES, NRVS
   Peter Pinski           : DLPNO-MP2, DLPNO-MP2 Gradient
   Christoph Reimann      : Effective Core Potentials
   Marius Retegan         : Local ZFS, SOC
   Christoph Riplinger    : Optimizer, TS searches, QM/MM, DLPNO-CCSD(T), (RO)-DLPNO pert. Triples
   Michael Roemelt        : Original ROCIS implementation
   Masaaki Saitow         : Open-shell DLPNO-CCSD energy and density
   Barbara Sandhoefer     : DKH picture change effects
   Kantharuban Sivalingam : CASSCF convergence/infrastructure, NEVPT2 and variants, FIC-MRCI
   Bernardo de Souza      : ESD, SOC TD-DFT
   Georgi Stoychev        : AutoAux, RI-MP2 NMR, DLPNO-MP2 response, X2C
   Van Anh Tran           : RI-MP2 g-tensors
   Willem Van den Heuvel  : Paramagnetic NMR
   Zikuan Wang            : NOTCH, Electric field optimization 
   Frank Wennmohs         : Technical directorship and infrastructure
   Hang Xu                : AUTO-CI-Response properties 


 We gratefully acknowledge several colleagues who have allowed us to
 interface, adapt or use parts of their codes:
   Stefan Grimme, W. Hujo, H. Kruse, P. Pracht,  : VdW corrections, initial TS optimization,
                  C. Bannwarth, S. Ehlert,         DFT functionals, gCP, sTDA/sTD-DF
                  L. Wittmann, M. Mueller
   Ed Valeev, F. Pavosevic, A. Kumar             : LibInt (2-el integral package), F12 methods
   Garnet Chan, S. Sharma, J. Yang, R. Olivares  : DMRG
   Ulf Ekstrom                                   : XCFun DFT Library
   Mihaly Kallay                                 : mrcc  (arbitrary order and MRCC methods)
   Frank Weinhold                                : gennbo (NPA and NBO analysis)
   Simon Mueller                                 : openCOSMO-RS
   Christopher J. Cramer and Donald G. Truhlar   : smd solvation model
   Lars Goerigk                                  : TD-DFT with DH, B97 family of functionals
   V. Asgeirsson, H. Jonsson                     : NEB implementation
   FAccTs GmbH                                   : IRC, NEB, NEB-TS, DLPNO-Multilevel, CI-OPT
                                                   MM, QMMM, 2- and 3-layer-ONIOM, Crystal-QMMM,
                                                   LR-CPCM, SF, NACMEs, symmetry and pop. for TD-DFT,
                                                   nearIR, NL-DFT gradient (VV10), updates on ESD,
                                                   ML-optimized integration grids, MBIS, APM,
                                                   GOAT, DOCKER, SOLVATOR, interface openCOSMO-RS
   S Lehtola, MJT Oliveira, MAL Marques          : LibXC Library
   Liviu Ungur et al                             : ANISO software


 Your calculation uses the libint2 library for the computation of 2-el integrals
 For citations please refer to: http://libint.valeyev.net

 Your ORCA version has been built with support for libXC version: 6.2.2
 For citations please refer to: https://libxc.gitlab.io

 This ORCA versions uses:
   CBLAS   interface :  Fast vector & matrix operations
   LAPACKE interface :  Fast linear algebra routines
   SCALAPACK package :  Parallel linear algebra routines
   Shared memory     :  Shared parallel matrices
   BLAS/LAPACK       :  OpenBLAS 0.3.27  USE64BITINT DYNAMIC_ARCH NO_AFFINITY SkylakeX SINGLE_THREADED
        Core in use  :  SkylakeX
   Copyright (c) 2011-2014, The OpenBLAS Project


Your calculation utilizes the geometrical counterpoise correction gCP
Please cite in your paper:
H.Kruse, S. Grimme J.Chem.Phys., 136, (2012), 154101 
   

Your calculation utilizes the atom-pairwise dispersion correction
based on EEQ partial charges (D4)


Your calculation utilizes the SMD solvation module
Please cite in your paper:
A.V. Marenich, C.J. Cramer, D.G. Truhlar J. Phys. Chem. B, 113, (2009), 6378 

================================================================================

----- Orbital basis set information -----
Your calculation utilizes the basis: def2-mTZVPP
   Stefan Grimme, Andreas Hansen, Sebastian Ehlert, and Jan-Michael Mewes 
   J. Chem. Phys. 154, 064103 (2021). DOI: 10.1063/5.0040021

----- AuxJ basis set information -----
Your calculation utilizes the auxiliary basis: def2/J
   F. Weigend, Phys. Chem. Chem. Phys. 8, 1057 (2006).

================================================================================
                                        WARNINGS
                       Please study these warnings very carefully!
================================================================================

Using LibXC functional ID 497 : Re-regularized SCAN exchange by Furness et al
[ 1]  J. W. Furness, A. D. Kaplan, J. Ning, J. P. Perdew, and J. Sun.,  J. Phys. Chem. Lett. 11, 8208-8215 (2020)
[ 2]  J. W. Furness, A. D. Kaplan, J. Ning, J. P. Perdew, and J. Sun.,  J. Phys. Chem. Lett. 11, 9248-9248 (2020)
Using LibXC functional ID 498 : Re-regularized SCAN correlation by Furness et al
[ 1]  J. W. Furness, A. D. Kaplan, J. Ning, J. P. Perdew, and J. Sun.,  J. Phys. Chem. Lett. 11, 8208-8215 (2020)
[ 2]  J. W. Furness, A. D. Kaplan, J. Ning, J. P. Perdew, and J. Sun.,  J. Phys. Chem. Lett. 11, 9248-9248 (2020)
Using LibXC functional ID 497 : Re-regularized SCAN exchange by Furness et al
[ 1]  J. W. Furness, A. D. Kaplan, J. Ning, J. P. Perdew, and J. Sun.,  J. Phys. Chem. Lett. 11, 8208-8215 (2020)
[ 2]  J. W. Furness, A. D. Kaplan, J. Ning, J. P. Perdew, and J. Sun.,  J. Phys. Chem. Lett. 11, 9248-9248 (2020)
Using LibXC functional ID 498 : Re-regularized SCAN correlation by Furness et al
[ 1]  J. W. Furness, A. D. Kaplan, J. Ning, J. P. Perdew, and J. Sun.,  J. Phys. Chem. Lett. 11, 8208-8215 (2020)
[ 2]  J. W. Furness, A. D. Kaplan, J. Ning, J. P. Perdew, and J. Sun.,  J. Phys. Chem. Lett. 11, 9248-9248 (2020)

================================================================================
                                       INPUT FILE
================================================================================
NAME = sp_solv.inp
|  1> ! r2scan-3c def2/J RI DEFGRID2 scfconv6 printgap
|  2> %output
|  3>     printlevel normal
|  4> end
|  5> %cpcm
|  6>     smd true
|  7>     smdsolvent "water"
|  8> end
|  9> * xyz 0 1
| 10> C 1.8846995022 -0.1775723573 -1.2471033761
| 11> C 1.0306467489 -0.208255822 0.0212320645
| 12> C 1.8805893961 0.0841111216 1.2586742891
| 13> O 0.0056744022 0.7842042442 -0.0846315644
| 14> C -1.3515676218 0.3619314694 -0.0387271705
| 15> C -1.7358422037 -0.54162557 -1.2133910088
| 16> C -1.7345631545 -0.2729616186 1.3006752496
| 17> H 1.2761086853 -0.4062809897 -2.1180029222
| 18> H 2.3094385355 0.8145828513 -1.3738571727
| 19> H 2.6876720697 -0.9050329654 -1.17397346
| 20> H 0.5803106208 -1.2021457927 0.1242155164
| 21> H 2.3039989522 1.081791185 1.1797718454
| 22> H 2.68448248 -0.6415893244 1.3390236985
| 23> H 1.2695757488 0.0385034303 2.1563001676
| 24> H -1.8870630412 1.3142540418 -0.1402787878
| 25> H -2.8116251346 -0.6884990894 -1.2187457279
| 26> H -1.4390808959 -0.0762497631 -2.1500739908
| 27> H -1.2538556753 -1.5133819771 -1.1363396953
| 28> H -1.2518719998 -1.2387126653 1.4304911719
| 29> H -2.8102153247 -0.4160594895 1.3377849421
| 30> H -1.4376672883 0.3801183355 2.1175694411
| 31> *
| 32> 
| 33>                          ****END OF INPUT****
================================================================================

                       ****************************
                       * Single Point Calculation *
                       ****************************

---------------------------------
CARTESIAN COORDINATES (ANGSTROEM)
---------------------------------
  C      1.884700   -0.177572   -1.247103
  C      1.030647   -0.208256    0.021232
  C      1.880589    0.084111    1.258674
  O      0.005674    0.784204   -0.084632
  C     -1.351568    0.361931   -0.038727
  C     -1.735842   -0.541626   -1.213391
  C     -1.734563   -0.272962    1.300675
  H      1.276109   -0.406281   -2.118003
  H      2.309439    0.814583   -1.373857
  H      2.687672   -0.905033   -1.173973
  H      0.580311   -1.202146    0.124216
  H      2.303999    1.081791    1.179772
  H      2.684482   -0.641589    1.339024
  H      1.269576    0.038503    2.156300
  H     -1.887063    1.314254   -0.140279
  H     -2.811625   -0.688499   -1.218746
  H     -1.439081   -0.076250   -2.150074
  H     -1.253856   -1.513382   -1.136340
  H     -1.251872   -1.238713    1.430491
  H     -2.810215   -0.416059    1.337785
  H     -1.437667    0.380118    2.117569

----------------------------
CARTESIAN COORDINATES (A.U.)
----------------------------
  NO LB      ZA    FRAG     MASS         X           Y           Z
   0 C     6.0000    0    12.011    3.561566   -0.335563   -2.356684
   1 C     6.0000    0    12.011    1.947640   -0.393546    0.040123
   2 C     6.0000    0    12.011    3.553799    0.158947    2.378550
   3 O     8.0000    0    15.999    0.010723    1.481931   -0.159930
   4 C     6.0000    0    12.011   -2.554093    0.683951   -0.073184
   5 C     6.0000    0    12.011   -3.280266   -1.023524   -2.292977
   6 C     6.0000    0    12.011   -3.277849   -0.515823    2.457920
   7 H     1.0000    0     1.008    2.411496   -0.767760   -4.002445
   8 H     1.0000    0     1.008    4.364206    1.539339   -2.596214
   9 H     1.0000    0     1.008    5.078964   -1.710264   -2.218488
  10 H     1.0000    0     1.008    1.096628   -2.271726    0.234733
  11 H     1.0000    0     1.008    4.353927    2.044289    2.229446
  12 H     1.0000    0     1.008    5.072937   -1.212428    2.530388
  13 H     1.0000    0     1.008    2.399150    0.072761    4.074817
  14 H     1.0000    0     1.008   -3.566032    2.483580   -0.265088
  15 H     1.0000    0     1.008   -5.313201   -1.301075   -2.303096
  16 H     1.0000    0     1.008   -2.719469   -0.144091   -4.063051
  17 H     1.0000    0     1.008   -2.369444   -2.859877   -2.147371
  18 H     1.0000    0     1.008   -2.365695   -2.340828    2.703237
  19 H     1.0000    0     1.008   -5.310537   -0.786238    2.528047
  20 H     1.0000    0     1.008   -2.716797    0.718320    4.001626

--------------------------------
INTERNAL COORDINATES (ANGSTROEM)
--------------------------------
 C      0   0   0     0.000000000000     0.00000000     0.00000000
 C      1   0   0     1.529386272433     0.00000000     0.00000000
 C      2   1   0     1.529426099052   110.90485738     0.00000000
 O      2   1   3     1.430647546542   108.95321534   119.96500875
 C      4   2   1     1.422155906161   118.38336131   119.62087868
 C      5   4   2     1.530985764386   112.95540657   296.24306484
 C      5   4   2     1.530938814659   112.96247372    63.72122168
 H      1   2   3     1.086810213582   110.34214454   178.84906152
 H      1   2   3     1.086665417372   109.47054690   298.20800982
 H      1   2   3     1.085961263178   110.09772215    58.37976911
 H      2   1   3     1.096004330966   109.00008924   239.98516223
 H      3   2   1     1.086676933005   109.46858576    61.87836661
 H      3   2   1     1.085974794946   110.09005675   301.71247197
 H      3   2   1     1.086807230582   110.35241794   181.24340345
 H      5   4   2     1.097263121169   101.83314105   179.98695889
 H      6   5   4     1.085775952088   109.40879540   189.73548243
 H      6   5   4     1.087206017378   109.87055123   309.25476856
 H      6   5   4     1.087455025834   111.20929961    69.79617010
 H      7   5   4     1.087436438929   111.20456901   290.25445331
 H      7   5   4     1.085763197566   109.41447592   170.31416396
 H      7   5   4     1.087187519207   109.87329943    50.79468467

---------------------------
INTERNAL COORDINATES (A.U.)
---------------------------
 C      0   0   0     0.000000000000     0.00000000     0.00000000
 C      1   0   0     2.890121207878     0.00000000     0.00000000
 C      2   1   0     2.890196469280   110.90485738     0.00000000
 O      2   1   3     2.703532057130   108.95321534   119.96500875
 C      4   2   1     2.687485182383   118.38336131   119.62087868
 C      5   4   2     2.893143809622   112.95540657   296.24306484
 C      5   4   2     2.893055087495   112.96247372    63.72122168
 H      1   2   3     2.053773663219   110.34214454   178.84906152
 H      1   2   3     2.053500038037   109.47054690   298.20800982
 H      1   2   3     2.052169379454   110.09772215    58.37976911
 H      2   1   3     2.071148027117   109.00008924   239.98516223
 H      3   2   1     2.053521799428   109.46858576    61.87836661
 H      3   2   1     2.052194950789   110.09005675   301.71247197
 H      3   2   1     2.053768026166   110.35241794   181.24340345
 H      5   4   2     2.073526795861   101.83314105   179.98695889
 H      6   5   4     2.051819192245   109.40879540   189.73548243
 H      6   5   4     2.054521623996   109.87055123   309.25476856
 H      6   5   4     2.054992181782   111.20929961    69.79617010
 H      7   5   4     2.054957057622   111.20456901   290.25445331
 H      7   5   4     2.051795089691   109.41447592   170.31416396
 H      7   5   4     2.054486667519   109.87329943    50.79468467

---------------------
BASIS SET INFORMATION
---------------------
There are 3 groups of distinct atoms

 Group   1 Type C   : 11s6p1d contracted to 5s3p1d pattern {62111/411/1}
 Group   2 Type O   : 11s6p2d contracted to 5s3p2d pattern {62111/411/11}
 Group   3 Type H   : 4s1p contracted to 2s1p pattern {31/1}

Atom   0C    basis set group =>   1
Atom   1C    basis set group =>   1
Atom   2C    basis set group =>   1
Atom   3O    basis set group =>   2
Atom   4C    basis set group =>   1
Atom   5C    basis set group =>   1
Atom   6C    basis set group =>   1
Atom   7H    basis set group =>   3
Atom   8H    basis set group =>   3
Atom   9H    basis set group =>   3
Atom  10H    basis set group =>   3
Atom  11H    basis set group =>   3
Atom  12H    basis set group =>   3
Atom  13H    basis set group =>   3
Atom  14H    basis set group =>   3
Atom  15H    basis set group =>   3
Atom  16H    basis set group =>   3
Atom  17H    basis set group =>   3
Atom  18H    basis set group =>   3
Atom  19H    basis set group =>   3
Atom  20H    basis set group =>   3
---------------------------------
AUXILIARY/J BASIS SET INFORMATION
---------------------------------
There are 3 groups of distinct atoms

 Group   1 Type C   : 12s5p4d2f1g contracted to 6s4p3d1f1g pattern {711111/2111/211/2/1}
 Group   2 Type O   : 12s5p4d2f1g contracted to 6s4p3d1f1g pattern {711111/2111/211/2/1}
 Group   3 Type H   : 5s2p1d contracted to 3s1p1d pattern {311/2/1}

Atom   0C    basis set group =>   1
Atom   1C    basis set group =>   1
Atom   2C    basis set group =>   1
Atom   3O    basis set group =>   2
Atom   4C    basis set group =>   1
Atom   5C    basis set group =>   1
Atom   6C    basis set group =>   1
Atom   7H    basis set group =>   3
Atom   8H    basis set group =>   3
Atom   9H    basis set group =>   3
Atom  10H    basis set group =>   3
Atom  11H    basis set group =>   3
Atom  12H    basis set group =>   3
Atom  13H    basis set group =>   3
Atom  14H    basis set group =>   3
Atom  15H    basis set group =>   3
Atom  16H    basis set group =>   3
Atom  17H    basis set group =>   3
Atom  18H    basis set group =>   3
Atom  19H    basis set group =>   3
Atom  20H    basis set group =>   3

Checking for AutoStart:
The File: sp_solv.gbw exists
Trying to determine its content:
     ... Fine, the file contains calculation information
     ... Fine, the calculation information was read
     ... Fine, the file contains a basis set
     ... Fine, the basis set was read
     ... Fine, the file contains a geometry
     ... Fine, the geometry was read
     ... Fine, the file contains a set of orbitals
     ... Fine, the orbitals can be read
     => possible old guess file was deleted
     => GBW file was renamed to GES file
     => GES file is set as startup file
     => Guess is set to MORead
     ... now leaving AutoStart

------------------------------------------------------------------------------
                             ORCA STARTUP CALCULATIONS
                           -- RI-GTO INTEGRALS CHOSEN --
------------------------------------------------------------------------------
------------------------------------------------------------------------------
                   ___                                                        
                  /   \      - P O W E R E D   B Y -                         
                 /     \                                                     
                 |  |  |   _    _      __       _____    __    __             
                 |  |  |  | |  | |    /  \     |  _  \  |  |  /  |          
                  \  \/   | |  | |   /    \    | | | |  |  | /  /          
                 / \  \   | |__| |  /  /\  \   | |_| |  |  |/  /          
                |  |  |   |  __  | /  /__\  \  |    /   |      \           
                |  |  |   | |  | | |   __   |  |    \   |  |\   \          
                \     /   | |  | | |  |  |  |  | |\  \  |  | \   \       
                 \___/    |_|  |_| |__|  |__|  |_| \__\ |__|  \__/        
                                                                              
                      - O R C A' S   B I G   F R I E N D -                    
                                      &                                       
                       - I N T E G R A L  F E E D E R -                       
                                                                              
 v1 FN, 2020, v2 2021, v3 2022-2024                                           
------------------------------------------------------------------------------


----------------------
SHARK INTEGRAL PACKAGE
----------------------

Number of atoms                             ...     21
Number of basis functions                   ...    208
Number of shells                            ...    106
Maximum angular momentum                    ...      2
Integral batch strategy                     ... SHARK/LIBINT Hybrid
RI-J (if used) integral strategy            ... SPLIT-RIJ (Revised 2003 algorithm where possible)
Printlevel                                  ...      1
Contraction scheme used                     ... SEGMENTED contraction
Prescreening option                         ... SCHWARTZ
   Thresh                                   ... 1.000e-10
   Tcut                                     ... 1.000e-11
   Tpresel                                  ... 1.000e-11 
Coulomb Range Separation                    ... NOT USED
Exchange Range Separation                   ... NOT USED
Multipole approximations                    ... NOT USED
Finite Nucleus Model                        ... NOT USED
CABS basis                                  ... NOT available
Auxiliary Coulomb fitting basis             ... AVAILABLE
   # of basis functions in Aux-J            ...    497
   # of shells in Aux-J                     ...    175
   Maximum angular momentum in Aux-J        ...      4
Auxiliary J/K fitting basis                 ... NOT available
Auxiliary Correlation fitting basis         ... NOT available
Auxiliary 'external' fitting basis          ... NOT available

Checking pre-screening integrals            ... done (  0.0 sec) Dimension = 106
Check shell pair data                       ... done (  0.0 sec)
Shell pair information
Shell pair cut-off parameter TPreSel        ...   1.0e-11
Total number of shell pairs                 ...      5671
Shell pairs after pre-screening             ...      5196
Total number of primitive shell pairs       ...     19699
Primitive shell pairs kept                  ...     12992
          la=0 lb=0:   1838 shell pairs
          la=1 lb=0:   2009 shell pairs
          la=1 lb=1:    572 shell pairs
          la=2 lb=0:    475 shell pairs
          la=2 lb=1:    266 shell pairs
          la=2 lb=2:     36 shell pairs

Calculating one electron integrals          ... done (  0.0 sec)
Calculating RI/J V-Matrix + Cholesky decomp.... done (  0.1 sec)
Calculating Nuclear repulsion               ... done (  0.0 sec) ENN=    341.156022975396 Eh

Diagonalization of the overlap matrix:
Smallest eigenvalue                        ... 3.020e-04
Time for diagonalization                   ...    0.003 sec
Threshold for overlap eigenvalues          ... 1.000e-07
Number of eigenvalues below threshold      ... 0
Time for construction of square roots      ...    0.016 sec
Total time needed                          ...    0.029 sec

-------------------
DFT GRID GENERATION
-------------------

General Integration Accuracy     IntAcc      ... 4.388
Radial Grid Type                 RadialGrid  ... OptM3 with GC (2021)
Angular Grid (max. ang.)         AngularGrid ... 4 (Lebedev-302)
Angular grid pruning method      GridPruning ... 4 (adaptive)
Weight generation scheme         WeightScheme... mBecke (2022)
Basis function cutoff            BFCut       ... 1.0000e-10
Integration weight cutoff        WCut        ... 1.0000e-14
Partially contracted basis set               ... off
Rotationally invariant grid construction     ... off
Angular grids for H and He will be reduced by one unit
Diffuse basis detected: some atoms will have their outermost
                        angular grid increased by 1.

Total number of grid points                  ...    87081
Total number of batches                      ...     1372
Average number of points per batch           ...       63
Average number of grid points per atom       ...     4147
Initializing property integral containers    ... done (  0.0 sec)

SHARK setup successfully completed in   1.1 seconds

Maximum memory used throughout the entire STARTUP-calculation: 38.9 MB
-------------------------------------------------------------------------------
                                 ORCA GUESS
                   Start orbitals & Density for SCF / CASSCF
-------------------------------------------------------------------------------

------------
SCF SETTINGS
------------
Hamiltonian:
 Density Functional     Method          .... DFT(GTOs)
  Functional kind                       .... Exchange
  Functional name                       .... Re-regularized SCAN exchange by Furness et al
  Functional family                     .... MGGA
  Functional refs                              
    [ 0] J. W. Furness, A. D. Kaplan, J. Ning, J. P. Perdew, and J. Sun.,  J. Phys. Chem. Lett. 11, 8208-8215 (2020), doi: 10.1021/acs.jpclett.0c02405
    [ 1] J. W. Furness, A. D. Kaplan, J. Ning, J. P. Perdew, and J. Sun.,  J. Phys. Chem. Lett. 11, 9248-9248 (2020), doi: 10.1021/acs.jpclett.0c03077
  Functional external parameters        .... 6
    Parameter  0 _c1        =  6.670000e-01 : c1 parameter        
    Parameter  1 _c2        =  8.000000e-01 : c2 parameter        
    Parameter  2 _d         =  1.240000e+00 : d parameter         
    Parameter  3 _k1        =  6.500000e-02 : k1 parameter        
    Parameter  4 _eta       =  1.000000e-03 : eta parameter       
    Parameter  5 _dp2       =  3.610000e-01 : dp2 parameter       
  Functional kind                       .... Correlation
  Functional name                       .... Re-regularized SCAN correlation by Furness et al
  Functional family                     .... MGGA
  Functional refs                              
    [ 0] J. W. Furness, A. D. Kaplan, J. Ning, J. P. Perdew, and J. Sun.,  J. Phys. Chem. Lett. 11, 8208-8215 (2020), doi: 10.1021/acs.jpclett.0c02405
    [ 1] J. W. Furness, A. D. Kaplan, J. Ning, J. P. Perdew, and J. Sun.,  J. Phys. Chem. Lett. 11, 9248-9248 (2020), doi: 10.1021/acs.jpclett.0c03077
  Functional external parameters        .... 1
    Parameter  0 _eta       =  1.000000e-03 : Regularization parameter
 Gradients option       PostSCFGGA      .... off
 RI-approximation to the Coulomb term is turned on
   Number of AuxJ basis functions       .... 497


General Settings:
 Integral files         IntName         .... sp_solv
 Hartree-Fock type      HFTyp           .... RHF
 Total Charge           Charge          ....    0
 Multiplicity           Mult            ....    1
 Number of Electrons    NEL             ....   58
 Basis Dimension        Dim             ....  208
 Nuclear Repulsion      ENuc            ....    341.1560229754 Eh

Convergence Acceleration:
 AO-DIIS                CNVDIIS         .... on
   Start iteration      DIISMaxIt       ....    12
   Startup error        DIISStart       ....  0.200000
   # of expansion vecs  DIISMaxEq       ....     5
   Bias factor          DIISBfac        ....   1.050
   Max. coefficient     DIISMaxC        ....  10.000
 MO-DIIS                CNVKDIIS        .... off
 Trust-Rad. Augm. Hess. CNVTRAH         .... auto
   Auto Start mean grad. ratio tolernc. ....  1.125000
   Auto Start start iteration           ....     1
   Auto Start num. interpolation iter.  ....    10
   Max. Number of Micro iterations      ....    24
   Max. Number of Macro iterations      .... Maxiter - #DIIS iter
   Number of Davidson start vectors     ....     2
   Converg. threshold    (grad. norm)   ....   3.330e-04
   Grad. Scal. Fac. for Micro threshold ....   0.100
   Minimum threshold for Micro iter.    ....   1.000e-02
   NR start threshold (gradient norm)   ....   1.000e-04
   Initial trust radius                 ....   0.400
   Minimum AH scaling param. (alpha)    ....   1.000
   Maximum AH scaling param. (alpha)    .... 1000.000
   Quad. conv. algorithm                .... NR
   White noise on init. David. guess    .... on
   Maximum white noise                  ....   0.010
   Pseudo random numbers                .... off
   Inactive MOs                         .... canonical
   Orbital update algorithm             .... Taylor
   Preconditioner                       .... Diag
   Full preconditioner red. dimension   ....   250
   COSX micro iterations for RIJONX calc.... off
 SOSCF                  CNVSOSCF        .... on
   Start iteration      SOSCFMaxIt      ....   150
   Startup grad/error   SOSCFStart      ....  0.003300
   Hessian update       SOSCFHessUp     .... L-BFGS
 Level Shifting         CNVShift        .... on
   Level shift para.    LevelShift      ....    0.2500
   Turn off err/grad.   ShiftErr        ....    0.0010
 Zerner damping         CNVZerner       .... off
 Static damping         CNVDamp         .... on
   Fraction old density DampFac         ....    0.7000
   Max. Damping (<1)    DampMax         ....    0.9800
   Min. Damping (>=0)   DampMin         ....    0.0000
   Turn off err/grad.   DampErr         ....    0.1000

SCF Procedure:
 Maximum # iterations   MaxIter         ....   125
 SCF integral mode      SCFMode         .... Direct
   Integral package                     .... SHARK and LIBINT hybrid scheme
 Reset frequency        DirectResetFreq ....    20
 Integral Threshold     Thresh          ....  1.000e-10 Eh
 Primitive CutOff       TCut            ....  1.000e-11 Eh

Convergence Tolerance:
 Convergence Check Mode ConvCheckMode   .... Total+1el-Energy
 Convergence forced     ConvForced      .... 0
 Energy Change          TolE            ....  1.000e-06 Eh
 1-El. energy change                    ....  1.000e-03 Eh
 Orbital Gradient       TolG            ....  3.330e-04
 Orbital Rotation angle TolX            ....  3.330e-04
 DIIS Error             TolErr          ....  1.000e-06

---------------------
INITIAL GUESS: MOREAD
---------------------
Guess MOs are being read from file: sp_solv.ges
Input Geometry matches current geometry (good)
Atom 0: N(Shells)= 9 and 6 - projection required
Input basis set needs projection
NBasis(read)= 126
NBasis(calc)= 208
Basis set overlap was calculated
Using GuessMode=FMatrix for the initial guess
C*T matrix was formed
Effective Fockian was calculated
Effective Fockian was diagonalized
Initial density was built
                      ------------------
                      INITIAL GUESS DONE (   0.1 sec)
                      ------------------
             **** ENERGY FILE WAS UPDATED (sp_solv.en.tmp) ****
Finished Guess after   0.3 sec
Maximum memory used throughout the entire GUESS-calculation: 14.4 MB

-------------------------------------------------------------------------------------------
                                      ORCA LEAN-SCF
                              memory conserving SCF solver
-------------------------------------------------------------------------------------------

--------------------
CPCM SOLVATION MODEL
--------------------
CPCM parameters:
  Epsilon                                         ...      78.3550
  Refrac                                          ...       1.3328
  Rsolv                                           ...       1.3000
  Surface type                                    ... GAUSSIAN VDW
  Discretization scheme                           ... Constant charge density
    Threshold for H atoms                         ...       5.0000 (charges/Ang^2)
    Threshold for non-H atoms                     ...       5.0000 (charges/Ang^2)
  Epsilon function type                           ...         CPCM
Solvent:                                          ... WATER
SMD-CDS solvent descriptors:
  Soln                                            ...       1.3328
  Soln25                                          ...       1.3323
  Sola                                            ...       0.0000
  Solb                                            ...       0.0000
  Solg                                            ...       0.0000
  Solc                                            ...       0.0000
  Solh                                            ...       0.0000
Radii:
  Scheme                                          ... Element-dependent radii
  Radius for C  used is    3.4960 Bohr (=   1.8500 Ang.)
  Radius for O  used is    2.8724 Bohr (=   1.5200 Ang.)
  Radius for H  used is    2.2677 Bohr (=   1.2000 Ang.)
Calculating surface                               ...        done! (  0.0s)
Cavity surface points                             ...         1557
Cavity Volume                                     ...     864.1903
Cavity Surface-area                               ...     573.5841
Calculating surface distance matrix               ...        done! (  0.0s)
Performing Cholesky decomposition & store         ...        done! (  0.1s)
Overall time for CPCM initialization              ...                 0.1s

----------------------------------------D-I-I-S--------------------------------------------
Iteration    Energy (Eh)           Delta-E    RMSDP     MaxDP     DIISErr   Damp  Time(sec)
-------------------------------------------------------------------------------------------
               ***  Starting incremental Fock matrix formation  ***
    1    -312.0375507594231408     0.00e+00  3.24e-03  8.43e-02  6.25e-01  0.700   2.8
    2    -312.0880033465129486    -5.05e-02  2.72e-03  6.94e-02  4.40e-01  0.700   2.6
    3    -312.1237497367714582    -3.57e-02  2.03e-03  5.08e-02  3.09e-01  0.700   2.5
    4    -312.1488756396919939    -2.51e-02  1.47e-03  3.62e-02  2.16e-01  0.700   2.5
                               ***Turning on AO-DIIS***
    5    -312.1665167777437659    -1.76e-02  1.08e-03  2.59e-02  1.51e-01  0.700   2.5
    6    -312.1788911640010724    -1.24e-02  7.78e-04  1.82e-02  1.05e-01  0.700   2.4
    7    -312.1875724507546579    -8.68e-03  5.53e-04  1.28e-02  7.39e-02  0.700   2.4
    8    -312.1936577855032624    -6.09e-03  1.30e-03  3.00e-02  5.19e-02  0.000   2.3
                              *** Initializing SOSCF ***
---------------------------------------S-O-S-C-F--------------------------------------
Iteration    Energy (Eh)           Delta-E    RMSDP     MaxDP     MaxGrad    Time(sec)
--------------------------------------------------------------------------------------
    9    -312.2078865292801879    -1.42e-02  1.54e-05  5.04e-04  1.28e-04     2.5
               *** Restarting incremental Fock matrix formation ***
   10    -312.2078866204463452    -9.12e-08  7.40e-06  1.99e-04  2.43e-05     2.8
                  *** Gradient check signals convergence ***

               *****************************************************
               *                     SUCCESS                       *
               *           SCF CONVERGED AFTER  10 CYCLES          *
               *****************************************************


SMD CDS free energy correction energy :                 3.95430     Kcal/mol
Total Energy after SMD CDS correction =              -312.201585037 Eh
             **** ENERGY FILE WAS UPDATED (sp_solv.en.tmp) ****

----------------
TOTAL SCF ENERGY
----------------

Total Energy       :       -312.20158503723025 Eh           -8495.43703 eV

Components:
Nuclear Repulsion  :        341.15602297539641 Eh            9283.32734 eV
Electronic Energy  :       -653.35321668506526 Eh          -17778.64487 eV
One Electron Energy:      -1098.12925994660145 Eh          -29881.61632 eV
Two Electron Energy:        444.77604326153619 Eh           12102.97144 eV
CPCM Dielectric    :         -0.01069291077752 Eh              -0.29097 eV
SMD CDS (Gcds)     :          0.00630158321612 Eh               0.17147 eV

Virial components:
Potential Energy   :       -622.97363375306179 Eh          -16951.97440 eV
Kinetic Energy     :        310.77204871583154 Eh            8456.53737 eV
Virial Ratio       :          2.00459995140266

DFT components:
N(Alpha)           :       28.999919242134 electrons
N(Beta)            :       28.999919242134 electrons
N(Total)           :       57.999838484268 electrons
E(X)               :      -44.493763334488 Eh       
E(C)               :       -1.808573048173 Eh       
E(XC)              :      -46.302336382661 Eh       

CPCM Solvation Model Properties:
Surface-charge          :         -0.04857122848283
Corrected charge        :          0.00000000000000
Outlying charge corr.   :          0.00018397540100 Eh               0.00501 eV
Free-energy (cav+disp)  :          0.00630158321612 Eh               0.17147 eV

---------------
SCF CONVERGENCE
---------------

  Last Energy change         ...    9.1166e-08  Tolerance :   1.0000e-06
  Last MAX-Density change    ...    1.9875e-04  Tolerance :   1.0000e-05
  Last RMS-Density change    ...    7.3995e-06  Tolerance :   1.0000e-06
  Last DIIS Error            ...    1.2817e-04  Tolerance :   1.0000e-06
  Last Orbital Gradient      ...    2.4290e-05  Tolerance :   3.3300e-04
  Last Orbital Rotation      ...    4.9303e-05  Tolerance :   3.3300e-04


----------------
ORBITAL ENERGIES
----------------

  NO   OCC          E(Eh)            E(eV) 
   0   2.0000     -18.945309      -515.5281 
   1   2.0000     -10.077082      -274.2113 
   2   2.0000     -10.074494      -274.1409 
   3   2.0000     -10.009142      -272.3626 
   4   2.0000     -10.009117      -272.3619 
   5   2.0000     -10.008543      -272.3463 
   6   2.0000     -10.008537      -272.3461 
   7   2.0000      -0.989735       -26.9321 
   8   2.0000      -0.755058       -20.5462 
   9   2.0000      -0.712021       -19.3751 
  10   2.0000      -0.652037       -17.7428 
  11   2.0000      -0.643215       -17.5028 
  12   2.0000      -0.578958       -15.7542 
  13   2.0000      -0.512685       -13.9509 
  14   2.0000      -0.462162       -12.5761 
  15   2.0000      -0.426423       -11.6036 
  16   2.0000      -0.405190       -11.0258 
  17   2.0000      -0.397752       -10.8234 
  18   2.0000      -0.378679       -10.3044 
  19   2.0000      -0.366370        -9.9694 
  20   2.0000      -0.348858        -9.4929 
  21   2.0000      -0.346268        -9.4224 
  22   2.0000      -0.345254        -9.3948 
  23   2.0000      -0.328910        -8.9501 
  24   2.0000      -0.322886        -8.7862 
  25   2.0000      -0.302096        -8.2205 
  26   2.0000      -0.298698        -8.1280 
  27   2.0000      -0.262148        -7.1334 
  28   2.0000      -0.216587        -5.8936 
  29   0.0000       0.085957         2.3390 
  30   0.0000       0.100345         2.7305 
  31   0.0000       0.124465         3.3869 
  32   0.0000       0.127623         3.4728 
  33   0.0000       0.131830         3.5873 
  34   0.0000       0.141871         3.8605 
  35   0.0000       0.145099         3.9484 
  36   0.0000       0.149963         4.0807 
  37   0.0000       0.159115         4.3298 
  38   0.0000       0.166126         4.5205 
  39   0.0000       0.166765         4.5379 
*Only the first 10 virtual orbitals were printed.

                    ********************************
                    * MULLIKEN POPULATION ANALYSIS *
                    ********************************

-----------------------
MULLIKEN ATOMIC CHARGES
-----------------------
   0 C :   -0.531845
   1 C :    0.077654
   2 C :   -0.531905
   3 O :   -0.275784
   4 C :   -0.012839
   5 C :   -0.501323
   6 C :   -0.501765
   7 H :    0.161942
   8 H :    0.164503
   9 H :    0.162221
  10 H :    0.159987
  11 H :    0.164478
  12 H :    0.162106
  13 H :    0.162154
  14 H :    0.156873
  15 H :    0.163294
  16 H :    0.163745
  17 H :    0.164638
  18 H :    0.164911
  19 H :    0.163227
  20 H :    0.163725
Sum of atomic charges:   -0.0000000

--------------------------------
MULLIKEN REDUCED ORBITAL CHARGES
--------------------------------
  0 C s       :     3.372285  s :     3.372285
      pz      :     0.988209  p :     3.133743
      px      :     1.049279
      py      :     1.096255
      dz2     :     0.007069  d :     0.025816
      dxz     :     0.007423
      dyz     :     0.002111
      dx2y2   :     0.002635
      dxy     :     0.006579

  1 C s       :     3.184566  s :     3.184566
      pz      :     0.887580  p :     2.672446
      px      :     0.843245
      py      :     0.941621
      dz2     :     0.013608  d :     0.065334
      dxz     :     0.017143
      dyz     :     0.007988
      dx2y2   :     0.010358
      dxy     :     0.016236

  2 C s       :     3.372309  s :     3.372309
      pz      :     0.995891  p :     3.133784
      px      :     1.049661
      py      :     1.088232
      dz2     :     0.007497  d :     0.025813
      dxz     :     0.007326
      dyz     :     0.001526
      dx2y2   :     0.002802
      dxy     :     0.006661

  3 O s       :     3.734202  s :     3.734202
      pz      :     1.888230  p :     4.525289
      px      :     1.081343
      py      :     1.555715
      dz2     :     0.010499  d :     0.016294
      dxz     :     0.004336
      dyz     :     0.000243
      dx2y2   :    -0.000534
      dxy     :     0.001750

  4 C s       :     3.190870  s :     3.190870
      pz      :     0.934675  p :     2.754517
      px      :     0.764092
      py      :     1.055750
      dz2     :     0.013858  d :     0.067452
      dxz     :     0.014670
      dyz     :     0.011180
      dx2y2   :     0.013156
      dxy     :     0.014588

  5 C s       :     3.324623  s :     3.324623
      pz      :     1.011354  p :     3.151224
      px      :     1.098876
      py      :     1.040994
      dz2     :     0.007445  d :     0.025476
      dxz     :     0.002254
      dyz     :     0.006085
      dx2y2   :     0.006045
      dxy     :     0.003647

  6 C s       :     3.324933  s :     3.324933
      pz      :     0.982152  p :     3.151355
      px      :     1.099088
      py      :     1.070114
      dz2     :     0.007003  d :     0.025477
      dxz     :     0.002586
      dyz     :     0.006971
      dx2y2   :     0.005597
      dxy     :     0.003319

  7 H s       :     0.819746  s :     0.819746
      pz      :     0.008507  p :     0.018312
      px      :     0.005831
      py      :     0.003974

  8 H s       :     0.817196  s :     0.817196
      pz      :     0.003688  p :     0.018301
      px      :     0.004809
      py      :     0.009803

  9 H s       :     0.819354  s :     0.819354
      pz      :     0.003568  p :     0.018425
      px      :     0.007888
      py      :     0.006969

 10 H s       :     0.822282  s :     0.822282
      pz      :     0.003509  p :     0.017730
      px      :     0.004038
      py      :     0.010183

 11 H s       :     0.817221  s :     0.817221
      pz      :     0.003576  p :     0.018301
      px      :     0.004803
      py      :     0.009922

 12 H s       :     0.819467  s :     0.819467
      pz      :     0.003621  p :     0.018427
      px      :     0.007899
      py      :     0.006907

 13 H s       :     0.819535  s :     0.819535
      pz      :     0.008785  p :     0.018311
      px      :     0.005852
      py      :     0.003674

 14 H s       :     0.826170  s :     0.826170
      pz      :     0.003340  p :     0.016957
      px      :     0.004389
      py      :     0.009229

 15 H s       :     0.818206  s :     0.818206
      pz      :     0.003615  p :     0.018499
      px      :     0.011004
      py      :     0.003881

 16 H s       :     0.817994  s :     0.817994
      pz      :     0.009224  p :     0.018261
      px      :     0.004189
      py      :     0.004848

 17 H s       :     0.816888  s :     0.816888
      pz      :     0.003588  p :     0.018475
      px      :     0.005187
      py      :     0.009699

 18 H s       :     0.816616  s :     0.816616
      pz      :     0.003677  p :     0.018472
      px      :     0.005191
      py      :     0.009605

 19 H s       :     0.818273  s :     0.818273
      pz      :     0.003610  p :     0.018500
      px      :     0.011002
      py      :     0.003888

 20 H s       :     0.818011  s :     0.818011
      pz      :     0.007901  p :     0.018264
      px      :     0.004190
      py      :     0.006174


------------------------
MULLIKEN OVERLAP CHARGES
------------------------
B(  0-C ,  1-C ) :   0.5216 B(  0-C ,  2-C ) :  -0.1688 B(  0-C ,  3-O ) :  -0.0637 
B(  0-C ,  7-H ) :   0.8069 B(  0-C ,  8-H ) :   0.8623 B(  0-C ,  9-H ) :   0.8366 
B(  1-C ,  2-C ) :   0.5222 B(  1-C ,  3-O ) :   0.0941 B(  1-C ,  4-C ) :  -0.1878 
B(  1-C ,  7-H ) :  -0.0616 B(  1-C ,  8-H ) :  -0.0955 B(  1-C ,  9-H ) :  -0.0837 
B(  1-C , 10-H ) :   0.8033 B(  1-C , 11-H ) :  -0.0958 B(  1-C , 12-H ) :  -0.0836 
B(  1-C , 13-H ) :  -0.0613 B(  2-C ,  3-O ) :  -0.0639 B(  2-C , 11-H ) :   0.8627 
B(  2-C , 12-H ) :   0.8365 B(  2-C , 13-H ) :   0.8066 B(  3-O ,  4-C ) :   0.4380 
B(  3-O ,  5-C ) :  -0.1600 B(  3-O ,  6-C ) :  -0.1604 B(  3-O , 10-H ) :  -0.0914 
B(  3-O , 14-H ) :  -0.1367 B(  4-C ,  5-C ) :   0.5334 B(  4-C ,  6-C ) :   0.5294 
B(  4-C , 14-H ) :   0.8262 B(  4-C , 15-H ) :  -0.0643 B(  4-C , 16-H ) :  -0.0668 
B(  4-C , 17-H ) :  -0.0788 B(  4-C , 18-H ) :  -0.0795 B(  4-C , 19-H ) :  -0.0639 
B(  4-C , 20-H ) :  -0.0664 B(  5-C ,  6-C ) :  -0.2958 B(  5-C , 14-H ) :  -0.0549 
B(  5-C , 15-H ) :   0.7835 B(  5-C , 16-H ) :   0.7961 B(  5-C , 17-H ) :   0.8455 
B(  6-C , 14-H ) :  -0.0548 B(  6-C , 18-H ) :   0.8457 B(  6-C , 19-H ) :   0.7832 
B(  6-C , 20-H ) :   0.7958 


                     *******************************
                     * LOEWDIN POPULATION ANALYSIS *
                     *******************************

----------------------
LOEWDIN ATOMIC CHARGES
----------------------
   0 C :   -0.397572
   1 C :    0.053688
   2 C :   -0.397677
   3 O :   -0.801702
   4 C :    0.049284
   5 C :   -0.405036
   6 C :   -0.405053
   7 H :    0.159709
   8 H :    0.161284
   9 H :    0.162449
  10 H :    0.178318
  11 H :    0.161269
  12 H :    0.162438
  13 H :    0.159753
  14 H :    0.186309
  15 H :    0.164558
  16 H :    0.161379
  17 H :    0.160321
  18 H :    0.160405
  19 H :    0.164541
  20 H :    0.161336

-------------------------------
LOEWDIN REDUCED ORBITAL CHARGES
-------------------------------
  0 C s       :     2.975098  s :     2.975098
      pz      :     1.090027  p :     3.361915
      px      :     1.117261
      py      :     1.154627
      dz2     :     0.016592  d :     0.060559
      dxz     :     0.017031
      dyz     :     0.004230
      dx2y2   :     0.006223
      dxy     :     0.016482

  1 C s       :     2.834885  s :     2.834885
      pz      :     1.039616  p :     2.969849
      px      :     0.949241
      py      :     0.980993
      dz2     :     0.028072  d :     0.141578
      dxz     :     0.039718
      dyz     :     0.013067
      dx2y2   :     0.023970
      dxy     :     0.036751

  2 C s       :     2.975129  s :     2.975129
      pz      :     1.090546  p :     3.361995
      px      :     1.117560
      py      :     1.153889
      dz2     :     0.017407  d :     0.060553
      dxz     :     0.016800
      dyz     :     0.003013
      dx2y2   :     0.006659
      dxy     :     0.016674

  3 O s       :     3.491724  s :     3.491724
      pz      :     1.850400  p :     4.801033
      px      :     1.320304
      py      :     1.630329
      dz2     :     0.059145  d :     0.508945
      dxz     :     0.112318
      dyz     :     0.048525
      dx2y2   :     0.138886
      dxy     :     0.150072

  4 C s       :     2.836534  s :     2.836534
      pz      :     1.036553  p :     2.969296
      px      :     0.865202
      py      :     1.067541
      dz2     :     0.028244  d :     0.144886
      dxz     :     0.029383
      dyz     :     0.024638
      dx2y2   :     0.027845
      dxy     :     0.034775

  5 C s       :     2.973601  s :     2.973601
      pz      :     1.102092  p :     3.371305
      px      :     1.143357
      py      :     1.125856
      dz2     :     0.017613  d :     0.060130
      dxz     :     0.004841
      dyz     :     0.014167
      dx2y2   :     0.014754
      dxy     :     0.008756

  6 C s       :     2.973590  s :     2.973590
      pz      :     1.086136  p :     3.371327
      px      :     1.143442
      py      :     1.141749
      dz2     :     0.016532  d :     0.060135
      dxz     :     0.005418
      dyz     :     0.016098
      dx2y2   :     0.013896
      dxy     :     0.008192

  7 H s       :     0.796331  s :     0.796331
      pz      :     0.020894  p :     0.043960
      px      :     0.014172
      py      :     0.008894

  8 H s       :     0.794809  s :     0.794809
      pz      :     0.008311  p :     0.043908
      px      :     0.010959
      py      :     0.024638

  9 H s       :     0.793116  s :     0.793116
      pz      :     0.008180  p :     0.044435
      px      :     0.019297
      py      :     0.016957

 10 H s       :     0.779500  s :     0.779500
      pz      :     0.008507  p :     0.042182
      px      :     0.010347
      py      :     0.023328

 11 H s       :     0.794823  s :     0.794823
      pz      :     0.008103  p :     0.043908
      px      :     0.010942
      py      :     0.024863

 12 H s       :     0.793128  s :     0.793128
      pz      :     0.008251  p :     0.044434
      px      :     0.019320
      py      :     0.016862

 13 H s       :     0.796274  s :     0.796274
      pz      :     0.021593  p :     0.043973
      px      :     0.014226
      py      :     0.008153

 14 H s       :     0.774705  s :     0.774705
      pz      :     0.007767  p :     0.038986
      px      :     0.008665
      py      :     0.022554

 15 H s       :     0.790747  s :     0.790747
      pz      :     0.008252  p :     0.044695
      px      :     0.027633
      py      :     0.008810

 16 H s       :     0.794760  s :     0.794760
      pz      :     0.022764  p :     0.043861
      px      :     0.009483
      py      :     0.011614

 17 H s       :     0.795034  s :     0.795034
      pz      :     0.008251  p :     0.044645
      px      :     0.012273
      py      :     0.024120

 18 H s       :     0.794951  s :     0.794951
      pz      :     0.008468  p :     0.044644
      px      :     0.012282
      py      :     0.023894

 19 H s       :     0.790764  s :     0.790764
      pz      :     0.008333  p :     0.044694
      px      :     0.027627
      py      :     0.008734

 20 H s       :     0.794799  s :     0.794799
      pz      :     0.019250  p :     0.043865
      px      :     0.009486
      py      :     0.015129


---------------------------------
LOEWDIN BOND ORDERS (THRESH 0.050000)
---------------------------------
B(  0-C ,  1-C ) :   1.0516 B(  0-C ,  2-C ) :   0.0723 B(  0-C ,  3-O ) :   0.1694 
B(  0-C ,  7-H ) :   0.9197 B(  0-C ,  8-H ) :   0.9174 B(  0-C ,  9-H ) :   0.9160 
B(  1-C ,  2-C ) :   1.0516 B(  1-C ,  3-O ) :   1.3197 B(  1-C ,  4-C ) :   0.0665 
B(  1-C , 10-H ) :   0.7932 B(  2-C ,  3-O ) :   0.1692 B(  2-C , 11-H ) :   0.9174 
B(  2-C , 12-H ) :   0.9160 B(  2-C , 13-H ) :   0.9197 B(  3-O ,  4-C ) :   1.3698 
B(  3-O ,  5-C ) :   0.1511 B(  3-O ,  6-C ) :   0.1511 B(  3-O , 10-H ) :   0.0895 
B(  3-O , 14-H ) :   0.1016 B(  4-C ,  5-C ) :   1.0493 B(  4-C ,  6-C ) :   1.0493 
B(  4-C , 14-H ) :   0.7921 B(  5-C ,  6-C ) :   0.0714 B(  5-C , 15-H ) :   0.9146 
B(  5-C , 16-H ) :   0.9196 B(  5-C , 17-H ) :   0.9176 B(  6-C , 18-H ) :   0.9175 
B(  6-C , 19-H ) :   0.9146 B(  6-C , 20-H ) :   0.9196 

------------------------------------------
LOEWDIN REDUCED ORBITAL POPULATIONS PER MO
-------------------------------------------
THRESHOLD FOR PRINTING IS 0.1%%
                      0         1         2         3         4         5   
                 -18.94531 -10.07708 -10.07449 -10.00914 -10.00912 -10.00854
                   2.00000   2.00000   2.00000   2.00000   2.00000   2.00000
                  --------  --------  --------  --------  --------  --------
 0 C  s               0.0       0.0       0.0       0.0       0.0      66.0
 1 C  s               0.0       0.0      99.4       0.0       0.0       0.0
 1 C  pz              0.0       0.0       0.0       0.0       0.0       0.1
 2 C  s               0.0       0.0       0.0       0.0       0.0      33.7
 3 O  s              99.9       0.0       0.0       0.0       0.0       0.0
 3 O  px              0.0       0.1       0.1       0.0       0.0       0.0
 3 O  dx2y2           0.0       0.1       0.0       0.0       0.0       0.0
 3 O  dxy             0.0       0.1       0.2       0.0       0.0       0.0
 4 C  s               0.0      99.4       0.0       0.0       0.0       0.0
 5 C  s               0.0       0.0       0.0      99.2       0.5       0.0
 6 C  s               0.0       0.0       0.0       0.5      99.2       0.0

                      6         7         8         9        10        11   
                 -10.00854  -0.98974  -0.75506  -0.71202  -0.65204  -0.64321
                   2.00000   2.00000   2.00000   2.00000   2.00000   2.00000
                  --------  --------  --------  --------  --------  --------
 0 C  s              33.7       0.6       8.3       8.5       9.6      13.0
 0 C  pz              0.0       0.5       1.4       0.6       0.4       0.5
 0 C  px              0.0       0.6       0.3       0.0       0.0       0.0
 1 C  s               0.0       7.7      13.8       6.1       0.0       0.0
 1 C  pz              0.0       0.0       0.0       0.0       8.2       7.9
 1 C  px              0.1       4.0       2.5       3.7       0.0       0.0
 1 C  py              0.0       3.2       0.1       1.1       0.1       0.1
 1 C  dz2             0.0       0.1       0.0       0.1       0.0       0.0
 1 C  dxz             0.0       0.0       0.0       0.0       0.1       0.2
 1 C  dxy             0.0       0.5       0.0       0.1       0.0       0.0
 2 C  s              66.0       0.6       8.3       8.5       9.6      13.0
 2 C  pz              0.0       0.6       1.4       0.5       0.4       0.5
 2 C  px              0.0       0.6       0.3       0.0       0.0       0.0
 2 C  py              0.0       0.0       0.0       0.1       0.0       0.0
 3 O  s               0.0      56.4       0.0       6.9       0.0       0.0
 3 O  pz              0.0       0.0       0.0       0.0       1.3       0.0
 3 O  px              0.0       0.1      11.3       0.0       0.0       0.0
 3 O  py              0.0       1.9       0.5       0.9       0.0       0.0
 3 O  dz2             0.0       0.3       0.0       0.4       0.0       0.0
 3 O  dxz             0.0       0.0       0.0       0.0       0.0       1.4
 3 O  dyz             0.0       0.0       0.0       0.0       0.5       0.0
 3 O  dx2y2           0.0       0.1       0.2       0.4       0.0       0.0
 3 O  dxy             0.0       0.0       2.4       0.0       0.0       0.0
 4 C  s               0.0       8.1      13.3       6.4       0.0       0.0
 4 C  pz              0.0       0.0       0.0       0.0       9.8       6.3
 4 C  px              0.0       7.1       0.7       4.1       0.0       0.0
 4 C  py              0.0       0.3       0.1       3.4       0.1       0.1
 4 C  dz2             0.0       0.1       0.0       0.2       0.0       0.0
 4 C  dyz             0.0       0.0       0.0       0.0       0.2       0.1
 4 C  dx2y2           0.0       0.4       0.0       0.1       0.0       0.0
 4 C  dxy             0.0       0.1       0.0       0.0       0.0       0.0
 5 C  s               0.0       0.7       6.7      11.0      12.6      10.1
 5 C  pz              0.0       0.5       1.0       0.7       0.5       0.4
 5 C  px              0.0       0.4       0.0       0.0       0.0       0.0
 5 C  py              0.0       0.4       0.5       0.1       0.0       0.0
 6 C  s               0.0       0.7       6.7      11.0      12.5      10.1
 6 C  pz              0.0       0.7       1.2       0.8       0.5       0.4
 6 C  px              0.0       0.4       0.0       0.0       0.0       0.0
 6 C  py              0.0       0.2       0.2       0.0       0.0       0.0
 7 H  s               0.0       0.0       1.1       1.3       2.5       3.3
 7 H  pz              0.0       0.0       0.1       0.1       0.1       0.2
 8 H  s               0.0       0.0       1.2       1.4       2.1       2.9
 8 H  py              0.0       0.0       0.1       0.1       0.2       0.2
 9 H  s               0.0       0.0       1.2       1.6       2.1       3.0
 9 H  px              0.0       0.0       0.1       0.1       0.1       0.1
 9 H  py              0.0       0.0       0.0       0.1       0.1       0.1
10 H  s               0.0       0.5       1.7       1.3       0.0       0.0
10 H  py              0.0       0.0       0.1       0.1       0.0       0.0
11 H  s               0.0       0.0       1.2       1.4       2.1       2.9
11 H  py              0.0       0.0       0.1       0.1       0.1       0.2
12 H  s               0.0       0.0       1.2       1.6       2.1       3.0
12 H  px              0.0       0.0       0.1       0.1       0.1       0.1
12 H  py              0.0       0.0       0.0       0.1       0.1       0.1
13 H  s               0.0       0.0       1.1       1.3       2.5       3.3
13 H  pz              0.0       0.0       0.1       0.1       0.1       0.2
14 H  s               0.0       0.6       2.4       0.9       0.0       0.0
14 H  py              0.0       0.0       0.2       0.1       0.0       0.0
15 H  s               0.0       0.0       1.0       2.1       2.7       2.4
15 H  px              0.0       0.0       0.1       0.2       0.2       0.2
16 H  s               0.0       0.0       0.9       1.7       3.2       2.5
16 H  pz              0.0       0.0       0.1       0.1       0.2       0.2
17 H  s               0.0       0.0       0.9       1.9       2.8       2.2
17 H  py              0.0       0.0       0.1       0.1       0.2       0.2
18 H  s               0.0       0.0       0.9       1.9       2.8       2.2
18 H  py              0.0       0.0       0.1       0.1       0.2       0.2
19 H  s               0.0       0.0       1.0       2.1       2.7       2.4
19 H  px              0.0       0.0       0.1       0.2       0.2       0.2
20 H  s               0.0       0.0       0.9       1.7       3.2       2.5
20 H  pz              0.0       0.0       0.0       0.1       0.2       0.1
20 H  py              0.0       0.0       0.0       0.0       0.1       0.1

                     12        13        14        15        16        17   
                  -0.57896  -0.51268  -0.46216  -0.42642  -0.40519  -0.39775
                   2.00000   2.00000   2.00000   2.00000   2.00000   2.00000
                  --------  --------  --------  --------  --------  --------
 0 C  s               4.8       1.5       0.3       0.2       0.3       0.2
 0 C  pz              0.8       3.0       1.7       4.6       0.5      13.6
 0 C  px              1.8       1.5       0.2       0.0       8.4       5.3
 0 C  py              0.0       2.1       3.0       1.2       0.1       1.3
 1 C  s               4.0       7.9       0.8       0.8       0.0       0.0
 1 C  pz              0.0       0.2       0.1       0.0       9.2       0.0
 1 C  px              5.1       0.6       0.9       4.6       0.0       9.0
 1 C  py              0.4      14.2       9.6       2.2       0.1       0.9
 1 C  dz2             0.1       0.0       0.0       0.0       0.0       0.0
 1 C  dx2y2           0.1       0.0       0.0       0.0       0.0       0.1
 1 C  dxy             0.1       0.2       0.0       0.0       0.0       0.0
 2 C  s               4.8       1.5       0.3       0.2       0.3       0.2
 2 C  pz              0.8       2.0       2.7       3.5       0.7      14.7
 2 C  px              1.8       1.5       0.2       0.0       8.3       5.6
 2 C  py              0.0       3.1       2.1       2.3       0.0       0.1
 2 C  dxz             0.1       0.1       0.0       0.0       0.0       0.1
 3 O  s               0.0       4.1       0.1       0.8       0.0       0.1
 3 O  pz              0.0       0.1       0.0       0.1      22.6       0.0
 3 O  px             18.4       2.6      12.6       2.0       0.0       1.7
 3 O  py              3.2       4.7       1.4       9.4       0.3       0.4
 3 O  dz2             0.0       1.1       0.3       0.0       0.0       0.2
 3 O  dyz             0.0       0.0       0.0       0.0       0.6       0.0
 3 O  dx2y2           1.1       0.0       2.1       0.0       0.0       0.1
 3 O  dxy             0.2       0.4       0.4       1.3       0.0       0.4
 4 C  s               5.6       4.3       1.8       1.7       0.0       0.1
 4 C  pz              0.1       0.0       0.0       0.2       9.8       0.0
 4 C  px              0.6       0.2      17.3       0.3       0.0       2.4
 4 C  py              7.5       0.1       2.7      15.0       0.1       3.3
 4 C  dxz             0.0       0.0       0.0       0.0       0.1       0.0
 4 C  dx2y2           0.0       0.0       0.1       0.0       0.0       0.0
 5 C  s               3.4       2.0       0.2       0.6       0.3       0.0
 5 C  pz              0.5       2.3       1.3      13.0       0.3       2.2
 5 C  px              0.1       0.6       3.6       1.0       4.5       0.8
 5 C  py              1.9       1.3       3.8       0.2       5.3       2.4
 5 C  dyz             0.0       0.1       0.1       0.1       0.0       0.0
 6 C  s               3.4       2.0       0.2       0.6       0.3       0.0
 6 C  pz              0.9       3.0       2.4      11.9       1.0       1.2
 6 C  px              0.1       0.6       3.6       1.0       4.6       0.7
 6 C  py              1.5       0.6       2.7       1.3       4.5       3.5
 7 H  s               1.3       0.9       0.9       1.3       0.1       9.0
 7 H  pz              0.0       0.0       0.0       0.0       0.0       0.1
 8 H  s               1.7       2.6       0.1       0.9       0.8       0.5
 8 H  pz              0.0       0.0       0.0       0.0       0.0       0.1
 8 H  py              0.1       0.1       0.0       0.0       0.1       0.0
 9 H  s               2.3       0.5       1.1       0.1       2.7       0.3
10 H  s               1.5      11.1       2.2       0.5       0.0       1.0
10 H  px              0.0       0.2       0.0       0.1       0.0       0.0
10 H  py              0.1       0.5       0.0       0.0       0.0       0.1
11 H  s               1.7       2.6       0.1       0.9       0.8       0.5
11 H  py              0.1       0.1       0.0       0.0       0.1       0.0
12 H  s               2.3       0.5       1.1       0.1       2.8       0.3
12 H  pz              0.0       0.0       0.0       0.0       0.0       0.1
13 H  s               1.3       0.9       0.9       1.3       0.1       9.0
13 H  pz              0.0       0.0       0.0       0.0       0.0       0.2
14 H  s               4.0       2.0       6.8       1.2       0.0       2.1
14 H  px              0.2       0.0       0.0       0.1       0.0       0.0
14 H  py              0.2       0.1       0.4       0.0       0.0       0.1
15 H  s               1.4       1.4       0.3       1.1       3.1       0.2
15 H  px              0.1       0.1       0.0       0.0       0.1       0.0
16 H  s               0.9       1.2       0.4       4.7       0.2       1.1
17 H  s               1.9       0.9       2.6       0.0       1.0       1.2
18 H  s               1.9       0.9       2.6       0.0       1.0       1.2
19 H  s               1.4       1.4       0.3       1.1       3.2       0.2
19 H  px              0.1       0.1       0.0       0.0       0.1       0.0
20 H  s               0.9       1.2       0.4       4.7       0.2       1.1

                     18        19        20        21        22        23   
                  -0.37868  -0.36637  -0.34886  -0.34627  -0.34525  -0.32891
                   2.00000   2.00000   2.00000   2.00000   2.00000   2.00000
                  --------  --------  --------  --------  --------  --------
 0 C  pz              0.1       0.1       0.1       0.2       0.1       0.0
 0 C  px              1.1      10.5       0.5       8.8       2.6       0.3
 0 C  py              8.4       0.7      25.8       3.2       2.4       6.8
 0 C  dxy             0.1       0.0       0.2       0.2       0.0       0.1
 1 C  s               0.2       0.0       0.0       0.3       0.0       0.1
 1 C  pz              0.0       7.1       0.0       0.0       2.1       0.0
 1 C  px              0.3       0.0       0.0       2.9       0.0       1.4
 1 C  py              1.7       0.1       0.0       1.1       0.0       1.9
 1 C  dz2             0.0       0.0       0.0       0.2       0.0       0.0
 1 C  dyz             0.0       0.0       0.3       0.0       0.0       0.0
 1 C  dx2y2           0.0       0.0       0.0       0.1       0.0       0.1
 1 C  dxy             0.1       0.0       0.0       0.3       0.0       0.2
 2 C  pz              0.8       0.0       0.6       0.0       0.0       0.2
 2 C  px              1.1      10.5       0.5       8.7       2.8       0.4
 2 C  py              7.7       0.8      25.3       3.6       2.3       6.6
 2 C  dxy             0.1       0.0       0.3       0.2       0.0       0.1
 3 O  s               3.1       0.0       0.0       0.1       0.0       0.6
 3 O  pz              0.0       0.0       0.5       0.2       0.0       0.1
 3 O  px              0.2       0.0       0.0       2.7       0.0       9.4
 3 O  py              2.9       0.0       0.0      13.4       0.0      11.0
 3 O  dxz             0.0       1.8       0.9       0.0       0.2       0.0
 3 O  dyz             0.0       0.3       0.1       0.0       0.0       0.0
 3 O  dx2y2           0.6       0.0       0.0       0.0       0.0       0.1
 3 O  dxy             0.0       0.0       0.0       0.5       0.0       0.1
 4 C  s               0.3       0.0       0.0       0.1       0.0       0.3
 4 C  pz              0.0       8.4       0.2       0.0       0.0       0.0
 4 C  px              1.3       0.0       0.0       0.1       0.0       4.4
 4 C  py              0.1       0.1       0.0       2.5       0.0       0.2
 4 C  dz2             0.2       0.0       0.0       0.2       0.0       0.1
 4 C  dxz             0.0       0.1       0.0       0.0       0.2       0.0
 4 C  dx2y2           0.0       0.0       0.0       0.1       0.0       0.5
 4 C  dxy             0.2       0.0       0.0       0.1       0.0       0.1
 5 C  pz              4.4       0.0       0.0       1.2       0.0       0.3
 5 C  px             11.2       0.1       2.4       0.1      19.9      10.2
 5 C  py              2.1      15.4       0.1       7.9       3.9       0.3
 5 C  dz2             0.1       0.1       0.0       0.1       0.0       0.0
 5 C  dx2y2           0.1       0.0       0.0       0.0       0.2       0.2
 6 C  pz              3.1       0.5       0.0       0.3       0.1       0.2
 6 C  px             11.1       0.1       2.5       0.0      20.0      10.1
 6 C  py              3.4      15.0       0.1       9.1       3.7       0.4
 6 C  dx2y2           0.1       0.0       0.0       0.0       0.2       0.2
 7 H  s               0.0       1.2       0.1       1.4       0.5       0.3
 7 H  py              0.0       0.0       0.2       0.0       0.0       0.0
 8 H  s               2.0       2.2       9.5       0.3       2.2       4.3
 8 H  px              0.1       0.0       0.1       0.1       0.0       0.0
 9 H  s               3.7       2.0       7.8       6.4       0.0       1.3
 9 H  px              0.1       0.0       0.2       0.0       0.0       0.0
10 H  s               0.2       0.0       0.0       0.8       0.0       1.8
10 H  pz              0.0       0.1       0.0       0.0       0.0       0.0
11 H  s               2.0       2.2       9.5       0.3       2.1       4.3
11 H  px              0.1       0.0       0.1       0.1       0.0       0.0
12 H  s               3.7       2.0       7.7       6.5       0.0       1.3
12 H  px              0.1       0.0       0.2       0.0       0.0       0.0
13 H  s               0.0       1.3       0.1       1.3       0.5       0.3
13 H  py              0.0       0.0       0.2       0.0       0.0       0.0
14 H  s               0.1       0.0       0.0       0.8       0.0       1.4
14 H  pz              0.0       0.1       0.0       0.0       0.0       0.0
15 H  s               5.3       0.3       1.3       0.1       8.8       5.9
15 H  px              0.1       0.0       0.0       0.0       0.1       0.1
15 H  py              0.0       0.1       0.0       0.1       0.1       0.0
16 H  s               5.0       1.4       0.3       2.5       0.1       0.1
16 H  pz              0.1       0.1       0.0       0.1       0.0       0.0
16 H  px              0.0       0.0       0.0       0.0       0.1       0.1
17 H  s               0.0       6.0       0.1       3.3       7.1       2.4
17 H  py              0.0       0.1       0.0       0.0       0.2       0.1
18 H  s               0.0       6.0       0.1       3.5       7.0       2.4
18 H  py              0.0       0.1       0.0       0.0       0.2       0.1
19 H  s               5.2       0.3       1.3       0.1       8.9       5.9
19 H  px              0.1       0.0       0.0       0.0       0.1       0.1
20 H  s               4.9       1.5       0.3       2.5       0.1       0.1
20 H  pz              0.1       0.1       0.0       0.1       0.0       0.0
20 H  px              0.0       0.0       0.0       0.0       0.1       0.1

                     24        25        26        27        28        29   
                  -0.32289  -0.30210  -0.29870  -0.26215  -0.21659   0.08596
                   2.00000   2.00000   2.00000   2.00000   2.00000   0.00000
                  --------  --------  --------  --------  --------  --------
 0 C  s               0.1       0.2       0.4       0.2       0.7       4.9
 0 C  pz              9.1      12.7       0.9       0.4       3.0       1.8
 0 C  px              3.0       0.2       8.2       0.4       1.9       0.4
 0 C  py              0.0       0.1       1.4       0.9       0.2       0.1
 0 C  dz2             0.1       0.0       0.3       0.0       0.0       0.1
 0 C  dxz             0.2       0.2       0.0       0.0       0.0       0.3
 0 C  dyz             0.0       0.0       0.0       0.1       0.0       0.1
 0 C  dxy             0.0       0.0       0.0       0.1       0.1       0.1
 1 C  s               0.0       0.0       0.2       0.5       0.0       3.5
 1 C  pz              3.8       9.4       0.0       0.1       3.6       0.0
 1 C  px              0.0       0.0      12.1       0.2       0.0       1.9
 1 C  py              0.0       0.1       3.0       9.0       0.0       3.4
 1 C  dz2             0.0       0.0       0.6       0.1       0.0       0.0
 1 C  dxz             0.1       0.3       0.0       0.0       1.1       0.0
 1 C  dyz             0.0       0.0       0.0       0.0       0.2       0.0
 1 C  dx2y2           0.0       0.0       0.2       0.6       0.0       0.0
 1 C  dxy             0.0       0.0       0.0       0.2       0.0       0.5
 2 C  s               0.1       0.2       0.4       0.2       0.7       4.9
 2 C  pz              8.5      12.7       0.5       0.2       3.2       1.9
 2 C  px              2.9       0.2       8.2       0.4       1.9       0.4
 2 C  py              0.6       0.2       1.8       1.1       0.1       0.0
 2 C  dz2             0.1       0.1       0.3       0.1       0.0       0.0
 2 C  dxz             0.2       0.2       0.0       0.0       0.0       0.2
 2 C  dyz             0.0       0.0       0.0       0.0       0.0       0.2
 2 C  dxy             0.0       0.0       0.0       0.1       0.1       0.2
 3 O  s               0.0       0.0       0.0       2.3       0.0       3.3
 3 O  pz              7.1       0.0       0.0       0.4      60.0       0.0
 3 O  px              0.0       0.0       3.6       1.0       0.0       0.1
 3 O  py              0.1       0.0       0.0      30.9       0.7       1.0
 3 O  dz2             0.0       0.0       0.3       0.1       0.0       1.4
 3 O  dxz             0.0       1.1       0.0       0.0       0.0       0.0
 3 O  dyz             0.0       0.0       0.0       0.0       0.8       0.0
 3 O  dx2y2           0.0       0.0       0.3       1.4       0.0       0.8
 3 O  dxy             0.0       0.0       0.3       1.2       0.0       0.3
 4 C  s               0.0       0.0       0.4       0.1       0.0       3.6
 4 C  pz              3.9       9.4       0.1       0.1       3.4       0.0
 4 C  px              0.0       0.0       3.7       1.2       0.0       4.9
 4 C  py              0.0       0.1       8.4       8.9       0.0       3.2
 4 C  dz2             0.0       0.0       0.1       0.3       0.0       0.0
 4 C  dxz             0.0       0.1       0.0       0.0       0.9       0.0
 4 C  dyz             0.1       0.3       0.0       0.0       0.5       0.0
 4 C  dx2y2           0.0       0.0       0.1       0.0       0.0       0.2
 4 C  dxy             0.0       0.0       0.4       0.5       0.0       0.3
 5 C  s               0.1       0.2       0.2       0.2       0.7       8.5
 5 C  pz              9.9      12.8       0.3       0.6       2.8       1.3
 5 C  px              0.9       0.0       0.5       0.1       0.9       0.3
 5 C  py              1.2       0.0       2.3       5.1       1.9       0.5
 5 C  dz2             0.1       0.1       0.1       0.2       0.0       0.1
 5 C  dyz             0.1       0.2       0.0       0.0       0.0       0.3
 5 C  dx2y2           0.0       0.0       0.1       0.0       0.0       0.2
 6 C  s               0.1       0.2       0.2       0.2       0.7       8.5
 6 C  pz              8.2      12.1       0.7       1.5       3.7       1.6
 6 C  px              0.8       0.0       0.6       0.2       0.9       0.3
 6 C  py              3.0       0.7       2.0       4.2       1.0       0.3
 6 C  dz2             0.0       0.0       0.1       0.2       0.0       0.3
 6 C  dyz             0.2       0.2       0.0       0.0       0.0       0.2
 6 C  dx2y2           0.0       0.0       0.1       0.0       0.0       0.1
 7 H  s               6.9       5.8       1.5       0.1       0.1       1.5
 7 H  px              0.0       0.1       0.0       0.0       0.0       0.6
 8 H  s               0.1       0.1       3.4       1.3       0.0       0.3
 8 H  pz              0.1       0.1       0.0       0.0       0.0       0.1
 8 H  py              0.0       0.0       0.0       0.0       0.0       0.2
 9 H  s               1.8       0.2       0.8       0.1       0.8       1.7
 9 H  pz              0.1       0.1       0.0       0.0       0.0       0.1
 9 H  px              0.0       0.0       0.0       0.0       0.0       0.3
 9 H  py              0.0       0.0       0.0       0.0       0.0       0.2
10 H  s               0.0       0.0       7.8       8.4       0.0       1.9
10 H  px              0.0       0.0       0.0       0.1       0.0       0.7
10 H  py              0.0       0.0       0.1       0.0       0.0       0.6
11 H  s               0.1       0.1       3.4       1.3       0.0       0.3
11 H  pz              0.1       0.1       0.0       0.0       0.0       0.2
11 H  py              0.0       0.0       0.0       0.0       0.0       0.1
12 H  s               1.8       0.2       0.8       0.1       0.8       1.7
12 H  pz              0.1       0.1       0.0       0.0       0.0       0.1
12 H  px              0.0       0.0       0.0       0.0       0.0       0.3
12 H  py              0.0       0.0       0.1       0.0       0.0       0.2
13 H  s               6.8       5.7       1.6       0.1       0.1       1.5
13 H  px              0.0       0.1       0.0       0.0       0.0       0.6
14 H  s               0.0       0.0       9.9       6.6       0.0       1.4
14 H  py              0.0       0.0       0.1       0.0       0.0       0.9
15 H  s               0.8       0.1       0.4       0.1       0.6       3.3
15 H  pz              0.1       0.1       0.0       0.0       0.0       0.1
15 H  px              0.0       0.0       0.0       0.0       0.0       1.0
16 H  s               6.9       5.7       0.1       0.6       0.1       1.6
16 H  pz              0.0       0.0       0.0       0.0       0.0       0.1
[...]
 1 C  px              6.6       2.3       2.9       0.0       0.0       0.0
 1 C  py              4.8       2.1       3.0       0.0       0.0       0.0
 1 C  dz2             8.8       1.4       1.2       0.0       0.0       0.0
 1 C  dyz             0.6       0.0       0.0       0.0       0.0       0.0
 1 C  dx2y2           6.5       0.0       0.1       0.0       0.0       0.0
 1 C  dxy             3.0       4.7       6.8       0.0       0.0       0.0
 2 C  s               0.6       0.0       0.0      43.5       5.5      38.8
 2 C  pz              0.6       0.0       0.0       0.0       0.0       0.0
 2 C  px              1.5       0.1       0.0       0.0       0.0       0.0
 2 C  py              0.9       0.1       0.0       0.0       0.0       0.0
 2 C  dz2             4.2       0.2       0.2       0.0       0.0       0.0
 2 C  dxz             0.3       0.0       0.0       0.0       0.0       0.0
 2 C  dyz             0.5       0.1       0.0       0.0       0.0       0.0
 2 C  dx2y2           2.0       0.0       0.0       0.0       0.0       0.0
 2 C  dxy             0.4       0.2       0.1       0.0       0.0       0.0
 3 O  s               0.1      36.8       0.0       0.0       0.0       0.0
 3 O  pz              0.0       0.1       0.0       0.0       0.0       0.0
 3 O  px              0.2       0.3      34.6       0.0       0.0       0.0
 3 O  py              0.1       9.1       1.3       0.0       0.0       0.0
 3 O  dz2             0.5      13.9       0.0       0.0       0.0       0.0
 3 O  dxz             0.0       0.0       0.3       0.0       0.0       0.0
 3 O  dyz             0.0       0.1       0.1       0.0       0.0       0.0
 3 O  dx2y2           0.0       8.4       6.4       0.0       0.0       0.0
 3 O  dxy             0.1       2.4      22.7       0.0       0.0       0.0
 4 C  s               0.2       1.1       0.7       0.0       5.9       0.0
 4 C  px              0.0       4.6       5.6       0.0       0.0       0.0
 4 C  py              0.3       0.4       0.2       0.0       0.0       0.0
 4 C  dz2             0.5       2.0       1.2       0.0       0.0       0.0
 4 C  dx2y2           0.1       3.0       4.3       0.0       0.0       0.0
 4 C  dxy             0.3       1.7       2.7       0.0       0.0       0.0
 5 C  s               0.1       0.1       0.0       6.2      39.5      11.5
 5 C  pz              0.1       0.1       0.1       0.0       0.0       0.0
 5 C  py              0.1       0.0       0.0       0.0       0.0       0.0
 5 C  dyz             0.1       0.2       0.1       0.0       0.0       0.0
 5 C  dx2y2           0.0       0.1       0.1       0.0       0.0       0.0
 5 C  dxy             0.2       0.0       0.1       0.0       0.0       0.0
 6 C  s               0.1       0.1       0.0       6.0      39.5      11.3
 6 C  pz              0.1       0.2       0.1       0.0       0.0       0.0
 6 C  py              0.1       0.0       0.0       0.0       0.0       0.0
 6 C  dz2             0.1       0.1       0.0       0.0       0.0       0.0
 6 C  dyz             0.1       0.2       0.1       0.0       0.0       0.0
 6 C  dxy             0.2       0.0       0.1       0.0       0.0       0.0
 7 H  s               0.2       0.0       0.0       0.0       0.0       0.0
 7 H  pz              0.5       0.0       0.0       0.0       0.0       0.0
 8 H  s               1.8       0.0       0.0       0.0       0.0       0.0
 8 H  pz              0.1       0.0       0.0       0.0       0.0       0.0
 8 H  px              0.7       0.0       0.0       0.0       0.0       0.0
 8 H  py              3.9       0.0       0.0       0.0       0.0       0.0
 9 H  pz              0.1       0.0       0.0       0.0       0.0       0.0
10 H  s               7.1       0.2       0.5       0.0       0.0       0.0
10 H  pz              0.2       0.0       0.0       0.0       0.0       0.0
10 H  px              3.2       0.2       0.4       0.0       0.0       0.0
10 H  py             15.3       0.0       0.4       0.0       0.0       0.0
11 H  s               1.7       0.0       0.0       0.0       0.0       0.0
11 H  px              0.7       0.0       0.0       0.0       0.0       0.0
11 H  py              4.0       0.0       0.0       0.0       0.0       0.0
12 H  py              0.1       0.1       0.1       0.0       0.0       0.0
13 H  s               0.2       0.0       0.0       0.0       0.0       0.0
13 H  pz              0.5       0.0       0.0       0.0       0.0       0.0
14 H  s               0.3       0.1       0.4       0.0       0.0       0.0
14 H  px              0.3       0.2       0.0       0.0       0.0       0.0
14 H  py              0.5       0.4       0.9       0.0       0.0       0.0
15 H  px              0.1       0.1       0.0       0.0       0.0       0.0
17 H  s               0.1       0.0       0.0       0.0       0.0       0.0
17 H  py              0.3       0.0       0.0       0.0       0.0       0.0
18 H  s               0.1       0.0       0.0       0.0       0.0       0.0
18 H  py              0.3       0.0       0.0       0.0       0.0       0.0
19 H  px              0.1       0.1       0.0       0.0       0.0       0.0

                    204       205       206       207   
                  22.03961  22.12058  22.17129  43.84000
                   0.00000   0.00000   0.00000   0.00000
                  --------  --------  --------  --------
 0 C  s              11.5       0.0       0.5       0.0
 1 C  s               0.0      93.2       2.9       0.0
 2 C  s              11.4       0.0       0.5       0.0
 3 O  s               0.0       0.0       0.1      99.9
 4 C  s               0.0       4.6      89.1       0.0
 5 C  s              38.2       0.9       3.3       0.0
 6 C  s              38.6       1.0       3.2       0.0


                      *****************************
                      * MAYER POPULATION ANALYSIS *
                      *****************************

  NA   - Mulliken gross atomic population
  ZA   - Total nuclear charge
  QA   - Mulliken gross atomic charge
  VA   - Mayer's total valence
  BVA  - Mayer's bonded valence
  FA   - Mayer's free valence

  ATOM       NA         ZA         QA         VA         BVA        FA
  0 C      6.5318     6.0000    -0.5318     3.8455     3.8455     0.0000
  1 C      5.9223     6.0000     0.0777     3.4275     3.4275     0.0000
  2 C      6.5319     6.0000    -0.5319     3.8456     3.8456    -0.0000
  3 O      8.2758     8.0000    -0.2758     1.5631     1.5631     0.0000
  4 C      6.0128     6.0000    -0.0128     3.6961     3.6961     0.0000
  5 C      6.5013     6.0000    -0.5013     3.7488     3.7488     0.0000
  6 C      6.5018     6.0000    -0.5018     3.7482     3.7482     0.0000
  7 H      0.8381     1.0000     0.1619     0.9571     0.9571     0.0000
  8 H      0.8355     1.0000     0.1645     0.9582     0.9582    -0.0000
  9 H      0.8378     1.0000     0.1622     0.9608     0.9608    -0.0000
 10 H      0.8400     1.0000     0.1600     0.9562     0.9562     0.0000
 11 H      0.8355     1.0000     0.1645     0.9582     0.9582    -0.0000
 12 H      0.8379     1.0000     0.1621     0.9608     0.9608     0.0000
 13 H      0.8378     1.0000     0.1622     0.9570     0.9570    -0.0000
 14 H      0.8431     1.0000     0.1569     0.9445     0.9445    -0.0000
 15 H      0.8367     1.0000     0.1633     0.9598     0.9598     0.0000
 16 H      0.8363     1.0000     0.1637     0.9589     0.9589    -0.0000
 17 H      0.8354     1.0000     0.1646     0.9608     0.9608    -0.0000
 18 H      0.8351     1.0000     0.1649     0.9607     0.9607     0.0000
 19 H      0.8368     1.0000     0.1632     0.9598     0.9598     0.0000
 20 H      0.8363     1.0000     0.1637     0.9589     0.9589     0.0000

  Mayer bond orders larger than 0.100000
B(  0-C ,  1-C ) :   0.9336 B(  0-C ,  7-H ) :   0.9687 B(  0-C ,  8-H ) :   0.9814 
B(  0-C ,  9-H ) :   0.9703 B(  1-C ,  2-C ) :   0.9338 B(  1-C ,  3-O ) :   0.7149 
B(  1-C , 10-H ) :   0.9312 B(  2-C , 11-H ) :   0.9815 B(  2-C , 12-H ) :   0.9703 
B(  2-C , 13-H ) :   0.9684 B(  3-O ,  4-C ) :   0.9052 B(  4-C ,  5-C ) :   0.9363 
B(  4-C ,  6-C ) :   0.9352 B(  4-C , 14-H ) :   0.9541 B(  5-C , 15-H ) :   0.9599 
B(  5-C , 16-H ) :   0.9677 B(  5-C , 17-H ) :   0.9690 B(  6-C , 18-H ) :   0.9692 
B(  6-C , 19-H ) :   0.9599 B(  6-C , 20-H ) :   0.9677 

-------
TIMINGS
-------

Total SCF time: 0 days 0 hours 0 min 25 sec 

Total time                  ....      25.806 sec
Sum of individual times     ....      25.346 sec  ( 98.2%)

SCF preparation             ....       0.290 sec  (  1.1%)
Fock matrix formation       ....      24.127 sec  ( 93.5%)
  Startup                   ....       0.065 sec  (  0.3% of F)
  Split-RI-J                ....       3.397 sec  ( 14.1% of F)
  XC integration            ....      15.534 sec  ( 64.4% of F)
    XC Preparation          ....       0.000 sec  (  0.0% of XC)
    Basis function eval.    ....       2.651 sec  ( 17.1% of XC)
    Density eval.           ....       5.244 sec  ( 33.8% of XC)
    XC-Functional eval.     ....       1.907 sec  ( 12.3% of XC)
    XC-Potential eval.      ....       4.822 sec  ( 31.0% of XC)
  CPCM terms                ....       4.591 sec  ( 19.0% of F)
Diagonalization             ....       0.000 sec  (  0.0%)
Density matrix formation    ....       0.264 sec  (  1.0%)
Total Energy calculation    ....       0.055 sec  (  0.2%)
Population analysis         ....       0.103 sec  (  0.4%)
Orbital Transformation      ....       0.052 sec  (  0.2%)
Orbital Orthonormalization  ....       0.000 sec  (  0.0%)
DIIS solution               ....       0.410 sec  (  1.6%)
  MO trafo                  ....       0.000 sec  (  0.0 % of DIIS)
  Orb grad                  ....       0.000 sec  (  0.0 % of DIIS)
  Energy W gradient         ....       0.000 sec  (  0.0 % of DIIS)
  DIIS error                ....       0.009 sec  (  2.2 % of DIIS)
  DIIS work                 ....       0.347 sec  ( 84.6 % of DIIS)
  Form Q                    ....       0.000 sec  (  0.0 % of DIIS)
  Form QpQm                 ....       0.000 sec  (  0.0 % of DIIS)
  Exp/Cayley                ....       0.000 sec  (  0.0 % of DIIS)
  Orb update                ....       0.000 sec  (  0.0 % of DIIS)
  Wake-sleep                ....       0.029 sec  (  7.1 % of DIIS)
SOSCF solution              ....       0.046 sec  (  0.2%)
  MO trafo                  ....       0.036 sec  ( 78.0 % of SOSCF)
  Orb grad                  ....       0.001 sec  (  1.3 % of SOSCF)
  Rot update                ....       0.000 sec  (  0.1 % of SOSCF)
  Step                      ....       0.009 sec  ( 20.6 % of SOSCF)
Finished LeanSCF after  25.9 sec

Maximum memory used throughout the entire LEANSCF-calculation: 31.1 MB


-------------------------------------------------------------------------------
                          DFT DISPERSION CORRECTION                            
                                                                               
                                DFTD4 V3.4.0                                   
-------------------------------------------------------------------------------
The R2SCAN3C composite method is recognized
Using three-body term ABC
Active option DFTDOPT                   ...         5   

-------------------------   ----------------
Dispersion correction           -0.005567084
-------------------------   ----------------

------------------   -----------------
gCP correction             0.012183781
------------------   -----------------

-------------------------   --------------------
FINAL SINGLE POINT ENERGY      -312.194968339562
-------------------------   --------------------


------------------------------------------------------------------------------
                              ORCA PROPERTY CALCULATIONS
------------------------------------------------------------------------------

GBWName                                 ... sp_solv.gbw
Number of atoms                         ...     21
Number of basis functions               ...    208
Max core memory                         ...   1024 MB

Electric properties:
Dipole moment                           ... YES
Quadrupole moment                       ...  NO
Static polarizability (Dipole/Dipole)   ...  NO
Static polarizability (Dipole/Quad.)    ...  NO
Static polarizability (Quad./Quad.)     ...  NO
Static polarizability (Velocity)        ...  NO

Atomic electric properties:
Dipole moment                           ...  NO
Quadrupole moment                       ...  NO
Static polarizability                   ...  NO

Choice of electric origin               ... Center of mass
Position of electric origin             ...     0.000000    -0.000012     0.000001

General magnetic properties:
Magnetizability                         ...  NO

EPR properties:
g-Tensor (aka g-matrix)                 ...  NO
Zero-Field splitting spin-orbit         ...  NO
Zero-field splitting spin-spin          ...  NO
Hyperfine couplings                     ...  NO (   0 nuclei)
Quadrupole couplings                    ...  NO (   0 nuclei)
Contact density                         ...  NO (   0 nuclei)

NMR properties:
Chemical shifts                         ...  NO (   0 nuclei)
Spin-rotation constants                 ...  NO (   0 nuclei)
Spin-spin couplings                     ...  NO (   0 nuclei,    0 pairs)

Choice of magnetic origin               ... GIAO
Position of magnetic origin             ...     0.000000     0.000000     0.000000

Properties with geometric perturbations:
SCF Hessian                             ...  NO
IR spectrum                             ...  NO
VCD spectrum                            ...  NO
X-ray spectroscopy properties:
SCF XES/XAS/RIXS spectra                ...  NO


-------------
DIPOLE MOMENT
-------------

Method             : SCF
Type of density    : Electron Density
Multiplicity       :   1
Irrep              :   0
Energy             :  -312.2015850372302452 Eh
Relativity type    : 
Basis              : AO
                                X                 Y                 Z
Electronic contribution:     -0.429939626       2.439031056      -0.264284155
Nuclear contribution   :      0.206675080      -3.233190139       0.349509305
                        -----------------------------------------
Total Dipole Moment    :     -0.223264546      -0.794159083       0.085225150
                        -----------------------------------------
Magnitude (a.u.)       :      0.829336502
Magnitude (Debye)      :      2.108005861



--------------------
Rotational spectrum 
--------------------
 
Rotational constants in cm-1:             0.124885             0.061314             0.047270 
Rotational constants in MHz :          3743.960125          1838.136416          1417.128838 

Dipole components along the rotational axes: 
x,y,z [a.u.] :    -0.256406    -0.001515    -0.788703 
x,y,z [Debye]:    -0.651732    -0.003850    -2.004724 

 

Dipole moment calculation done in   0.0 sec 

Maximum memory used throughout the entire PROP-calculation: 13.0 MB

--------------------------------
SUGGESTED CITATIONS FOR THIS RUN
--------------------------------

Below you find a list of papers that are relevant to this ORCA run
We neither can nor want to force you to cite these papers, but we appreciate if you do
You receive ORCA, which is the product of decades of hard work by many enthusiastic individuals, for free
The only thing we kindly ask in return is that you cite our papers,
We deeply appreciate it, if you show your appreciation for ORCA by not just citing the generic ORCA reference.

Please note that relegating all ORCA citations to the supporting information does *not* help us.
SI sections are not indexed - citations you put there will not count into any citation statistics
But we need these citations in order to attract the funding resources that allow us to do what we are doing

Therefore, if you are a happy ORCA user, please consider citing a few of the papers listed below in the main body of your paper

In addition to the list printed below, the program has created the file sp_solv.bibtex that contains the list in bibtex format
You can import this file easily into all common literature databanks and citation aid programs


List of essential papers. We consider these as the minimum necessary citations

  1. Neese,F.
     Software update: the ORCA program system, version 5.0
     WIRES Comput. Molec. Sci., 2022 12(1)e1606
     doi.org/10.1002/wcms.1606
  2. Grimme,S.; Hansen,A.; Ehlert,S.; Mewes,J.
     r2SCAN-3c: A 'Swiss army knife' composite electronic-structure method
     J. Chem. Phys., 2021 154 064103
     doi.org/10.1063/5.0040021

List of papers to cite with high priority. The work reported in these papers was absolutely
necessary for this run to complete.
Our perspective: the developers of density functionals and basis sets usually get cited in chemistry papers
Good! But without the algorithms to do something with them, the functionals or basis sets would not do anything.
Hence, in our opinion, the algorithm design and method developments papers are equally worthy of getting cited

  1. Neese,F.
     An improvement of the resolution of the identity approximation for the formation of the Coulomb matrix
     J. Comp. Chem., 2003 24(14)1740-1747
     doi.org/10.1002/jcc.10318
  2. Garcia-Rates,M.; Neese,F.
     Effect of the Solute Cavity on the Solvation Energy and its Derivatives within the Framework of the Gaussian Charge Scheme
     J. Comput. Chem., 2020 41 922-939
     doi.org/10.1002/jcc.26139
  3. Neese,F.
     The SHARK Integral Generation and Digestion System
     J. Comp. Chem., 2022  1-16
     doi.org/10.1002/jcc.26942
  4. Lehtola,S.; Steigemann,C.; Oliveira,M.; Marques,M.
     Recent developments in Libxc - A comprehensive library of functionals for density functional theory
     Software X, 2018 7 
     doi.org/10.1016/j.softx.2017.11.002
  5. Caldeweyher,E.; Bannwarth,C.; Grimme,S.
     Extension of the D3 dispersion coefficient model
     J. Chem. Phys., 2017 147 034112-XXXX
     doi.org/10.1063/1.4993215
  6. Caldeweyher,E.; Ehlert,S.; Hansen,A.; Neugebauer,H.; Spicher,S.; Bannwarth,C.; Grimme,S.
     A generally applicable atomic-charge dependent London dispersion correction
     J. Chem. Phys., 2019 150 154122-XXXX
     doi.org/10.1063/1.5090222
  7. Caldeweyher,E.; Mewes,J.; Ehlert,S.; Grimme,S.
     Extension and evaluation of the D4 London-dispersion model for periodic systems
     Phys. Chem. Chem. Phys., 2020 22(16)8499-8512
     doi.org/10.1039/D0CP00502A

List of suggested additional citations. These are papers that are important in the 'surrounding' of 
of this run, or papers that preceded the highly important papers. If you like your results we are grateful for a citation.

  1. Neese,F.
     The ORCA program system
     WIRES Comput. Molec. Sci., 2012 2(1)73-78
     doi.org/10.1002/wcms.81
  2. Neese,F.
     Software update: the ORCA program system, version 4.0
     WIRES Comput. Molec. Sci., 2018 8(1)1-6
     doi.org/10.1002/wcms.1327
  3. Neese,F.; Wennmohs,F.; Becker,U.; Riplinger,C.
     The ORCA quantum chemistry program package
     J. Chem. Phys., 2020 152 Art. No. L224108
     doi.org/10.1063/5.0004608

List of optional additional citations

  1. Neese,F.
     Approximate second-order SCF convergence for spin unrestricted wavefunctions
     Chem. Phys. Lett., 2000 325(1-3)93-98
     doi.org/10.1016/s0009-2614(00)00662-x

Timings for individual modules:

Sum of individual times          ...       27.441 sec (=   0.457 min)
Startup calculation              ...        1.102 sec (=   0.018 min)   4.0 %
SCF iterations                   ...       26.241 sec (=   0.437 min)  95.6 %
Property calculations            ...        0.099 sec (=   0.002 min)   0.4 %
                             ****ORCA TERMINATED NORMALLY****
TOTAL RUN TIME: 0 days 0 hours 0 minutes 28 seconds 177 msec
