
                                 *****************
                                 * O   R   C   A *
                                 *****************

                                            #,                                       
                                            ###                                      
                                            ####                                     
                                            #####                                    
                                            ######                                   
                                           ########,                                 
                                     ,,################,,,,,                         
                               ,,#################################,,                 
                          ,,##########################################,,             
                       ,#########################################, ''#####,          
                    ,#############################################,,   '####,        
                  ,##################################################,,,,####,       
                ,###########''''           ''''###############################       
              ,#####''   ,,,,##########,,,,          '''####'''          '####       
            ,##' ,,,,###########################,,,                        '##       
           ' ,,###''''                  '''############,,,                           
         ,,##''                                '''############,,,,        ,,,,,,###''
      ,#''                                            '''#######################'''  
     '                                                          ''''####''''         
             ,#######,   #######,   ,#######,      ##                                
            ,#'     '#,  ##    ##  ,#'     '#,    #''#        ,####,   ,####,        
            ##       ##  ##   ,#'  ##            #'  '#       #'       #'  '#        
            ##       ##  #######   ##           ,######,      #####,   #    #        
            '#,     ,#'  ##    ##  '#,     ,#' ,#      #,     #,   #   #,  ,#        
             '#######'   ##     ##  '#######'  #'      '#     '####' # '####'        



                #########################################################
                #                        -***-                          #
                #          Department of theory and spectroscopy        #
                #                                                       #
                #                      Frank Neese                      #
                #                                                       #
                #     Directorship, Architecture, Infrastructure        #
                #                    SHARK, DRIVERS                     #
                #        Core code/Algorithms in most modules           #
                #                                                       #
                #        Max Planck Institute fuer Kohlenforschung      #
                #                Kaiser Wilhelm Platz 1                 #
                #                 D-45470 Muelheim/Ruhr                 #
                #                      Germany                          #
                #                                                       #
                #                  All rights reserved                  #
                #                        -***-                          #
                #########################################################


                         Program Version 6.0.0  -   RELEASE  -


 With contributions from (in alphabetic order):
   Daniel Aravena         : Magnetic Suceptibility
   Michael Atanasov       : Ab Initio Ligand Field Theory (pilot matlab implementation)
   Alexander A. Auer      : GIAO ZORA, VPT2 properties, NMR spectrum
   Ute Becker             : All parallelization in ORCA, NUMFREQ, NUMCALC
   Giovanni Bistoni       : ED, misc. LED, open-shell LED, HFLD
   Martin Brehm           : Molecular dynamics
   Dmytro Bykov           : pre 5.0 version of the SCF Hessian
   Marcos Casanova-Páez   : Triplet and SCS-CIS(D). UHF-(DLPNO)-IP/EA/STEOM-CCSD. UHF-CVS-IP/STEOM-CCSD
   Vijay G. Chilkuri      : MRCI spin determinant printing, contributions to CSF-ICE
   Pauline Colinet        : FMM embedding
   Dipayan Datta          : RHF DLPNO-CCSD density
   Achintya Kumar Dutta   : EOM-CC, STEOM-CC
   Nicolas Foglia         : Exact transition moments, OPA infrastructure, MCD improvements
   Dmitry Ganyushin       : Spin-Orbit,Spin-Spin,Magnetic field MRCI
   Miquel Garcia          : C-PCM and meta-GGA Hessian, CCSD/C-PCM, Gaussian charge scheme
   Tiago L. C. Gouveia    : GS-ROHF, GS-ROCIS
   Yang Guo               : DLPNO-NEVPT2, F12-NEVPT2, CIM, IAO-localization
   Andreas Hansen         : Spin unrestricted coupled pair/coupled cluster methods
   Ingolf Harden          : AUTO-CI MPn and infrastructure 
   Benjamin Helmich-Paris : MC-RPA, TRAH-(SCF,CASSCF), AVAS, COSX integrals, SCF dyn. polar.
   Lee Huntington         : MR-EOM, pCC
   Robert Izsak           : Overlap fitted RIJCOSX, COSX-SCS-MP3, EOM
   Riya Kayal             : Wick's Theorem for AUTO-CI, AUTO-CI UHF-CCSDT
   Emily Kempfer          : AUTO-CI, RHF CISDT and CCSDT
   Christian Kollmar      : KDIIS, OOCD, Brueckner-CCSD(T), CCSD density, CASPT2, CASPT2-K, improved NEVPT2
   Axel Koslowski         : Symmetry handling
   Simone Kossmann        : Meta GGA functionals, TD-DFT gradient, OOMP2, (MP2 Hessian; deprecated post 5.0)
   Lucas Lang             : DCDCAS
   Marvin Lechner         : AUTO-CI (C++ implementation), FIC-MRCC
   Spencer Leger          : CASSCF response
   Dagmar Lenk            : GEPOL surface, SMD, ORCA-2-JSON
   Dimitrios Liakos       : Extrapolation schemes; Compound Job, initial MDCI parallelization
   Dimitrios Manganas     : Further ROCIS development; embedding schemes. LFT, Crystal Embedding
   Dimitrios Pantazis     : SARC Basis sets
   Anastasios Papadopoulos: AUTO-CI, single reference methods and gradients
   Taras Petrenko         : pre 6.0 DFT Hessian and TD-DFT gradient, (ASA, deprecated), ECA, 1-Electron XAS/XES, NRVS
   Peter Pinski           : DLPNO-MP2, DLPNO-MP2 Gradient
   Christoph Reimann      : Effective Core Potentials
   Marius Retegan         : Local ZFS, SOC
   Christoph Riplinger    : Optimizer, TS searches, QM/MM, DLPNO-CCSD(T), (RO)-DLPNO pert. Triples
   Michael Roemelt        : Original ROCIS implementation
   Masaaki Saitow         : Open-shell DLPNO-CCSD energy and density
   Barbara Sandhoefer     : DKH picture change effects
   Kantharuban Sivalingam : CASSCF convergence/infrastructure, NEVPT2 and variants, FIC-MRCI
   Bernardo de Souza      : ESD, SOC TD-DFT
   Georgi Stoychev        : AutoAux, RI-MP2 NMR, DLPNO-MP2 response, X2C
   Van Anh Tran           : RI-MP2 g-tensors
   Willem Van den Heuvel  : Paramagnetic NMR
   Zikuan Wang            : NOTCH, Electric field optimization 
   Frank Wennmohs         : Technical directorship and infrastructure
   Hang Xu                : AUTO-CI-Response properties 


 We gratefully acknowledge several colleagues who have allowed us to
 interface, adapt or use parts of their codes:
   Stefan Grimme, W. Hujo, H. Kruse, P. Pracht,  : VdW corrections, initial TS optimization,
                  C. Bannwarth, S. Ehlert,         DFT functionals, gCP, sTDA/sTD-DF
                  L. Wittmann, M. Mueller
   Ed Valeev, F. Pavosevic, A. Kumar             : LibInt (2-el integral package), F12 methods
   Garnet Chan, S. Sharma, J. Yang, R. Olivares  : DMRG
   Ulf Ekstrom                                   : XCFun DFT Library
   Mihaly Kallay                                 : mrcc  (arbitrary order and MRCC methods)
   Frank Weinhold                                : gennbo (NPA and NBO analysis)
   Simon Mueller                                 : openCOSMO-RS
   Christopher J. Cramer and Donald G. Truhlar   : smd solvation model
   Lars Goerigk                                  : TD-DFT with DH, B97 family of functionals
   V. Asgeirsson, H. Jonsson                     : NEB implementation
   FAccTs GmbH                                   : IRC, NEB, NEB-TS, DLPNO-Multilevel, CI-OPT
                                                   MM, QMMM, 2- and 3-layer-ONIOM, Crystal-QMMM,
                                                   LR-CPCM, SF, NACMEs, symmetry and pop. for TD-DFT,
                                                   nearIR, NL-DFT gradient (VV10), updates on ESD,
                                                   ML-optimized integration grids, MBIS, APM,
                                                   GOAT, DOCKER, SOLVATOR, interface openCOSMO-RS
   S Lehtola, MJT Oliveira, MAL Marques          : LibXC Library
   Liviu Ungur et al                             : ANISO software


 Your calculation uses the libint2 library for the computation of 2-el integrals
 For citations please refer to: http://libint.valeyev.net

 Your ORCA version has been built with support for libXC version: 6.2.2
 For citations please refer to: https://libxc.gitlab.io

 This ORCA versions uses:
   CBLAS   interface :  Fast vector & matrix operations
   LAPACKE interface :  Fast linear algebra routines
   SCALAPACK package :  Parallel linear algebra routines
   Shared memory     :  Shared parallel matrices
   BLAS/LAPACK       :  OpenBLAS 0.3.27  USE64BITINT DYNAMIC_ARCH NO_AFFINITY SkylakeX SINGLE_THREADED
        Core in use  :  SkylakeX
   Copyright (c) 2011-2014, The OpenBLAS Project


Your calculation utilizes the geometrical counterpoise correction gCP
Please cite in your paper:
H.Kruse, S. Grimme J.Chem.Phys., 136, (2012), 154101 
   

Your calculation utilizes the atom-pairwise dispersion correction
based on EEQ partial charges (D4)


Your calculation utilizes the SMD solvation module
Please cite in your paper:
A.V. Marenich, C.J. Cramer, D.G. Truhlar J. Phys. Chem. B, 113, (2009), 6378 

================================================================================

----- Orbital basis set information -----
Your calculation utilizes the basis: def2-mTZVPP
   Stefan Grimme, Andreas Hansen, Sebastian Ehlert, and Jan-Michael Mewes 
   J. Chem. Phys. 154, 064103 (2021). DOI: 10.1063/5.0040021

----- AuxJ basis set information -----
Your calculation utilizes the auxiliary basis: def2/J
   F. Weigend, Phys. Chem. Chem. Phys. 8, 1057 (2006).

================================================================================
                                        WARNINGS
                       Please study these warnings very carefully!
================================================================================

Using LibXC functional ID 497 : Re-regularized SCAN exchange by Furness et al
[ 1]  J. W. Furness, A. D. Kaplan, J. Ning, J. P. Perdew, and J. Sun.,  J. Phys. Chem. Lett. 11, 8208-8215 (2020)
[ 2]  J. W. Furness, A. D. Kaplan, J. Ning, J. P. Perdew, and J. Sun.,  J. Phys. Chem. Lett. 11, 9248-9248 (2020)
Using LibXC functional ID 498 : Re-regularized SCAN correlation by Furness et al
[ 1]  J. W. Furness, A. D. Kaplan, J. Ning, J. P. Perdew, and J. Sun.,  J. Phys. Chem. Lett. 11, 8208-8215 (2020)
[ 2]  J. W. Furness, A. D. Kaplan, J. Ning, J. P. Perdew, and J. Sun.,  J. Phys. Chem. Lett. 11, 9248-9248 (2020)
Using LibXC functional ID 497 : Re-regularized SCAN exchange by Furness et al
[ 1]  J. W. Furness, A. D. Kaplan, J. Ning, J. P. Perdew, and J. Sun.,  J. Phys. Chem. Lett. 11, 8208-8215 (2020)
[ 2]  J. W. Furness, A. D. Kaplan, J. Ning, J. P. Perdew, and J. Sun.,  J. Phys. Chem. Lett. 11, 9248-9248 (2020)
Using LibXC functional ID 498 : Re-regularized SCAN correlation by Furness et al
[ 1]  J. W. Furness, A. D. Kaplan, J. Ning, J. P. Perdew, and J. Sun.,  J. Phys. Chem. Lett. 11, 8208-8215 (2020)
[ 2]  J. W. Furness, A. D. Kaplan, J. Ning, J. P. Perdew, and J. Sun.,  J. Phys. Chem. Lett. 11, 9248-9248 (2020)

================================================================================
                                       INPUT FILE
================================================================================
NAME = sp_solv.inp
|  1> ! r2scan-3c def2/J RI DEFGRID2 scfconv6 printgap
|  2> %output
|  3>     printlevel normal
|  4> end
|  5> %cpcm
|  6>     smd true
|  7>     smdsolvent "water"
|  8> end
|  9> * xyz 0 1
| 10> C -2.5161844943 0.5665002401 0.6547964828
| 11> C -1.3382709851 -0.2119550035 0.0703911149
| 12> C -1.5359962066 -0.4006967094 -1.432058176
| 13> C -0.0228992179 0.5150292965 0.3741312844
| 14> C 1.2376584258 -0.3190092373 0.0687898757
| 15> C 2.0837618299 0.3324621855 -1.0240014756
| 16> C 2.0784326697 -0.5202421683 1.3291633333
| 17> H -2.5652055884 1.561340316 0.2170729219
| 18> H -3.4528296647 0.0542204747 0.4477372226
| 19> H -2.4131627531 0.6702658409 1.7325133911
| 20> H -1.3063161437 -1.1987940888 0.5470453068
| 21> H -0.7158032014 -0.9656417711 -1.8673004336
| 22> H -2.4612693286 -0.9378186656 -1.6286559037
| 23> H -1.5892530372 0.5664940641 -1.9279568978
| 24> H -0.0211415767 0.7912474328 1.4303538889
| 25> H 0.0003142773 1.4433594412 -0.2000124538
| 26> H 0.9288245444 -1.3086997058 -0.2846916096
| 27> H 2.9473288373 -0.2865278291 -1.2586543715
| 28> H 1.5016577668 0.4670688784 -1.9325478901
| 29> H 2.4407782352 1.3062454683 -0.6947622507
| 30> H 2.9499805158 -1.1344408289 1.1128539709
| 31> H 2.4218723767 0.4381596616 1.7132392401
| 32> H 1.4950782158 -1.0146940084 2.1026431267
| 33> *
| 34> 
| 35>                          ****END OF INPUT****
================================================================================

                       ****************************
                       * Single Point Calculation *
                       ****************************

---------------------------------
CARTESIAN COORDINATES (ANGSTROEM)
---------------------------------
  C     -2.516184    0.566500    0.654796
  C     -1.338271   -0.211955    0.070391
  C     -1.535996   -0.400697   -1.432058
  C     -0.022899    0.515029    0.374131
  C      1.237658   -0.319009    0.068790
  C      2.083762    0.332462   -1.024001
  C      2.078433   -0.520242    1.329163
  H     -2.565206    1.561340    0.217073
  H     -3.452830    0.054220    0.447737
  H     -2.413163    0.670266    1.732513
  H     -1.306316   -1.198794    0.547045
  H     -0.715803   -0.965642   -1.867300
  H     -2.461269   -0.937819   -1.628656
  H     -1.589253    0.566494   -1.927957
  H     -0.021142    0.791247    1.430354
  H      0.000314    1.443359   -0.200012
  H      0.928825   -1.308700   -0.284692
  H      2.947329   -0.286528   -1.258654
  H      1.501658    0.467069   -1.932548
  H      2.440778    1.306245   -0.694762
  H      2.949981   -1.134441    1.112854
  H      2.421872    0.438160    1.713239
  H      1.495078   -1.014694    2.102643

----------------------------
CARTESIAN COORDINATES (A.U.)
----------------------------
  NO LB      ZA    FRAG     MASS         X           Y           Z
   0 C     6.0000    0    12.011   -4.754900    1.070530    1.237386
   1 C     6.0000    0    12.011   -2.528966   -0.400537    0.133020
   2 C     6.0000    0    12.011   -2.902612   -0.757207   -2.706198
   3 C     6.0000    0    12.011   -0.043273    0.973264    0.707006
   4 C     6.0000    0    12.011    2.338835   -0.602840    0.129994
   5 C     6.0000    0    12.011    3.937739    0.628262   -1.935082
   6 C     6.0000    0    12.011    3.927669   -0.983115    2.511755
   7 H     1.0000    0     1.008   -4.847536    2.950506    0.410208
   8 H     1.0000    0     1.008   -6.524902    0.102462    0.846101
   9 H     1.0000    0     1.008   -4.560217    1.266619    3.273976
  10 H     1.0000    0     1.008   -2.468580   -2.265393    1.033766
  11 H     1.0000    0     1.008   -1.352672   -1.824798   -3.528686
  12 H     1.0000    0     1.008   -4.651125   -1.772220   -3.077714
  13 H     1.0000    0     1.008   -3.003253    1.070519   -3.643311
  14 H     1.0000    0     1.008   -0.039952    1.495241    2.702977
  15 H     1.0000    0     1.008    0.000594    2.727554   -0.377969
  16 H     1.0000    0     1.008    1.755224   -2.473084   -0.537989
  17 H     1.0000    0     1.008    5.569644   -0.541459   -2.378512
  18 H     1.0000    0     1.008    2.837722    0.882632   -3.651986
  19 H     1.0000    0     1.008    4.612402    2.468446   -1.312910
  20 H     1.0000    0     1.008    5.574655   -2.143782    2.102989
  21 H     1.0000    0     1.008    4.576676    0.828002    3.237553
  22 H     1.0000    0     1.008    2.825288   -1.917494    3.973420

--------------------------------
INTERNAL COORDINATES (ANGSTROEM)
--------------------------------
 C      0   0   0     0.000000000000     0.00000000     0.00000000
 C      1   0   0     1.528071475905     0.00000000     0.00000000
 C      2   1   0     1.527112493070   109.84190801     0.00000000
 C      2   1   3     1.533286388435   110.12024202   123.02260317
 C      4   2   1     1.542030876740   113.92963530   168.78845592
 C      5   4   2     1.527906712673   111.32703235   117.11137365
 C      5   4   2     1.528377333759   110.95398910   239.92193494
 H      1   2   3     1.087985183746   110.28478545   297.42125686
 H      1   2   3     1.087477940239   110.55664571    57.26588665
 H      1   2   3     1.087591151814   110.76649586   177.41376367
 H      2   1   3     1.096390309525   108.34465581   241.42233237
 H      3   2   1     1.086883301610   111.13201139   180.83729697
 H      3   2   1     1.087787209276   110.42453364   300.95939555
 H      3   2   1     1.088214052763   110.17128849    60.61265549
 H      4   2   1     1.091744355781   108.23964807    47.25279149
 H      4   2   1     1.091776880151   108.49477405   291.39068360
 H      5   4   2     1.095360557164   108.79058105   358.09783290
 H      6   5   4     1.088098615015   110.55943096   182.36292066
 H      6   5   4     1.087391690860   110.72761695   302.47861888
 H      6   5   4     1.088169592815   110.29457246    62.61503939
 H      7   5   4     1.087945487139   110.55223353   178.28850856
 H      7   5   4     1.088117274049   110.41022882   298.15480105
 H      7   5   4     1.087683792222   110.56338730    58.33676189

---------------------------
INTERNAL COORDINATES (A.U.)
---------------------------
 C      0   0   0     0.000000000000     0.00000000     0.00000000
 C      1   0   0     2.887636602517     0.00000000     0.00000000
 C      2   1   0     2.885824387591   109.84190801     0.00000000
 C      2   1   3     2.897491359012   110.12024202   123.02260317
 C      4   2   1     2.914016047090   113.92963530   168.78845592
 C      5   4   2     2.887325245132   111.32703235   117.11137365
 C      5   4   2     2.888214590097   110.95398910   239.92193494
 H      1   2   3     2.055994035044   110.28478545   297.42125686
 H      1   2   3     2.055035483733   110.55664571    57.26588665
 H      1   2   3     2.055249422605   110.76649586   177.41376367
 H      2   1   3     2.071877420888   108.34465581   241.42233237
 H      3   2   1     2.053911779575   111.13201139   180.83729697
 H      3   2   1     2.055619917514   110.42453364   300.95939555
 H      3   2   1     2.056426534808   110.17128849    60.61265549
 H      4   2   1     2.063097840681   108.23964807    47.25279149
 H      4   2   1     2.063159302832   108.49477405   291.39068360
 H      5   4   2     2.069931470939   108.79058105   358.09783290
 H      6   5   4     2.056208389078   110.55943096   182.36292066
 H      6   5   4     2.054872496027   110.72761695   302.47861888
 H      6   5   4     2.056342517681   110.29457246    62.61503939
 H      7   5   4     2.055919019328   110.55223353   178.28850856
 H      7   5   4     2.056243649542   110.41022882   298.15480105
 H      7   5   4     2.055424487604   110.56338730    58.33676189

---------------------
BASIS SET INFORMATION
---------------------
There are 2 groups of distinct atoms

 Group   1 Type C   : 11s6p1d contracted to 5s3p1d pattern {62111/411/1}
 Group   2 Type H   : 4s1p contracted to 2s1p pattern {31/1}

Atom   0C    basis set group =>   1
Atom   1C    basis set group =>   1
Atom   2C    basis set group =>   1
Atom   3C    basis set group =>   1
Atom   4C    basis set group =>   1
Atom   5C    basis set group =>   1
Atom   6C    basis set group =>   1
Atom   7H    basis set group =>   2
Atom   8H    basis set group =>   2
Atom   9H    basis set group =>   2
Atom  10H    basis set group =>   2
Atom  11H    basis set group =>   2
Atom  12H    basis set group =>   2
Atom  13H    basis set group =>   2
Atom  14H    basis set group =>   2
Atom  15H    basis set group =>   2
Atom  16H    basis set group =>   2
Atom  17H    basis set group =>   2
Atom  18H    basis set group =>   2
Atom  19H    basis set group =>   2
Atom  20H    basis set group =>   2
Atom  21H    basis set group =>   2
Atom  22H    basis set group =>   2
---------------------------------
AUXILIARY/J BASIS SET INFORMATION
---------------------------------
There are 2 groups of distinct atoms

 Group   1 Type C   : 12s5p4d2f1g contracted to 6s4p3d1f1g pattern {711111/2111/211/2/1}
 Group   2 Type H   : 5s2p1d contracted to 3s1p1d pattern {311/2/1}

Atom   0C    basis set group =>   1
Atom   1C    basis set group =>   1
Atom   2C    basis set group =>   1
Atom   3C    basis set group =>   1
Atom   4C    basis set group =>   1
Atom   5C    basis set group =>   1
Atom   6C    basis set group =>   1
Atom   7H    basis set group =>   2
Atom   8H    basis set group =>   2
Atom   9H    basis set group =>   2
Atom  10H    basis set group =>   2
Atom  11H    basis set group =>   2
Atom  12H    basis set group =>   2
Atom  13H    basis set group =>   2
Atom  14H    basis set group =>   2
Atom  15H    basis set group =>   2
Atom  16H    basis set group =>   2
Atom  17H    basis set group =>   2
Atom  18H    basis set group =>   2
Atom  19H    basis set group =>   2
Atom  20H    basis set group =>   2
Atom  21H    basis set group =>   2
Atom  22H    basis set group =>   2

Checking for AutoStart:
The File: sp_solv.gbw exists
Trying to determine its content:
     ... Fine, the file contains calculation information
     ... Fine, the calculation information was read
     ... Fine, the file contains a basis set
     ... Fine, the basis set was read
     ... Fine, the file contains a geometry
     ... Fine, the geometry was read
     ... Fine, the file contains a set of orbitals
     ... Fine, the orbitals can be read
     => possible old guess file was deleted
     => GBW file was renamed to GES file
     => GES file is set as startup file
     => Guess is set to MORead
     ... now leaving AutoStart

------------------------------------------------------------------------------
                             ORCA STARTUP CALCULATIONS
                           -- RI-GTO INTEGRALS CHOSEN --
------------------------------------------------------------------------------
------------------------------------------------------------------------------
                   ___                                                        
                  /   \      - P O W E R E D   B Y -                         
                 /     \                                                     
                 |  |  |   _    _      __       _____    __    __             
                 |  |  |  | |  | |    /  \     |  _  \  |  |  /  |          
                  \  \/   | |  | |   /    \    | | | |  |  | /  /          
                 / \  \   | |__| |  /  /\  \   | |_| |  |  |/  /          
                |  |  |   |  __  | /  /__\  \  |    /   |      \           
                |  |  |   | |  | | |   __   |  |    \   |  |\   \          
                \     /   | |  | | |  |  |  |  | |\  \  |  | \   \       
                 \___/    |_|  |_| |__|  |__|  |_| \__\ |__|  \__/        
                                                                              
                      - O R C A' S   B I G   F R I E N D -                    
                                      &                                       
                       - I N T E G R A L  F E E D E R -                       
                                                                              
 v1 FN, 2020, v2 2021, v3 2022-2024                                           
------------------------------------------------------------------------------


----------------------
SHARK INTEGRAL PACKAGE
----------------------

Number of atoms                             ...     23
Number of basis functions                   ...    213
Number of shells                            ...    111
Maximum angular momentum                    ...      2
Integral batch strategy                     ... SHARK/LIBINT Hybrid
RI-J (if used) integral strategy            ... SPLIT-RIJ (Revised 2003 algorithm where possible)
Printlevel                                  ...      1
Contraction scheme used                     ... SEGMENTED contraction
Prescreening option                         ... SCHWARTZ
   Thresh                                   ... 1.000e-10
   Tcut                                     ... 1.000e-11
   Tpresel                                  ... 1.000e-11 
Coulomb Range Separation                    ... NOT USED
Exchange Range Separation                   ... NOT USED
Multipole approximations                    ... NOT USED
Finite Nucleus Model                        ... NOT USED
CABS basis                                  ... NOT available
Auxiliary Coulomb fitting basis             ... AVAILABLE
   # of basis functions in Aux-J            ...    519
   # of shells in Aux-J                     ...    185
   Maximum angular momentum in Aux-J        ...      4
Auxiliary J/K fitting basis                 ... NOT available
Auxiliary Correlation fitting basis         ... NOT available
Auxiliary 'external' fitting basis          ... NOT available

Checking pre-screening integrals            ... done (  0.0 sec) Dimension = 111
Check shell pair data                       ... done (  0.0 sec)
Shell pair information
Shell pair cut-off parameter TPreSel        ...   1.0e-11
Total number of shell pairs                 ...      6216
Shell pairs after pre-screening             ...      5623
Total number of primitive shell pairs       ...     21523
Primitive shell pairs kept                  ...     14058
          la=0 lb=0:   2070 shell pairs
          la=1 lb=0:   2242 shell pairs
          la=1 lb=1:    629 shell pairs
          la=2 lb=0:    424 shell pairs
          la=2 lb=1:    232 shell pairs
          la=2 lb=2:     26 shell pairs

Calculating one electron integrals          ... done (  0.0 sec)
Calculating RI/J V-Matrix + Cholesky decomp.... done (  0.1 sec)
Calculating Nuclear repulsion               ... done (  0.0 sec) ENN=    331.191772228733 Eh

Diagonalization of the overlap matrix:
Smallest eigenvalue                        ... 1.545e-04
Time for diagonalization                   ...    0.005 sec
Threshold for overlap eigenvalues          ... 1.000e-07
Number of eigenvalues below threshold      ... 0
Time for construction of square roots      ...    0.015 sec
Total time needed                          ...    0.031 sec

-------------------
DFT GRID GENERATION
-------------------

General Integration Accuracy     IntAcc      ... 4.388
Radial Grid Type                 RadialGrid  ... OptM3 with GC (2021)
Angular Grid (max. ang.)         AngularGrid ... 4 (Lebedev-302)
Angular grid pruning method      GridPruning ... 4 (adaptive)
Weight generation scheme         WeightScheme... mBecke (2022)
Basis function cutoff            BFCut       ... 1.0000e-10
Integration weight cutoff        WCut        ... 1.0000e-14
Partially contracted basis set               ... off
Rotationally invariant grid construction     ... off
Angular grids for H and He will be reduced by one unit

Total number of grid points                  ...    92924
Total number of batches                      ...     1465
Average number of points per batch           ...       63
Average number of grid points per atom       ...     4040
Initializing property integral containers    ... done (  0.0 sec)

SHARK setup successfully completed in   1.4 seconds

Maximum memory used throughout the entire STARTUP-calculation: 38.9 MB
-------------------------------------------------------------------------------
                                 ORCA GUESS
                   Start orbitals & Density for SCF / CASSCF
-------------------------------------------------------------------------------

------------
SCF SETTINGS
------------
Hamiltonian:
 Density Functional     Method          .... DFT(GTOs)
  Functional kind                       .... Exchange
  Functional name                       .... Re-regularized SCAN exchange by Furness et al
  Functional family                     .... MGGA
  Functional refs                              
    [ 0] J. W. Furness, A. D. Kaplan, J. Ning, J. P. Perdew, and J. Sun.,  J. Phys. Chem. Lett. 11, 8208-8215 (2020), doi: 10.1021/acs.jpclett.0c02405
    [ 1] J. W. Furness, A. D. Kaplan, J. Ning, J. P. Perdew, and J. Sun.,  J. Phys. Chem. Lett. 11, 9248-9248 (2020), doi: 10.1021/acs.jpclett.0c03077
  Functional external parameters        .... 6
    Parameter  0 _c1        =  6.670000e-01 : c1 parameter        
    Parameter  1 _c2        =  8.000000e-01 : c2 parameter        
    Parameter  2 _d         =  1.240000e+00 : d parameter         
    Parameter  3 _k1        =  6.500000e-02 : k1 parameter        
    Parameter  4 _eta       =  1.000000e-03 : eta parameter       
    Parameter  5 _dp2       =  3.610000e-01 : dp2 parameter       
  Functional kind                       .... Correlation
  Functional name                       .... Re-regularized SCAN correlation by Furness et al
  Functional family                     .... MGGA
  Functional refs                              
    [ 0] J. W. Furness, A. D. Kaplan, J. Ning, J. P. Perdew, and J. Sun.,  J. Phys. Chem. Lett. 11, 8208-8215 (2020), doi: 10.1021/acs.jpclett.0c02405
    [ 1] J. W. Furness, A. D. Kaplan, J. Ning, J. P. Perdew, and J. Sun.,  J. Phys. Chem. Lett. 11, 9248-9248 (2020), doi: 10.1021/acs.jpclett.0c03077
  Functional external parameters        .... 1
    Parameter  0 _eta       =  1.000000e-03 : Regularization parameter
 Gradients option       PostSCFGGA      .... off
 RI-approximation to the Coulomb term is turned on
   Number of AuxJ basis functions       .... 519


General Settings:
 Integral files         IntName         .... sp_solv
 Hartree-Fock type      HFTyp           .... RHF
 Total Charge           Charge          ....    0
 Multiplicity           Mult            ....    1
 Number of Electrons    NEL             ....   58
 Basis Dimension        Dim             ....  213
 Nuclear Repulsion      ENuc            ....    331.1917722287 Eh

Convergence Acceleration:
 AO-DIIS                CNVDIIS         .... on
   Start iteration      DIISMaxIt       ....    12
   Startup error        DIISStart       ....  0.200000
   # of expansion vecs  DIISMaxEq       ....     5
   Bias factor          DIISBfac        ....   1.050
   Max. coefficient     DIISMaxC        ....  10.000
 MO-DIIS                CNVKDIIS        .... off
 Trust-Rad. Augm. Hess. CNVTRAH         .... auto
   Auto Start mean grad. ratio tolernc. ....  1.125000
   Auto Start start iteration           ....     1
   Auto Start num. interpolation iter.  ....    10
   Max. Number of Micro iterations      ....    24
   Max. Number of Macro iterations      .... Maxiter - #DIIS iter
   Number of Davidson start vectors     ....     2
   Converg. threshold    (grad. norm)   ....   3.330e-04
   Grad. Scal. Fac. for Micro threshold ....   0.100
   Minimum threshold for Micro iter.    ....   1.000e-02
   NR start threshold (gradient norm)   ....   1.000e-04
   Initial trust radius                 ....   0.400
   Minimum AH scaling param. (alpha)    ....   1.000
   Maximum AH scaling param. (alpha)    .... 1000.000
   Quad. conv. algorithm                .... NR
   White noise on init. David. guess    .... on
   Maximum white noise                  ....   0.010
   Pseudo random numbers                .... off
   Inactive MOs                         .... canonical
   Orbital update algorithm             .... Taylor
   Preconditioner                       .... Diag
   Full preconditioner red. dimension   ....   250
   COSX micro iterations for RIJONX calc.... off
 SOSCF                  CNVSOSCF        .... on
   Start iteration      SOSCFMaxIt      ....   150
   Startup grad/error   SOSCFStart      ....  0.003300
   Hessian update       SOSCFHessUp     .... L-BFGS
 Level Shifting         CNVShift        .... on
   Level shift para.    LevelShift      ....    0.2500
   Turn off err/grad.   ShiftErr        ....    0.0010
 Zerner damping         CNVZerner       .... off
 Static damping         CNVDamp         .... on
   Fraction old density DampFac         ....    0.7000
   Max. Damping (<1)    DampMax         ....    0.9800
   Min. Damping (>=0)   DampMin         ....    0.0000
   Turn off err/grad.   DampErr         ....    0.1000

SCF Procedure:
 Maximum # iterations   MaxIter         ....   125
 SCF integral mode      SCFMode         .... Direct
   Integral package                     .... SHARK and LIBINT hybrid scheme
 Reset frequency        DirectResetFreq ....    20
 Integral Threshold     Thresh          ....  1.000e-10 Eh
 Primitive CutOff       TCut            ....  1.000e-11 Eh

Convergence Tolerance:
 Convergence Check Mode ConvCheckMode   .... Total+1el-Energy
 Convergence forced     ConvForced      .... 0
 Energy Change          TolE            ....  1.000e-06 Eh
 1-El. energy change                    ....  1.000e-03 Eh
 Orbital Gradient       TolG            ....  3.330e-04
 Orbital Rotation angle TolX            ....  3.330e-04
 DIIS Error             TolErr          ....  1.000e-06

---------------------
INITIAL GUESS: MOREAD
---------------------
Guess MOs are being read from file: sp_solv.ges
Input Geometry matches current geometry (good)
Atom 0: N(Shells)= 9 and 6 - projection required
Input basis set needs projection
NBasis(read)= 130
NBasis(calc)= 213
Basis set overlap was calculated
Using GuessMode=FMatrix for the initial guess
C*T matrix was formed
Effective Fockian was calculated
Effective Fockian was diagonalized
Initial density was built
                      ------------------
                      INITIAL GUESS DONE (   0.0 sec)
                      ------------------
             **** ENERGY FILE WAS UPDATED (sp_solv.en.tmp) ****
Finished Guess after   0.4 sec
Maximum memory used throughout the entire GUESS-calculation: 14.7 MB

-------------------------------------------------------------------------------------------
                                      ORCA LEAN-SCF
                              memory conserving SCF solver
-------------------------------------------------------------------------------------------

--------------------
CPCM SOLVATION MODEL
--------------------
CPCM parameters:
  Epsilon                                         ...      78.3550
  Refrac                                          ...       1.3328
  Rsolv                                           ...       1.3000
  Surface type                                    ... GAUSSIAN VDW
  Discretization scheme                           ... Constant charge density
    Threshold for H atoms                         ...       5.0000 (charges/Ang^2)
    Threshold for non-H atoms                     ...       5.0000 (charges/Ang^2)
  Epsilon function type                           ...         CPCM
Solvent:                                          ... WATER
SMD-CDS solvent descriptors:
  Soln                                            ...       1.3328
  Soln25                                          ...       1.3323
  Sola                                            ...       0.0000
  Solb                                            ...       0.0000
  Solg                                            ...       0.0000
  Solc                                            ...       0.0000
  Solh                                            ...       0.0000
Radii:
  Scheme                                          ... Element-dependent radii
  Radius for C  used is    3.4960 Bohr (=   1.8500 Ang.)
  Radius for H  used is    2.2677 Bohr (=   1.2000 Ang.)
Calculating surface                               ...        done! (  0.0s)
Cavity surface points                             ...         1675
Cavity Volume                                     ...     916.4648
Cavity Surface-area                               ...     599.9858
Calculating surface distance matrix               ...        done! (  0.0s)
Performing Cholesky decomposition & store         ...        done! (  0.1s)
Overall time for CPCM initialization              ...                 0.2s

----------------------------------------D-I-I-S--------------------------------------------
Iteration    Energy (Eh)           Delta-E    RMSDP     MaxDP     DIISErr   Damp  Time(sec)
-------------------------------------------------------------------------------------------
               ***  Starting incremental Fock matrix formation  ***
    1    -276.1429512352170264     0.00e+00  3.49e-03  1.30e-01  2.84e-01  0.700   3.6
    2    -276.1873446869603299    -4.44e-02  2.83e-03  8.32e-02  1.99e-01  0.700   3.4
                               ***Turning on AO-DIIS***
    3    -276.2188115425531691    -3.15e-02  2.11e-03  6.11e-02  1.40e-01  0.700   3.3
    4    -276.2409218535105424    -2.21e-02  1.52e-03  4.35e-02  9.77e-02  0.700   3.3
    5    -276.2564412626581429    -1.55e-02  3.60e-03  1.02e-01  6.84e-02  0.000   3.2
                              *** Initializing SOSCF ***
---------------------------------------S-O-S-C-F--------------------------------------
Iteration    Energy (Eh)           Delta-E    RMSDP     MaxDP     MaxGrad    Time(sec)
--------------------------------------------------------------------------------------
    6    -276.2928060663315932    -3.64e-02  6.07e-05  1.92e-03  2.52e-04     3.4
               *** Restarting incremental Fock matrix formation ***
    7    -276.2928072963916861    -1.23e-06  2.51e-05  6.21e-04  3.94e-05     3.7
                  *** Gradient check signals convergence ***

               *****************************************************
               *                     SUCCESS                       *
               *           SCF CONVERGED AFTER   7 CYCLES          *
               *****************************************************


SMD CDS free energy correction energy :                 4.02340     Kcal/mol
Total Energy after SMD CDS correction =              -276.286395596 Eh
             **** ENERGY FILE WAS UPDATED (sp_solv.en.tmp) ****

----------------
TOTAL SCF ENERGY
----------------

Total Energy       :       -276.28639559607666 Eh           -7518.13504 eV

Components:
Nuclear Repulsion  :        331.19177222873299 Eh            9012.18629 eV
Electronic Energy  :       -607.48201392022861 Eh          -16530.42599 eV
One Electron Energy:      -1026.55413818662737 Eh          -27933.95824 eV
Two Electron Energy:        419.07212426639876 Eh           11403.53225 eV
CPCM Dielectric    :         -0.00256560489604 Eh              -0.06981 eV
SMD CDS (Gcds)     :          0.00641170031500 Eh               0.17447 eV

Virial components:
Potential Energy   :       -551.25576539501185 Eh          -15000.43198 eV
Kinetic Energy     :        274.96936979893519 Eh            7482.29694 eV
Virial Ratio       :          2.00478971820790

DFT components:
N(Alpha)           :       29.000035447253 electrons
N(Beta)            :       29.000035447253 electrons
N(Total)           :       58.000070894506 electrons
E(X)               :      -42.135530088282 Eh       
E(C)               :       -1.780152915478 Eh       
E(XC)              :      -43.915683003760 Eh       

CPCM Solvation Model Properties:
Surface-charge          :         -0.05283005755798
Corrected charge        :         -0.00000000000000
Outlying charge corr.   :          0.00021198473876 Eh               0.00577 eV
Free-energy (cav+disp)  :          0.00641170031500 Eh               0.17447 eV

---------------
SCF CONVERGENCE
---------------

  Last Energy change         ...    1.2301e-06  Tolerance :   1.0000e-06
  Last MAX-Density change    ...    6.2093e-04  Tolerance :   1.0000e-05
  Last RMS-Density change    ...    2.5103e-05  Tolerance :   1.0000e-06
  Last DIIS Error            ...    2.5239e-04  Tolerance :   1.0000e-06
  Last Orbital Gradient      ...    3.9377e-05  Tolerance :   3.3300e-04
  Last Orbital Rotation      ...    7.1744e-05  Tolerance :   3.3300e-04


----------------
ORBITAL ENERGIES
----------------

  NO   OCC          E(Eh)            E(eV) 
   0   2.0000     -10.022830      -272.7351 
   1   2.0000     -10.021688      -272.7040 
   2   2.0000     -10.008017      -272.3320 
   3   2.0000     -10.005021      -272.2505 
   4   2.0000     -10.004798      -272.2444 
   5   2.0000     -10.004766      -272.2435 
   6   2.0000     -10.004747      -272.2430 
   7   2.0000      -0.777895       -21.1676 
   8   2.0000      -0.735925       -20.0255 
   9   2.0000      -0.642694       -17.4886 
  10   2.0000      -0.637996       -17.3608 
  11   2.0000      -0.632460       -17.2101 
  12   2.0000      -0.527387       -14.3509 
  13   2.0000      -0.514067       -13.9885 
  14   2.0000      -0.427318       -11.6279 
  15   2.0000      -0.415449       -11.3050 
  16   2.0000      -0.399857       -10.8807 
  17   2.0000      -0.384101       -10.4519 
  18   2.0000      -0.371883       -10.1194 
  19   2.0000      -0.356331        -9.6963 
  20   2.0000      -0.345701        -9.4070 
  21   2.0000      -0.341636        -9.2964 
  22   2.0000      -0.322872        -8.7858 
  23   2.0000      -0.314987        -8.5712 
  24   2.0000      -0.295759        -8.0480 
  25   2.0000      -0.290895        -7.9157 
  26   2.0000      -0.275484        -7.4963 
  27   2.0000      -0.272471        -7.4143 
  28   2.0000      -0.262811        -7.1515 
  29   0.0000       0.089227         2.4280 
  30   0.0000       0.104950         2.8558 
  31   0.0000       0.119628         3.2552 
  32   0.0000       0.125984         3.4282 
  33   0.0000       0.138394         3.7659 
  34   0.0000       0.139462         3.7950 
  35   0.0000       0.146590         3.9889 
  36   0.0000       0.148735         4.0473 
  37   0.0000       0.153339         4.1726 
  38   0.0000       0.164710         4.4820 
  39   0.0000       0.173292         4.7155 
*Only the first 10 virtual orbitals were printed.

                    ********************************
                    * MULLIKEN POPULATION ANALYSIS *
                    ********************************

-----------------------
MULLIKEN ATOMIC CHARGES
-----------------------
   0 C :   -0.530037
   1 C :   -0.020853
   2 C :   -0.546104
   3 C :   -0.352016
   4 C :    0.026271
   5 C :   -0.550746
   6 C :   -0.553699
   7 H :    0.156487
   8 H :    0.156623
   9 H :    0.155724
  10 H :    0.153774
  11 H :    0.159410
  12 H :    0.155583
  13 H :    0.163513
  14 H :    0.157167
  15 H :    0.165247
  16 H :    0.158796
  17 H :    0.154473
  18 H :    0.157536
  19 H :    0.160398
  20 H :    0.154251
  21 H :    0.161245
  22 H :    0.156955
Sum of atomic charges:    0.0000000

--------------------------------
MULLIKEN REDUCED ORBITAL CHARGES
--------------------------------
  0 C s       :     3.350551  s :     3.350551
      pz      :     1.085695  p :     3.152368
      px      :     1.015637
      py      :     1.051037
      dz2     :     0.008116  d :     0.027118
      dxz     :     0.002946
      dyz     :     0.003516
      dx2y2   :     0.006735
      dxy     :     0.005804

  1 C s       :     3.096580  s :     3.096580
      pz      :     0.921528  p :     2.877592
      px      :     0.923236
      py      :     1.032828
      dz2     :     0.011186  d :     0.046681
      dxz     :     0.008558
      dyz     :     0.008457
      dx2y2   :     0.009563
      dxy     :     0.008917

  2 C s       :     3.353685  s :     3.353685
      pz      :     0.954186  p :     3.165283
      px      :     1.111961
      py      :     1.099135
      dz2     :     0.006916  d :     0.027135
      dxz     :     0.004954
      dyz     :     0.006751
      dx2y2   :     0.003383
      dxy     :     0.005131

  3 C s       :     3.257240  s :     3.257240
      pz      :     1.110187  p :     3.059148
      px      :     0.950438
      py      :     0.998522
      dz2     :     0.007790  d :     0.035628
      dxz     :     0.004574
      dyz     :     0.006084
      dx2y2   :     0.008927
      dxy     :     0.008254

  4 C s       :     3.064556  s :     3.064556
      pz      :     0.896118  p :     2.863531
      px      :     0.942933
      py      :     1.024481
      dz2     :     0.009104  d :     0.045642
      dxz     :     0.011595
      dyz     :     0.007716
      dx2y2   :     0.008000
      dxy     :     0.009227

  5 C s       :     3.365822  s :     3.365822
      pz      :     1.035146  p :     3.157509
      px      :     1.061140
      py      :     1.061222
      dz2     :     0.006182  d :     0.027414
      dxz     :     0.007025
      dyz     :     0.003776
      dx2y2   :     0.003916
      dxy     :     0.006515

  6 C s       :     3.370732  s :     3.370732
      pz      :     0.996759  p :     3.155529
      px      :     1.062393
      py      :     1.096377
      dz2     :     0.005414  d :     0.027438
      dxz     :     0.006934
      dyz     :     0.005714
      dx2y2   :     0.002905
      dxy     :     0.006472

  7 H s       :     0.825261  s :     0.825261
      pz      :     0.004801  p :     0.018251
      px      :     0.003624
      py      :     0.009826

  8 H s       :     0.825066  s :     0.825066
      pz      :     0.003924  p :     0.018312
      px      :     0.009193
      py      :     0.005195

  9 H s       :     0.825977  s :     0.825977
      pz      :     0.010873  p :     0.018298
      px      :     0.003632
      py      :     0.003793

 10 H s       :     0.828725  s :     0.828725
      pz      :     0.004706  p :     0.017500
      px      :     0.003234
      py      :     0.009561

 11 H s       :     0.822123  s :     0.822123
      pz      :     0.004844  p :     0.018467
      px      :     0.007979
      py      :     0.005644

 12 H s       :     0.826126  s :     0.826126
      pz      :     0.003864  p :     0.018291
      px      :     0.008985
      py      :     0.005443

 13 H s       :     0.818280  s :     0.818280
      pz      :     0.005121  p :     0.018207
      px      :     0.003708
      py      :     0.009379

 14 H s       :     0.824731  s :     0.824731
      pz      :     0.010532  p :     0.018102
      px      :     0.003449
      py      :     0.004121

 15 H s       :     0.816775  s :     0.816775
      pz      :     0.005603  p :     0.017978
      px      :     0.003425
      py      :     0.008950

 16 H s       :     0.823555  s :     0.823555
      pz      :     0.004204  p :     0.017649
      px      :     0.003902
      py      :     0.009542

 17 H s       :     0.827290  s :     0.827290
      pz      :     0.003957  p :     0.018237
      px      :     0.008354
      py      :     0.005926

 18 H s       :     0.824157  s :     0.824157
      pz      :     0.008809  p :     0.018306
      px      :     0.005662
      py      :     0.003835

 19 H s       :     0.821399  s :     0.821399
      pz      :     0.004202  p :     0.018203
      px      :     0.004448
      py      :     0.009554

 20 H s       :     0.827504  s :     0.827504
      pz      :     0.003819  p :     0.018245
      px      :     0.008455
      py      :     0.005971

 21 H s       :     0.820575  s :     0.820575
      pz      :     0.004557  p :     0.018180
      px      :     0.004381
      py      :     0.009242

 22 H s       :     0.824776  s :     0.824776
      pz      :     0.007472  p :     0.018269
      px      :     0.005624
      py      :     0.005172


------------------------
MULLIKEN OVERLAP CHARGES
------------------------
B(  0-C ,  1-C ) :   0.5150 B(  0-C ,  2-C ) :  -0.2227 B(  0-C ,  3-C ) :  -0.2184 
B(  0-C ,  7-H ) :   0.8575 B(  0-C ,  8-H ) :   0.8182 B(  0-C ,  9-H ) :   0.8165 
B(  0-C , 10-H ) :  -0.0649 B(  1-C ,  2-C ) :   0.4622 B(  1-C ,  3-C ) :   0.1949 
B(  1-C ,  4-C ) :   0.0822 B(  1-C ,  7-H ) :  -0.0927 B(  1-C ,  8-H ) :  -0.0929 
B(  1-C ,  9-H ) :  -0.0823 B(  1-C , 10-H ) :   0.8792 B(  1-C , 11-H ) :  -0.0597 
B(  1-C , 12-H ) :  -0.0837 B(  1-C , 13-H ) :  -0.1108 B(  1-C , 14-H ) :  -0.0733 
B(  1-C , 15-H ) :  -0.0755 B(  2-C ,  3-C ) :  -0.2093 B(  2-C , 10-H ) :  -0.0531 
B(  2-C , 11-H ) :   0.7966 B(  2-C , 12-H ) :   0.8015 B(  2-C , 13-H ) :   0.8798 
B(  3-C ,  4-C ) :   0.1225 B(  3-C ,  5-C ) :  -0.1151 B(  3-C ,  6-C ) :  -0.1053 
B(  3-C , 10-H ) :  -0.1161 B(  3-C , 14-H ) :   0.8440 B(  3-C , 15-H ) :   0.8639 
B(  3-C , 16-H ) :  -0.1822 B(  4-C ,  5-C ) :   0.4604 B(  4-C ,  6-C ) :   0.4833 
B(  4-C , 14-H ) :  -0.1149 B(  4-C , 15-H ) :  -0.1312 B(  4-C , 16-H ) :   0.8930 
B(  4-C , 17-H ) :  -0.1042 B(  4-C , 18-H ) :  -0.0723 B(  4-C , 19-H ) :  -0.0919 
B(  4-C , 20-H ) :  -0.0999 B(  4-C , 21-H ) :  -0.0952 B(  4-C , 22-H ) :  -0.0747 
B(  5-C ,  6-C ) :  -0.2127 B(  5-C , 16-H ) :  -0.0507 B(  5-C , 17-H ) :   0.8290 
B(  5-C , 18-H ) :   0.8059 B(  5-C , 19-H ) :   0.8666 B(  6-C , 16-H ) :  -0.0525 
B(  6-C , 20-H ) :   0.8284 B(  6-C , 21-H ) :   0.8713 B(  6-C , 22-H ) :   0.8129 



                     *******************************
                     * LOEWDIN POPULATION ANALYSIS *
                     *******************************

----------------------
LOEWDIN ATOMIC CHARGES
----------------------
   0 C :   -0.427994
   1 C :   -0.241779
   2 C :   -0.426359
   3 C :   -0.298673
   4 C :   -0.246738
   5 C :   -0.426675
   6 C :   -0.426473
   7 H :    0.155764
   8 H :    0.154366
   9 H :    0.154434
  10 H :    0.155885
  11 H :    0.155658
  12 H :    0.154643
  13 H :    0.155617
  14 H :    0.162488
  15 H :    0.163108
  16 H :    0.157928
  17 H :    0.153090
  18 H :    0.154311
  19 H :    0.154741
  20 H :    0.153180
  21 H :    0.154987
  22 H :    0.154488

-------------------------------
LOEWDIN REDUCED ORBITAL CHARGES
-------------------------------
  0 C s       :     2.973079  s :     2.973079
      pz      :     1.144710  p :     3.391492
      px      :     1.107937
      py      :     1.138844
      dz2     :     0.019578  d :     0.063423
      dxz     :     0.006377
      dyz     :     0.008351
      dx2y2   :     0.015359
      dxy     :     0.013758

  1 C s       :     2.909370  s :     2.909370
      pz      :     1.072481  p :     3.236412
      px      :     1.054281
      py      :     1.109651
      dz2     :     0.023997  d :     0.095996
      dxz     :     0.016088
      dyz     :     0.017189
      dx2y2   :     0.019827
      dxy     :     0.018895

  2 C s       :     2.970626  s :     2.970626
      pz      :     1.082602  p :     3.392303
      px      :     1.152380
      py      :     1.157322
      dz2     :     0.016489  d :     0.063429
      dxz     :     0.010465
      dyz     :     0.014895
      dx2y2   :     0.008624
      dxy     :     0.012957

  3 C s       :     2.934112  s :     2.934112
      pz      :     1.133655  p :     3.287415
      px      :     1.045277
      py      :     1.108483
      dz2     :     0.018415  d :     0.077145
      dxz     :     0.008170
      dyz     :     0.014085
      dx2y2   :     0.018375
      dxy     :     0.018100

  4 C s       :     2.907763  s :     2.907763
      pz      :     1.073489  p :     3.245793
      px      :     1.063184
      py      :     1.109121
      dz2     :     0.017868  d :     0.093182
      dxz     :     0.024335
      dyz     :     0.015501
      dx2y2   :     0.016086
      dxy     :     0.019392

  5 C s       :     2.973925  s :     2.973925
      pz      :     1.113193  p :     3.388791
      px      :     1.129925
      py      :     1.145673
      dz2     :     0.013778  d :     0.063959
      dxz     :     0.016851
      dyz     :     0.008717
      dx2y2   :     0.008944
      dxy     :     0.015669

  6 C s       :     2.974612  s :     2.974612
      pz      :     1.102548  p :     3.387893
      px      :     1.130463
      py      :     1.154883
      dz2     :     0.012019  d :     0.063968
      dxz     :     0.016462
      dyz     :     0.012874
      dx2y2   :     0.006925
      dxy     :     0.015687

  7 H s       :     0.800302  s :     0.800302
      pz      :     0.011252  p :     0.043934
      px      :     0.008227
      py      :     0.024455

  8 H s       :     0.801663  s :     0.801663
      pz      :     0.008824  p :     0.043971
      px      :     0.022714
      py      :     0.012433

  9 H s       :     0.801733  s :     0.801733
      pz      :     0.027149  p :     0.043834
      px      :     0.008274
      py      :     0.008411

 10 H s       :     0.801138  s :     0.801138
      pz      :     0.011611  p :     0.042977
      px      :     0.007898
      py      :     0.023469

 11 H s       :     0.799758  s :     0.799758
      pz      :     0.011600  p :     0.044583
      px      :     0.019542
      py      :     0.013442

 12 H s       :     0.801425  s :     0.801425
      pz      :     0.008925  p :     0.043932
      px      :     0.022152
      py      :     0.012855

 13 H s       :     0.800573  s :     0.800573
      pz      :     0.012177  p :     0.043810
      px      :     0.008193
      py      :     0.023441

 14 H s       :     0.793356  s :     0.793356
      pz      :     0.026350  p :     0.044157
      px      :     0.008114
      py      :     0.009693

 15 H s       :     0.792668  s :     0.792668
      pz      :     0.013565  p :     0.044224
      px      :     0.008174
      py      :     0.022485

 16 H s       :     0.798481  s :     0.798481
      pz      :     0.010470  p :     0.043591
      px      :     0.009351
      py      :     0.023770

 17 H s       :     0.803123  s :     0.803123
      pz      :     0.009051  p :     0.043787
      px      :     0.020460
      py      :     0.014276

 18 H s       :     0.801724  s :     0.801724
      pz      :     0.021804  p :     0.043965
      px      :     0.013638
      py      :     0.008523

 19 H s       :     0.801490  s :     0.801490
      pz      :     0.009822  p :     0.043769
      px      :     0.010208
      py      :     0.023739

 20 H s       :     0.803018  s :     0.803018
      pz      :     0.008873  p :     0.043801
      px      :     0.020700
      py      :     0.014227

 21 H s       :     0.801211  s :     0.801211
      pz      :     0.010615  p :     0.043802
      px      :     0.010047
      py      :     0.023139

 22 H s       :     0.801730  s :     0.801730
      pz      :     0.018165  p :     0.043782
      px      :     0.013579
      py      :     0.012039


---------------------------------
LOEWDIN BOND ORDERS (THRESH 0.050000)
---------------------------------
B(  0-C ,  1-C ) :   1.1114 B(  0-C ,  2-C ) :   0.0718 B(  0-C ,  3-C ) :   0.0767 
B(  0-C ,  7-H ) :   0.9221 B(  0-C ,  8-H ) :   0.9236 B(  0-C ,  9-H ) :   0.9253 
B(  1-C ,  2-C ) :   1.1092 B(  1-C ,  3-C ) :   1.0717 B(  1-C ,  4-C ) :   0.0728 
B(  1-C , 10-H ) :   0.8609 B(  2-C ,  3-C ) :   0.0641 B(  2-C , 11-H ) :   0.9194 
B(  2-C , 12-H ) :   0.9240 B(  2-C , 13-H ) :   0.9227 B(  3-C ,  4-C ) :   1.0496 
B(  3-C ,  5-C ) :   0.0743 B(  3-C ,  6-C ) :   0.0756 B(  3-C , 14-H ) :   0.8779 
B(  3-C , 15-H ) :   0.8798 B(  4-C ,  5-C ) :   1.1141 B(  4-C ,  6-C ) :   1.1157 
B(  4-C , 16-H ) :   0.8587 B(  5-C ,  6-C ) :   0.0719 B(  5-C , 17-H ) :   0.9244 
B(  5-C , 18-H ) :   0.9236 B(  5-C , 19-H ) :   0.9229 B(  6-C , 20-H ) :   0.9243 
B(  6-C , 21-H ) :   0.9223 B(  6-C , 22-H ) :   0.9248 

------------------------------------------
LOEWDIN REDUCED ORBITAL POPULATIONS PER MO
-------------------------------------------
THRESHOLD FOR PRINTING IS 0.1%%
                      0         1         2         3         4         5   
                 -10.02283 -10.02169 -10.00802 -10.00502 -10.00480 -10.00477
                   2.00000   2.00000   2.00000   2.00000   2.00000   2.00000
                  --------  --------  --------  --------  --------  --------
 0 C  s               0.0       0.0       0.0       0.0       0.0       1.3
 1 C  s              99.6       0.0       0.0       0.0       0.0       0.0
 2 C  s               0.0       0.0       0.0       0.0       0.1      98.3
 3 C  s               0.0       0.0      99.7       0.0       0.0       0.0
 4 C  s               0.0      99.6       0.0       0.0       0.0       0.0
 5 C  s               0.0       0.0       0.0       0.0      99.6       0.1
 6 C  s               0.0       0.0       0.0      99.7       0.0       0.0

                      6         7         8         9        10        11   
                 -10.00475  -0.77790  -0.73592  -0.64269  -0.63800  -0.63246
                   2.00000   2.00000   2.00000   2.00000   2.00000   2.00000
                  --------  --------  --------  --------  --------  --------
 0 C  s              98.4       5.6       9.0       8.8      10.0       9.2
 0 C  pz              0.0       0.3       0.4       0.4       0.3       0.0
 0 C  px              0.0       1.4       0.6       0.0       0.1       0.9
 0 C  py              0.0       0.4       0.4       0.1       0.1       0.0
 1 C  s               0.0      16.4      12.4       0.0       0.0       0.1
 1 C  pz              0.0       0.0       0.2       6.8       5.1       0.6
 1 C  px              0.1       0.5       1.7       0.4       0.8      10.7
 1 C  py              0.0       0.5       0.1       1.4       1.4       0.2
 1 C  dz2             0.0       0.0       0.0       0.1       0.1       0.1
 1 C  dxy             0.0       0.0       0.0       0.0       0.0       0.2
 2 C  s               1.3       6.0       7.8      14.3      11.7       3.1
 2 C  pz              0.0       2.0       1.3       0.5       0.4       0.1
 2 C  px              0.0       0.1       0.0       0.0       0.0       0.6
 3 C  s               0.0      16.5       0.0       0.7       0.1      20.6
 3 C  pz              0.0       0.3       0.0       1.6       0.0       0.0
 3 C  px              0.0       0.0       7.7       0.1       0.0       0.0
 3 C  py              0.0       1.3       0.0       0.0       0.3       0.1
 3 C  dxy             0.0       0.0       0.1       0.0       0.0       0.0
 4 C  s               0.0      15.4      13.3       0.0       0.0       0.0
 4 C  pz              0.0       0.1       0.0       7.5       6.5       0.0
 4 C  px              0.0       0.3       2.3       0.1       0.0       9.8
 4 C  py              0.0       0.6       0.1       0.5       1.2       1.1
 4 C  dxz             0.0       0.0       0.0       0.1       0.2       0.0
 4 C  dxy             0.0       0.0       0.0       0.0       0.0       0.1
 5 C  s               0.0       5.3       9.1      11.7      12.8       3.7
 5 C  pz              0.0       1.0       1.0       0.5       0.4       0.0
 5 C  px              0.0       0.7       0.2       0.0       0.0       0.7
 5 C  py              0.0       0.2       0.3       0.0       0.1       0.0
 6 C  s               0.0       5.2       9.5       9.3      11.5       7.4
 6 C  pz              0.0       1.2       1.2       0.4       0.5       0.0
 6 C  px              0.0       0.7       0.3       0.0       0.0       0.8
 7 H  s               0.0       0.7       1.3       2.0       2.3       2.2
 7 H  py              0.0       0.1       0.1       0.1       0.2       0.2
 8 H  s               0.0       0.7       1.3       1.9       2.2       2.8
 8 H  px              0.0       0.0       0.1       0.1       0.1       0.2
 9 H  s               0.0       0.7       1.3       2.4       2.7       2.0
 9 H  pz              0.0       0.1       0.1       0.2       0.2       0.2
10 H  s               0.0       2.0       1.7       0.0       0.0       0.0
10 H  py              0.0       0.2       0.1       0.0       0.0       0.0
11 H  s               0.0       0.7       1.0       3.7       3.0       0.6
11 H  px              0.0       0.0       0.0       0.2       0.1       0.0
12 H  s               0.0       0.7       1.2       3.2       2.8       1.1
12 H  px              0.0       0.0       0.1       0.2       0.2       0.1
13 H  s               0.0       0.7       1.1       3.2       2.6       0.7
13 H  py              0.0       0.1       0.1       0.2       0.2       0.0
14 H  s               0.0       2.0       0.0       0.5       0.0       4.6
14 H  pz              0.0       0.2       0.0       0.0       0.0       0.4
15 H  s               0.0       2.0       0.0       0.0       0.1       4.7
15 H  pz              0.0       0.1       0.0       0.0       0.0       0.1
15 H  py              0.0       0.1       0.0       0.0       0.0       0.3
16 H  s               0.0       2.0       1.7       0.0       0.0       0.0
16 H  py              0.0       0.1       0.1       0.0       0.0       0.0
17 H  s               0.0       0.6       1.4       2.7       2.9       1.2
17 H  px              0.0       0.0       0.1       0.1       0.2       0.1
18 H  s               0.0       0.6       1.3       3.1       3.3       0.7
18 H  pz              0.0       0.0       0.1       0.2       0.2       0.0
19 H  s               0.0       0.6       1.3       2.6       3.0       0.9
19 H  py              0.0       0.0       0.1       0.2       0.2       0.1
20 H  s               0.0       0.6       1.4       2.0       2.6       2.3
20 H  px              0.0       0.0       0.1       0.1       0.1       0.1
21 H  s               0.0       0.6       1.4       2.1       2.6       1.7
21 H  py              0.0       0.0       0.1       0.1       0.2       0.1
22 H  s               0.0       0.6       1.3       2.5       3.0       1.5
22 H  pz              0.0       0.0       0.1       0.1       0.1       0.1

                     12        13        14        15        16        17   
                  -0.52739  -0.51407  -0.42732  -0.41545  -0.39986  -0.38410
                   2.00000   2.00000   2.00000   2.00000   2.00000   2.00000
                  --------  --------  --------  --------  --------  --------
 0 C  s               3.8       0.5       0.0       0.2       0.2       0.1
 0 C  pz              0.3       0.1       2.1       9.9       0.1      11.8
 0 C  px              4.5       0.5       1.5       0.1       6.2       0.1
 0 C  py              1.9       2.8       5.3       0.9       0.1       0.5
 1 C  s               8.8       5.9       0.1       0.9       0.0       0.0
 1 C  pz              1.0       0.6       3.0       3.5       2.6       0.4
 1 C  px              0.5       0.1       1.6       5.1       0.3       3.6
 1 C  py              0.7       7.5      12.2       0.6       2.4       0.8
 1 C  dxz             0.0       0.0       0.0       0.0       0.0       0.1
 2 C  s               1.9       1.9       0.2       0.3       0.2       0.0
 2 C  pz              4.1       4.5       0.4       6.3       1.9       0.9
 2 C  px              0.1       0.1       2.7       3.3       3.3      11.8
 2 C  py              0.0       0.8       8.2       2.7       0.4       2.7
 2 C  dz2             0.1       0.1       0.0       0.1       0.0       0.0
 3 C  s               0.0       4.8       0.0       0.2       0.0       0.0
 3 C  pz              0.2       0.4       8.6       3.4      11.3       2.7
 3 C  px              7.4       0.1       5.9       1.4       2.8       0.6
 3 C  py              0.0      11.4       0.4       2.0       0.7       0.0
 3 C  dz2             0.0       0.1       0.0       0.0       0.0       0.0
 3 C  dxy             0.3       0.0       0.0       0.0       0.0       0.1
 4 C  s               9.6       5.2       0.0       0.9       0.1       0.0
 4 C  pz              0.1       0.8       3.8       0.1       1.3       1.7
 4 C  px              1.8       0.1       0.1       3.2       8.0       2.3
 4 C  py              0.6       7.6       5.9       7.4       2.1       2.1
 5 C  s               3.6       0.6       0.0       0.4       0.0       0.2
 5 C  pz              2.0       0.5       0.6      11.2       3.0       7.4
 5 C  px              3.2       0.4       0.2       0.5      10.9       0.1
 5 C  py              1.3       2.7       3.4       0.9       4.8       0.0
 6 C  s               3.0       1.0       0.2       0.1       0.4       0.0
 6 C  pz              3.2       2.7       0.0       2.8      10.6       2.6
 6 C  px              2.7       0.7       2.5       0.7       0.0      12.9
 6 C  py              0.0       0.7       5.4       5.6       0.0       3.4
 6 C  dxz             0.1       0.0       0.0       0.1       0.1       0.0
 7 H  s               2.4       1.2       2.2       0.0       0.1       0.1
 7 H  py              0.1       0.0       0.1       0.0       0.0       0.0
 8 H  s               2.4       0.1       1.3       0.1       2.6       0.4
 9 H  s               1.7       0.4       0.5       4.6       0.0       5.5
 9 H  pz              0.1       0.0       0.0       0.1       0.0       0.1
10 H  s               4.2       6.4       3.8       0.1       0.2       0.5
10 H  py              0.3       0.3       0.1       0.0       0.0       0.0
11 H  s               1.2       0.6       0.3       5.2       0.3       6.1
12 H  s               1.2       0.9       3.7       0.0       1.2       1.4
12 H  px              0.1       0.0       0.1       0.0       0.0       0.0
13 H  s               1.4       2.4       0.9       0.0       1.1       0.4
13 H  py              0.1       0.1       0.0       0.0       0.0       0.0
14 H  s               0.0       3.9       2.7       1.6       4.6       1.1
14 H  pz              0.0       0.2       0.1       0.0       0.1       0.0
15 H  s               0.0       5.8       1.1       1.0       0.4       0.2
15 H  pz              0.0       0.1       0.0       0.0       0.0       0.0
15 H  py              0.0       0.2       0.1       0.0       0.0       0.0
16 H  s               4.4       6.5       2.0       1.7       0.0       0.5
16 H  py              0.3       0.3       0.1       0.0       0.0       0.0
17 H  s               2.3       0.2       0.2       1.9       4.5       0.5
18 H  s               1.5       0.5       0.1       3.0       4.7       2.3
18 H  pz              0.0       0.0       0.0       0.0       0.1       0.0
19 H  s               2.4       1.2       1.7       0.3       0.1       0.0
19 H  py              0.1       0.0       0.0       0.0       0.0       0.0
20 H  s               2.0       0.3       2.9       0.2       0.0       1.9
20 H  py              0.0       0.0       0.0       0.0       0.0       0.1
21 H  s               2.1       1.6       0.4       0.8       1.4       2.1
21 H  py              0.1       0.1       0.0       0.0       0.1       0.0
22 H  s               1.4       0.6       0.1       3.1       2.9       6.0
22 H  pz              0.0       0.0       0.0       0.1       0.0       0.1

                     18        19        20        21        22        23   
                  -0.37188  -0.35633  -0.34570  -0.34164  -0.32287  -0.31499
                   2.00000   2.00000   2.00000   2.00000   2.00000   2.00000
                  --------  --------  --------  --------  --------  --------
 0 C  pz              0.0       5.4       2.2       0.8       2.9       8.3
 0 C  px              2.2      14.1       0.0       8.4       2.7       0.1
 0 C  py              7.5       2.6       1.5      18.9       1.6       0.9
 0 C  dz2             0.0       0.1       0.0       0.0       0.1       0.2
 0 C  dx2y2           0.0       0.0       0.0       0.2       0.0       0.0
 0 C  dxy             0.0       0.1       0.0       0.1       0.0       0.0
 1 C  s               0.3       0.1       0.0       0.0       0.1       0.0
 1 C  pz              0.2       5.8       0.1       0.0       1.7       0.3
 1 C  px              1.8       2.8       0.0       0.1       3.4       2.9
 1 C  py              1.3       1.6       0.0       0.0       0.3       0.0
 1 C  dxz             0.0       0.0       0.0       0.0       0.2       0.0
 1 C  dyz             0.0       0.0       0.0       0.1       0.1       0.0
 1 C  dx2y2           0.0       0.0       0.0       0.1       0.0       0.0
 2 C  pz              0.1       3.8       0.2       0.9       2.2       0.5
 2 C  px              5.1       3.3       0.0       3.5       4.7      16.0
 2 C  py              5.5       5.3       0.9      19.8       2.2       0.2
 2 C  dxz             0.0       0.0       0.0       0.0       0.0       0.2
 2 C  dyz             0.0       0.0       0.0       0.1       0.1       0.0
 2 C  dx2y2           0.0       0.0       0.0       0.1       0.0       0.0
 2 C  dxy             0.1       0.0       0.0       0.0       0.0       0.3
 3 C  s               1.2       0.8       0.0       0.1       0.5       0.4
 3 C  pz              0.4       0.0       1.5       0.0       2.1       9.1
 3 C  py             10.0       0.0       0.2       0.3      11.0       2.1
 3 C  dx2y2           0.1       0.1       0.0       0.0       0.0       0.0
 4 C  s               0.2       0.3       0.0       0.0       0.0       0.0
 4 C  pz              4.6       2.1       1.4       0.2       0.0       1.0
 4 C  px              0.2       0.1       0.0       0.1       3.6       4.1
 4 C  py              0.4       0.5       0.2       0.0       0.0       0.0
 4 C  dz2             0.0       0.1       0.1       0.0       0.1       0.1
 4 C  dyz             0.0       0.0       0.2       0.0       0.0       0.0
 5 C  pz              0.5       0.4       4.3       0.2       0.7       1.2
 5 C  px              1.6      18.1       0.5       2.5       0.4       7.7
 5 C  py              5.3       0.1      20.8       2.3       4.1       0.8
 5 C  dz2             0.0       0.1       0.0       0.0       0.0       0.2
 5 C  dxz             0.0       0.0       0.0       0.0       0.1       0.1
 5 C  dx2y2           0.0       0.0       0.1       0.0       0.0       0.0
 6 C  pz              0.3       0.8       1.8       0.0       1.8       5.6
 6 C  px              9.0       0.0       0.7       0.0      18.1       0.1
 6 C  py              6.7       0.6      23.7       0.9       0.0       0.4
 6 C  dz2             0.0       0.0       0.0       0.0       0.2       0.0
 6 C  dyz             0.0       0.0       0.1       0.0       0.1       0.0
 6 C  dx2y2           0.0       0.0       0.1       0.0       0.0       0.0
 6 C  dxy             0.1       0.0       0.1       0.0       0.1       0.0
 7 H  s               2.9       3.4       1.4       8.9       1.9       0.1
 8 H  s               3.1       4.6       0.0       9.6       0.7       0.5
 8 H  px              0.1       0.0       0.0       0.2       0.0       0.0
 8 H  py              0.0       0.2       0.0       0.0       0.0       0.0
 9 H  s               0.1       2.9       0.9       0.0       1.8       4.8
 9 H  py              0.0       0.0       0.0       0.2       0.0       0.0
10 H  s               0.2       0.0       0.0       0.0       0.5       0.0
11 H  s               0.2       1.3       0.1       0.2       2.0       7.9
11 H  pz              0.0       0.1       0.0       0.0       0.1       0.0
11 H  py              0.1       0.0       0.0       0.1       0.0       0.1
12 H  s               4.3       0.3       0.1       6.4       1.0       6.2
12 H  px              0.1       0.0       0.0       0.2       0.0       0.0
13 H  s               2.0       4.5       0.7       9.2       2.2       0.1
13 H  px              0.0       0.0       0.0       0.0       0.0       0.1
13 H  py              0.0       0.1       0.0       0.1       0.0       0.0
14 H  s               0.5       0.2       0.9       0.0       0.4       4.4
14 H  py              0.1       0.0       0.0       0.0       0.1       0.0
15 H  s               6.8       0.2       0.8       0.0       4.7       0.3
15 H  pz              0.1       0.0       0.0       0.0       0.0       0.0
15 H  py              0.1       0.0       0.0       0.0       0.0       0.1
16 H  s               0.2       0.0       0.0       0.1       0.1       0.2
17 H  s               0.1       5.7       2.8       2.5       1.4       4.0
17 H  px              0.0       0.0       0.2       0.0       0.0       0.0
17 H  py              0.0       0.1       0.0       0.0       0.0       0.0
18 H  s               0.3       3.9       1.3       0.2       0.9       4.4
18 H  pz              0.0       0.1       0.0       0.0       0.0       0.1
18 H  py              0.0       0.0       0.2       0.0       0.0       0.0
19 H  s               3.8       0.9      12.0       0.6       1.0       0.1
19 H  py              0.1       0.1       0.2       0.0       0.0       0.0
20 H  s               7.6       0.1       2.5       0.1       7.7       0.3
20 H  px              0.1       0.0       0.2       0.0       0.0       0.0
20 H  py              0.0       0.0       0.0       0.0       0.1       0.0
21 H  s               0.8       0.6      12.5       0.3       0.4       1.1
21 H  px              0.1       0.0       0.0       0.0       0.1       0.0
21 H  py              0.0       0.0       0.2       0.0       0.0       0.0
22 H  s               0.2       0.1       1.5       0.1       6.5       0.8
22 H  pz              0.0       0.0       0.1       0.0       0.1       0.0

                     24        25        26        27        28        29   
                  -0.29576  -0.29090  -0.27548  -0.27247  -0.26281   0.08923
                   2.00000   2.00000   2.00000   2.00000   2.00000   0.00000
                  --------  --------  --------  --------  --------  --------
 0 C  s               0.2       0.1       0.2       0.3       0.6       2.6
 0 C  pz              8.5       0.9       0.2       1.8       0.4       0.9
 0 C  px              0.2       0.3       0.2       0.9      10.3       0.8
 0 C  py              3.1       5.3       2.0       0.8       0.3       0.6
 0 C  dz2             0.3       0.0       0.0       0.1       0.0       0.2
 0 C  dx2y2           0.1       0.2       0.1       0.0       0.1       0.0
 0 C  dxy             0.0       0.0       0.0       0.0       0.1       0.1
 1 C  s               0.0       0.1       0.4       0.1       0.1       3.6
 1 C  pz              9.1       2.3       2.9       7.2       0.0       0.8
 1 C  px              0.1       0.1       0.1       0.3      15.7       0.3
 1 C  py              3.3       9.5       9.4       2.2       0.2       1.5
 1 C  dz2             0.3       0.0       0.1       0.3       0.0       0.0
 1 C  dxz             0.0       0.0       0.0       0.1       0.2       0.0
 1 C  dyz             0.0       0.2       0.3       0.0       0.0       0.1
 1 C  dx2y2           0.0       0.2       0.4       0.1       0.0       0.0
 1 C  dxy             0.0       0.0       0.0       0.0       0.4       0.1
 2 C  s               0.4       0.1       0.4       0.4       0.0       9.0
 2 C  pz             10.7       1.9       2.6       8.7       0.0       1.5
 2 C  px              0.1       0.1       0.2       0.1       2.2       0.3
 2 C  py              2.1       3.2       1.2       2.4       0.1       0.9
 2 C  dz2             0.1       0.0       0.0       0.1       0.0       0.4
 2 C  dxz             0.1       0.0       0.0       0.0       0.2       0.0
 2 C  dyz             0.0       0.2       0.2       0.0       0.0       0.0
 3 C  s               0.0       0.0       0.5       0.5       0.0       6.2
 3 C  pz              0.1       0.2       2.9      11.7       0.0       1.0
 3 C  px              2.8       2.0       0.0       0.1      21.1       0.0
 3 C  py              0.0       0.0      11.6       3.6       0.0       3.0
 3 C  dz2             0.0       0.0       0.0       0.5       0.0       0.3
 3 C  dyz             0.0       0.0       0.3       0.2       0.0       0.0
 3 C  dx2y2           0.0       0.0       0.5       0.1       0.0       0.0
 3 C  dxy             0.0       0.0       0.0       0.0       0.3       0.0
 4 C  s               0.1       0.0       0.2       0.2       0.1       4.7
 4 C  pz              8.0       3.2       1.9       9.3       0.0       0.3
 4 C  px              0.3       1.0       0.2       0.1      15.2       0.3
 4 C  py              1.5       9.2       9.1       5.2       0.2       1.6
 4 C  dz2             0.0       0.0       0.0       0.0       0.2       0.0
 4 C  dxz             0.1       0.3       0.3       0.1       0.0       0.0
 4 C  dyz             0.0       0.1       0.1       0.1       0.2       0.0
 4 C  dx2y2           0.1       0.0       0.2       0.3       0.0       0.0
 4 C  dxy             0.2       0.0       0.0       0.3       0.1       0.0
 5 C  s               0.0       0.4       0.6       0.1       0.4       9.1
 5 C  pz              8.1       5.4       2.9       3.6       0.8       2.2
 5 C  px              0.5       0.8       1.0       0.5       6.0       0.4
 5 C  py              0.4       6.6       1.7       1.1       0.1       0.2
 5 C  dz2             0.1       0.0       0.0       0.1       0.1       0.0
 5 C  dxz             0.0       0.2       0.1       0.0       0.0       0.3
 5 C  dxy             0.1       0.0       0.0       0.2       0.0       0.2
 6 C  s               0.2       0.1       0.1       0.6       0.3       6.2
 6 C  pz              9.6       2.9       1.4       4.7       0.9       2.1
 6 C  px              0.0       0.2       0.6       1.3       5.3       0.7
 6 C  py              0.5       5.3       3.7       0.2       0.3       0.6
 6 C  dz2             0.0       0.0       0.0       0.0       0.2       0.1
 6 C  dxz             0.0       0.2       0.1       0.0       0.0       0.6
 6 C  dyz             0.0       0.2       0.1       0.0       0.0       0.0
 6 C  dxy             0.2       0.0       0.1       0.0       0.1       0.0
 7 H  s               0.0       4.8       2.2       0.0       0.0       0.4
 7 H  pz              0.1       0.0       0.0       0.0       0.0       0.2
 7 H  px              0.0       0.0       0.0       0.0       0.1       0.0
 8 H  s               1.4       0.4       0.2       0.0       3.8       0.4
 8 H  pz              0.1       0.0       0.0       0.0       0.0       0.2
 8 H  py              0.0       0.0       0.0       0.0       0.1       0.2
 9 H  s               5.7       0.7       0.2       1.3       0.0       1.6
 9 H  pz              0.0       0.0       0.0       0.0       0.0       0.4
 9 H  px              0.0       0.0       0.0       0.0       0.1       0.2
10 H  s               0.1       9.3      11.0       0.0       0.0       0.6
10 H  pz              0.1       0.0       0.0       0.1       0.0       0.2
10 H  px              0.0       0.0       0.0       0.0       0.2       0.1
10 H  py              0.0       0.1       0.0       0.0       0.0       0.3
11 H  s               3.1       0.1       0.2       1.1       1.1       1.7
11 H  px              0.0       0.0       0.0       0.1       0.0       0.9
12 H  s               0.3       0.9       0.1       1.1       2.0       2.6
12 H  px              0.0       0.0       0.0       0.0       0.0       0.7
13 H  s               0.1       3.8       2.5       0.2       0.0       1.1
13 H  pz              0.1       0.0       0.0       0.1       0.0       0.0
13 H  py              0.0       0.0       0.0       0.0       0.0       0.5
[...]
 4 C  dxy             0.2       0.3       0.0       0.0       0.0       0.0
 5 C  s               0.1       0.2      17.6       7.8      38.6      21.0
 5 C  pz              0.3       0.1       0.0       0.0       0.0       0.0
 5 C  px              1.7       0.8       0.0       0.0       0.0       0.0
 5 C  py              0.2       0.5       0.0       0.0       0.0       0.0
 5 C  dz2             1.4       1.1       0.0       0.0       0.0       0.0
 5 C  dxz             1.3       0.1       0.0       0.0       0.0       0.0
 5 C  dyz             0.5       1.6       0.0       0.0       0.0       0.0
 5 C  dx2y2           0.0       0.5       0.0       0.0       0.0       0.0
 5 C  dxy             0.2       0.0       0.0       0.0       0.0       0.0
 6 C  s               0.1       0.3      26.9      29.4      28.5       2.6
 6 C  pz              1.1       0.5       0.0       0.0       0.0       0.0
 6 C  px              0.0       0.8       0.0       0.0       0.0       0.0
 6 C  py              0.3       0.1       0.0       0.0       0.0       0.0
 6 C  dz2             0.4       1.2       0.0       0.0       0.0       0.0
 6 C  dxz             0.3       0.1       0.0       0.0       0.0       0.0
 6 C  dyz             0.4       0.8       0.0       0.0       0.0       0.0
 6 C  dx2y2           0.7       0.5       0.0       0.0       0.0       0.0
 6 C  dxy             1.0       0.0       0.0       0.0       0.0       0.0
 7 H  s               0.1       0.3       0.0       0.0       0.0       0.0
 7 H  pz              0.0       0.1       0.0       0.0       0.0       0.0
 7 H  py              0.1       0.7       0.0       0.0       0.0       0.0
 8 H  px              0.0       0.2       0.0       0.0       0.0       0.0
 9 H  pz              0.1       0.1       0.0       0.0       0.0       0.0
10 H  s               0.7       3.3       0.0       0.0       0.0       0.0
10 H  pz              0.4       2.2       0.0       0.0       0.0       0.0
10 H  py              1.6       6.5       0.0       0.0       0.0       0.0
11 H  s               0.3       0.2       0.0       0.0       0.0       0.0
11 H  pz              0.2       0.2       0.0       0.0       0.0       0.0
11 H  px              0.1       0.1       0.0       0.0       0.0       0.0
11 H  py              0.7       0.2       0.0       0.0       0.0       0.0
12 H  s               0.8       0.0       0.0       0.0       0.0       0.0
12 H  px              1.4       0.1       0.0       0.0       0.0       0.0
12 H  py              0.5       0.0       0.0       0.0       0.0       0.0
13 H  s               0.0       0.2       0.0       0.0       0.0       0.0
13 H  pz              0.0       0.4       0.0       0.0       0.0       0.0
13 H  px              0.2       0.0       0.0       0.0       0.0       0.0
13 H  py              0.0       0.3       0.0       0.0       0.0       0.0
14 H  s               5.6       0.1       0.0       0.0       0.0       0.0
14 H  pz             11.5       0.5       0.0       0.0       0.0       0.0
14 H  px              0.0       0.1       0.0       0.0       0.0       0.0
14 H  py              1.2       0.1       0.0       0.0       0.0       0.0
15 H  s               3.6       2.3       0.0       0.0       0.0       0.0
15 H  pz              0.8       2.2       0.0       0.0       0.0       0.0
15 H  py              7.6       4.3       0.0       0.0       0.0       0.0
16 H  s               0.9       3.1       0.0       0.0       0.0       0.0
16 H  pz              0.2       0.8       0.0       0.0       0.0       0.0
16 H  px              0.3       0.3       0.0       0.0       0.0       0.0
16 H  py              2.1       5.9       0.0       0.0       0.0       0.0
17 H  s               0.9       0.1       0.0       0.0       0.0       0.0
17 H  pz              0.1       0.0       0.0       0.0       0.0       0.0
17 H  px              1.2       0.1       0.0       0.0       0.0       0.0
17 H  py              0.7       0.2       0.0       0.0       0.0       0.0
18 H  s               1.2       0.2       0.0       0.0       0.0       0.0
18 H  pz              2.4       0.5       0.0       0.0       0.0       0.0
18 H  px              0.5       0.0       0.0       0.0       0.0       0.0
19 H  s               0.0       0.6       0.0       0.0       0.0       0.0
19 H  px              0.1       0.2       0.0       0.0       0.0       0.0
19 H  py              0.2       1.6       0.0       0.0       0.0       0.0
20 H  s               0.2       0.1       0.0       0.0       0.0       0.0
20 H  pz              0.0       0.1       0.0       0.0       0.0       0.0
20 H  px              0.2       0.1       0.0       0.0       0.0       0.0
21 H  s               0.7       0.5       0.0       0.0       0.0       0.0
21 H  pz              0.1       0.3       0.0       0.0       0.0       0.0
21 H  px              0.3       0.2       0.0       0.0       0.0       0.0
21 H  py              1.4       1.0       0.0       0.0       0.0       0.0
22 H  pz              0.0       0.2       0.0       0.0       0.0       0.0

                    210       211       212   
                  22.06065  22.10144  22.16781
                   0.00000   0.00000   0.00000
                  --------  --------  --------
 0 C  s               1.7       0.1       2.8
 1 C  s              25.8      31.9      31.4
 2 C  s               2.6       0.1       0.0
 3 C  s              11.4      55.5      18.9
 4 C  s              43.8       0.0      46.3
 5 C  s              14.2       0.4       0.0
 6 C  s               0.1      11.7       0.3


                      *****************************
                      * MAYER POPULATION ANALYSIS *
                      *****************************

  NA   - Mulliken gross atomic population
  ZA   - Total nuclear charge
  QA   - Mulliken gross atomic charge
  VA   - Mayer's total valence
  BVA  - Mayer's bonded valence
  FA   - Mayer's free valence

  ATOM       NA         ZA         QA         VA         BVA        FA
  0 C      6.5300     6.0000    -0.5300     3.7398     3.7398     0.0000
  1 C      6.0209     6.0000    -0.0209     3.5293     3.5293     0.0000
  2 C      6.5461     6.0000    -0.5461     3.7609     3.7609    -0.0000
  3 C      6.3520     6.0000    -0.3520     3.4792     3.4792     0.0000
  4 C      5.9737     6.0000     0.0263     3.4162     3.4162    -0.0000
  5 C      6.5507     6.0000    -0.5507     3.8129     3.8129     0.0000
  6 C      6.5537     6.0000    -0.5537     3.8021     3.8021    -0.0000
  7 H      0.8435     1.0000     0.1565     0.9635     0.9635    -0.0000
  8 H      0.8434     1.0000     0.1566     0.9606     0.9606     0.0000
  9 H      0.8443     1.0000     0.1557     0.9618     0.9618     0.0000
 10 H      0.8462     1.0000     0.1538     0.9567     0.9567     0.0000
 11 H      0.8406     1.0000     0.1594     0.9606     0.9606    -0.0000
 12 H      0.8444     1.0000     0.1556     0.9610     0.9610    -0.0000
 13 H      0.8365     1.0000     0.1635     0.9617     0.9617     0.0000
 14 H      0.8428     1.0000     0.1572     0.9605     0.9605     0.0000
 15 H      0.8348     1.0000     0.1652     0.9621     0.9621     0.0000
 16 H      0.8412     1.0000     0.1588     0.9587     0.9587    -0.0000
 17 H      0.8455     1.0000     0.1545     0.9611     0.9611     0.0000
 18 H      0.8425     1.0000     0.1575     0.9593     0.9593    -0.0000
 19 H      0.8396     1.0000     0.1604     0.9606     0.9606    -0.0000
 20 H      0.8457     1.0000     0.1543     0.9609     0.9609     0.0000
 21 H      0.8388     1.0000     0.1612     0.9602     0.9602    -0.0000
 22 H      0.8430     1.0000     0.1570     0.9593     0.9593     0.0000

  Mayer bond orders larger than 0.100000
B(  0-C ,  1-C ) :   0.8953 B(  0-C ,  7-H ) :   0.9830 B(  0-C ,  8-H ) :   0.9755 
B(  0-C ,  9-H ) :   0.9757 B(  1-C ,  2-C ) :   0.8925 B(  1-C ,  3-C ) :   0.8759 
B(  1-C , 10-H ) :   0.9641 B(  2-C , 11-H ) :   0.9664 B(  2-C , 12-H ) :   0.9711 
B(  2-C , 13-H ) :   0.9876 B(  3-C ,  4-C ) :   0.8037 B(  3-C , 14-H ) :   0.9818 
B(  3-C , 15-H ) :   0.9894 B(  4-C ,  5-C ) :   0.8950 B(  4-C ,  6-C ) :   0.8949 
B(  4-C , 16-H ) :   0.9679 B(  5-C , 17-H ) :   0.9763 B(  5-C , 18-H ) :   0.9708 
B(  5-C , 19-H ) :   0.9844 B(  6-C , 20-H ) :   0.9761 B(  6-C , 21-H ) :   0.9855 
B(  6-C , 22-H ) :   0.9737 

-------
TIMINGS
-------

Total SCF time: 0 days 0 hours 0 min 24 sec 

Total time                  ....      24.619 sec
Sum of individual times     ....      24.174 sec  ( 98.2%)

SCF preparation             ....       0.402 sec  (  1.6%)
Fock matrix formation       ....      22.997 sec  ( 93.4%)
  Startup                   ....       0.072 sec  (  0.3% of F)
  Split-RI-J                ....       3.700 sec  ( 16.1% of F)
  XC integration            ....      14.338 sec  ( 62.3% of F)
    XC Preparation          ....       0.000 sec  (  0.0% of XC)
    Basis function eval.    ....       2.690 sec  ( 18.8% of XC)
    Density eval.           ....       4.349 sec  ( 30.3% of XC)
    XC-Functional eval.     ....       1.819 sec  ( 12.7% of XC)
    XC-Potential eval.      ....       4.708 sec  ( 32.8% of XC)
  CPCM terms                ....       4.488 sec  ( 19.5% of F)
Diagonalization             ....       0.000 sec  (  0.0%)
Density matrix formation    ....       0.176 sec  (  0.7%)
Total Energy calculation    ....       0.038 sec  (  0.2%)
Population analysis         ....       0.136 sec  (  0.6%)
Orbital Transformation      ....       0.054 sec  (  0.2%)
Orbital Orthonormalization  ....       0.000 sec  (  0.0%)
DIIS solution               ....       0.319 sec  (  1.3%)
  MO trafo                  ....       0.000 sec  (  0.0 % of DIIS)
  Orb grad                  ....       0.000 sec  (  0.0 % of DIIS)
  Energy W gradient         ....       0.000 sec  (  0.0 % of DIIS)
  DIIS error                ....       0.008 sec  (  2.4 % of DIIS)
  DIIS work                 ....       0.267 sec  ( 83.8 % of DIIS)
  Form Q                    ....       0.000 sec  (  0.0 % of DIIS)
  Form QpQm                 ....       0.000 sec  (  0.0 % of DIIS)
  Exp/Cayley                ....       0.000 sec  (  0.0 % of DIIS)
  Orb update                ....       0.000 sec  (  0.0 % of DIIS)
  Wake-sleep                ....       0.017 sec  (  5.3 % of DIIS)
SOSCF solution              ....       0.052 sec  (  0.2%)
  MO trafo                  ....       0.041 sec  ( 79.3 % of SOSCF)
  Orb grad                  ....       0.001 sec  (  1.0 % of SOSCF)
  Rot update                ....       0.000 sec  (  0.1 % of SOSCF)
  Step                      ....       0.010 sec  ( 19.5 % of SOSCF)
Finished LeanSCF after  24.8 sec

Maximum memory used throughout the entire LEANSCF-calculation: 34.3 MB


-------------------------------------------------------------------------------
                          DFT DISPERSION CORRECTION                            
                                                                               
                                DFTD4 V3.4.0                                   
-------------------------------------------------------------------------------
The R2SCAN3C composite method is recognized
Using three-body term ABC
Active option DFTDOPT                   ...         5   

-------------------------   ----------------
Dispersion correction           -0.006290884
-------------------------   ----------------

------------------   -----------------
gCP correction             0.010961652
------------------   -----------------

-------------------------   --------------------
FINAL SINGLE POINT ENERGY      -276.281724828694
-------------------------   --------------------


------------------------------------------------------------------------------
                              ORCA PROPERTY CALCULATIONS
------------------------------------------------------------------------------

GBWName                                 ... sp_solv.gbw
Number of atoms                         ...     23
Number of basis functions               ...    213
Max core memory                         ...   1024 MB

Electric properties:
Dipole moment                           ... YES
Quadrupole moment                       ...  NO
Static polarizability (Dipole/Dipole)   ...  NO
Static polarizability (Dipole/Quad.)    ...  NO
Static polarizability (Quad./Quad.)     ...  NO
Static polarizability (Velocity)        ...  NO

Atomic electric properties:
Dipole moment                           ...  NO
Quadrupole moment                       ...  NO
Static polarizability                   ...  NO

Choice of electric origin               ... Center of mass
Position of electric origin             ...     0.000000     0.000001    -0.000001

General magnetic properties:
Magnetizability                         ...  NO

EPR properties:
g-Tensor (aka g-matrix)                 ...  NO
Zero-Field splitting spin-orbit         ...  NO
Zero-field splitting spin-spin          ...  NO
Hyperfine couplings                     ...  NO (   0 nuclei)
Quadrupole couplings                    ...  NO (   0 nuclei)
Contact density                         ...  NO (   0 nuclei)

NMR properties:
Chemical shifts                         ...  NO (   0 nuclei)
Spin-rotation constants                 ...  NO (   0 nuclei)
Spin-spin couplings                     ...  NO (   0 nuclei,    0 pairs)

Choice of magnetic origin               ... GIAO
Position of magnetic origin             ...     0.000000     0.000000     0.000000

Properties with geometric perturbations:
SCF Hessian                             ...  NO
IR spectrum                             ...  NO
VCD spectrum                            ...  NO
X-ray spectroscopy properties:
SCF XES/XAS/RIXS spectra                ...  NO


-------------
DIPOLE MOMENT
-------------

Method             : SCF
Type of density    : Electron Density
Multiplicity       :   1
Irrep              :   0
Energy             :  -276.2863955960766589 Eh
Relativity type    : 
Basis              : AO
                                X                 Y                 Z
Electronic contribution:     -0.175553377      -0.494518392       0.473962096
Nuclear contribution   :      0.150906528       0.423846965      -0.460752417
                        -----------------------------------------
Total Dipole Moment    :     -0.024646849      -0.070671427       0.013209680
                        -----------------------------------------
Magnitude (a.u.)       :      0.076002720
Magnitude (Debye)      :      0.193183561



--------------------
Rotational spectrum 
--------------------
 
Rotational constants in cm-1:             0.136255             0.048074             0.040557 
Rotational constants in MHz :          4084.835478          1441.223532          1215.863165 

Dipole components along the rotational axes: 
x,y,z [a.u.] :     0.018679     0.012168     0.072660 
x,y,z [Debye]:     0.047479     0.030929     0.184686 

 

Dipole moment calculation done in   0.0 sec 

Maximum memory used throughout the entire PROP-calculation: 13.4 MB

--------------------------------
SUGGESTED CITATIONS FOR THIS RUN
--------------------------------

Below you find a list of papers that are relevant to this ORCA run
We neither can nor want to force you to cite these papers, but we appreciate if you do
You receive ORCA, which is the product of decades of hard work by many enthusiastic individuals, for free
The only thing we kindly ask in return is that you cite our papers,
We deeply appreciate it, if you show your appreciation for ORCA by not just citing the generic ORCA reference.

Please note that relegating all ORCA citations to the supporting information does *not* help us.
SI sections are not indexed - citations you put there will not count into any citation statistics
But we need these citations in order to attract the funding resources that allow us to do what we are doing

Therefore, if you are a happy ORCA user, please consider citing a few of the papers listed below in the main body of your paper

In addition to the list printed below, the program has created the file sp_solv.bibtex that contains the list in bibtex format
You can import this file easily into all common literature databanks and citation aid programs


List of essential papers. We consider these as the minimum necessary citations

  1. Neese,F.
     Software update: the ORCA program system, version 5.0
     WIRES Comput. Molec. Sci., 2022 12(1)e1606
     doi.org/10.1002/wcms.1606
  2. Grimme,S.; Hansen,A.; Ehlert,S.; Mewes,J.
     r2SCAN-3c: A 'Swiss army knife' composite electronic-structure method
     J. Chem. Phys., 2021 154 064103
     doi.org/10.1063/5.0040021

List of papers to cite with high priority. The work reported in these papers was absolutely
necessary for this run to complete.
Our perspective: the developers of density functionals and basis sets usually get cited in chemistry papers
Good! But without the algorithms to do something with them, the functionals or basis sets would not do anything.
Hence, in our opinion, the algorithm design and method developments papers are equally worthy of getting cited

  1. Neese,F.
     An improvement of the resolution of the identity approximation for the formation of the Coulomb matrix
     J. Comp. Chem., 2003 24(14)1740-1747
     doi.org/10.1002/jcc.10318
  2. Garcia-Rates,M.; Neese,F.
     Effect of the Solute Cavity on the Solvation Energy and its Derivatives within the Framework of the Gaussian Charge Scheme
     J. Comput. Chem., 2020 41 922-939
     doi.org/10.1002/jcc.26139
  3. Neese,F.
     The SHARK Integral Generation and Digestion System
     J. Comp. Chem., 2022  1-16
     doi.org/10.1002/jcc.26942
  4. Lehtola,S.; Steigemann,C.; Oliveira,M.; Marques,M.
     Recent developments in Libxc - A comprehensive library of functionals for density functional theory
     Software X, 2018 7 
     doi.org/10.1016/j.softx.2017.11.002
  5. Caldeweyher,E.; Bannwarth,C.; Grimme,S.
     Extension of the D3 dispersion coefficient model
     J. Chem. Phys., 2017 147 034112-XXXX
     doi.org/10.1063/1.4993215
  6. Caldeweyher,E.; Ehlert,S.; Hansen,A.; Neugebauer,H.; Spicher,S.; Bannwarth,C.; Grimme,S.
     A generally applicable atomic-charge dependent London dispersion correction
     J. Chem. Phys., 2019 150 154122-XXXX
     doi.org/10.1063/1.5090222
  7. Caldeweyher,E.; Mewes,J.; Ehlert,S.; Grimme,S.
     Extension and evaluation of the D4 London-dispersion model for periodic systems
     Phys. Chem. Chem. Phys., 2020 22(16)8499-8512
     doi.org/10.1039/D0CP00502A

List of suggested additional citations. These are papers that are important in the 'surrounding' of 
of this run, or papers that preceded the highly important papers. If you like your results we are grateful for a citation.

  1. Neese,F.
     The ORCA program system
     WIRES Comput. Molec. Sci., 2012 2(1)73-78
     doi.org/10.1002/wcms.81
  2. Neese,F.
     Software update: the ORCA program system, version 4.0
     WIRES Comput. Molec. Sci., 2018 8(1)1-6
     doi.org/10.1002/wcms.1327
  3. Neese,F.; Wennmohs,F.; Becker,U.; Riplinger,C.
     The ORCA quantum chemistry program package
     J. Chem. Phys., 2020 152 Art. No. L224108
     doi.org/10.1063/5.0004608

List of optional additional citations

  1. Neese,F.
     Approximate second-order SCF convergence for spin unrestricted wavefunctions
     Chem. Phys. Lett., 2000 325(1-3)93-98
     doi.org/10.1016/s0009-2614(00)00662-x

Timings for individual modules:

Sum of individual times          ...       26.786 sec (=   0.446 min)
Startup calculation              ...        1.404 sec (=   0.023 min)   5.2 %
SCF iterations                   ...       25.268 sec (=   0.421 min)  94.3 %
Property calculations            ...        0.114 sec (=   0.002 min)   0.4 %
                             ****ORCA TERMINATED NORMALLY****
TOTAL RUN TIME: 0 days 0 hours 0 minutes 27 seconds 536 msec
