17
 energy: -346.941266617471 gnorm: 0.035384821158 xtb: 6.7.1 (edcfbbe)
C           -2.27648617860877        0.29400900383028        1.09960199548726
C           -1.82773641120992        0.42466428888818       -0.35920610805917
C           -0.45440088620136       -0.17727116927855       -0.50549541762400
O           -0.23386794730363       -1.34175360509457       -0.76747431254009
O            0.49563092191963        0.72245350412014       -0.28838525002779
C            1.86782131442768        0.29564378903101       -0.31795172694089
C            2.32264084702922       -0.17477347567745        1.05512374246755
H           -1.60007270600903        0.83924747577189        1.75274100147669
H           -3.27730119235226        0.69940847160993        1.21273432293739
H           -2.28553410121278       -0.75171762203311        1.39786933651943
H           -1.78569640559129        1.47479682295352       -0.64353758558517
H           -2.51397775131401       -0.11708462035188       -1.00899324364711
H            1.96642792537138       -0.50826424332523       -1.05378381456696
H            2.42467501227444        1.17584676282105       -0.64078876408395
H            3.37461341449538       -0.43784730979402        1.01473390134966
H            2.17771220886500        0.61398888927207        1.78842100349250
H            1.75125500587603       -1.04981346376520        1.35726508230144
17
 energy: -346.942330964506 gnorm: 0.014112464442 xtb: 6.7.1 (edcfbbe)
C           -2.27713360960794        0.29396785187362        1.10376306747872
C           -1.82939692552062        0.42441191249479       -0.35913782844520
C           -0.45851899790540       -0.17304646123395       -0.51985964666164
O           -0.23908688980814       -1.34982617794268       -0.76280701199549
O            0.50007022080449        0.73289825497889       -0.29714999231889
C            1.87997243982013        0.29253873143029       -0.32250344269319
C            2.31489372117767       -0.17595757000761        1.05342368245203
H           -1.60328878566817        0.84245449391130        1.76585809056603
H           -3.28329161109072        0.70006505187756        1.22086916869962
H           -2.29022135953853       -0.75458145983994        1.41052613590756
H           -1.80249665229057        1.47554291513664       -0.65313425859536
H           -2.51329867828015       -0.12049556937418       -1.01241984229007
H            1.99117394527102       -0.49803149613804       -1.06918571050603
H            2.44142282038896        1.17269127846992       -0.63953226612617
H            3.37374032645135       -0.44069808085316        1.01911832225220
H            2.17576172895308        0.61568308069212        1.79318489508795
H            1.74540091226647       -1.05608309262462        1.36186199143757
17
 energy: -346.942562523248 gnorm: 0.005956834126 xtb: 6.7.1 (edcfbbe)
C           -2.27996425565250        0.29288508007278        1.10508917060107
C           -1.83070221199804        0.42328057119564       -0.35842004609307
C           -0.45989316527694       -0.17052615471213       -0.51058502873806
O           -0.23780323300639       -1.34824985699957       -0.75599575852957
O            0.50377392308666        0.74560441410105       -0.30531838531686
C            1.89000571374203        0.29179446895627       -0.32574154965538
C            2.31178724103444       -0.17834784210124        1.04900323973714
H           -1.60879162783036        0.84379814353634        1.77201968204158
H           -3.28868813078901        0.69981787907752        1.22139660571915
H           -2.29539293215699       -0.75649747326096        1.41690842091592
H           -1.81559242716878        1.47478159077103       -0.65796249066238
H           -2.51130668287950       -0.12512157010337       -1.01465373491010
H            2.00163692362822       -0.49202503324203       -1.07865419371825
H            2.45603693598892        1.17107150842311       -0.63974308288721
H            3.37330838156328       -0.44800922329723        1.02357031821797
H            2.17703557749258        0.61560135884374        1.79069377400127
H            1.74025232855760       -1.05832444578906        1.36126924726779
17
 energy: -346.942623655757 gnorm: 0.003569348628 xtb: 6.7.1 (edcfbbe)
C           -2.28115728067508        0.29306061708983        1.10659145196039
C           -1.82994229369728        0.42112218421375       -0.35626434983271
C           -0.45796352252033       -0.16632641127648       -0.51416313695451
O           -0.23238374888632       -1.34533293365738       -0.74601932367761
O            0.50626809939989        0.75473411513638       -0.31589461414650
C            1.89488857398214        0.29285171939403       -0.32682561253884
C            2.30858057547966       -0.18086495848622        1.04678790040599
H           -1.61088204728542        0.84520661709863        1.77309666271226
H           -3.29019834259687        0.69956338372083        1.22190320699269
H           -2.29626266426540       -0.75580672220281        1.41946194579991
H           -1.82170280434066        1.47184815030974       -0.65878775152203
H           -2.50945717328638       -0.13180260334920       -1.01010395760299
H            2.00398584680337       -0.48816880375815       -1.08293710805770
H            2.46397391380855        1.17196203863445       -0.63650879110286
H            3.36937801455246       -0.45492380685630        1.02682910902055
H            2.17534247356087        0.61310415762789        1.78851924086523
H            1.73323432051154       -1.05869333658704        1.35719256147906
17
 energy: -346.942660674320 gnorm: 0.002342723972 xtb: 6.7.1 (edcfbbe)
C           -2.28126625436852        0.29315234749908        1.10767060679791
C           -1.82829619372843        0.41957432533461       -0.35436199542540
C           -0.45475076873824       -0.16455342635795       -0.50948882285907
O           -0.22568061472085       -1.34360854620655       -0.73130915811495
O            0.50857924811747        0.76165000980649       -0.32413759748967
C            1.89845415438490        0.29551745540531       -0.32976969061619
C            2.30354798720243       -0.18307479485018        1.04389965793431
H           -1.61239863794262        0.84608462235133        1.77380585639888
H           -3.29000782741608        0.69945041218253        1.21975867903038
H           -2.29640112209381       -0.75487254796741        1.42098275787451
H           -1.82315671258915        1.46920847252077       -0.65886907121853
H           -2.50533146124982       -0.13771210676443       -1.00690072816279
H            2.00539863241095       -0.48347719588041       -1.08825647790168
H            2.46957462453043        1.17502332637256       -0.63397669943641
H            3.36253716229377       -0.46155792168507        1.02739755748051
H            2.17116654806698        0.60940077684472        1.78643499897322
H            1.72373272070057       -1.05867186016603        1.34999901602052
17
 energy: -346.942694168652 gnorm: 0.002667999943 xtb: 6.7.1 (edcfbbe)
C           -2.28066073963586        0.29359246350230        1.10899160706753
C           -1.82547185101805        0.41777723894696       -0.35233239912433
C           -0.44981742258215       -0.16341151765498       -0.50182683639702
O           -0.21641716774522       -1.34427846584409       -0.70498497793216
O            0.51106150058875        0.76946627221159       -0.33645577185599
C            1.90162936916815        0.30087921792200       -0.33450918671182
C            2.29584117185409       -0.18646350566984        1.03929063199950
H           -1.61355464121321        0.84768866838477        1.77488384142791
H           -3.28918319285094        0.69958556296580        1.21712286742963
H           -2.29583679140622       -0.75347730114075        1.42329779101498
H           -1.82261150341424        1.46594537710869       -0.65967783047995
H           -2.49891868407581       -0.14499526649764       -1.00352408464348
H            2.00994615800566       -0.47461642510233       -1.09637102465547
H            2.47532366303846        1.18145782148647       -0.62945918159762
H            3.35239034603439       -0.47128371063186        1.02758187416399
H            2.16316998747603        0.60312505014819        1.78388802390651
H            1.70881053436053       -1.05945815426827        1.33696598990227
17
 energy: -346.942714775702 gnorm: 0.002539338917 xtb: 6.7.1 (edcfbbe)
C           -2.28019690908159        0.29425313038962        1.10988305328384
C           -1.82275163500591        0.41633092982466       -0.35105737432036
C           -0.44573467452800       -0.16379523088791       -0.49481478475895
O           -0.20989129112545       -1.34733955620377       -0.67920200181006
O            0.51302876724890        0.77376874958072       -0.34755969820123
C            1.90344788743187        0.30595732402602       -0.33898366520721
C            2.28907322153719       -0.18943126648060        1.03504240793160
H           -1.61414506338442        0.84952113994245        1.77585401154351
H           -3.28887810994911        0.70020313868307        1.21570801284541
H           -2.29544165662305       -0.75232752219082        1.42560853182260
H           -1.82042860057108        1.46360016828077       -0.66077125849780
H           -2.49367525900490       -0.14958408014622       -1.00197527773278
H            2.01712461485443       -0.46514297933841       -1.10464982935868
H            2.47847649306258        1.18847713631949       -0.62483068146754
H            3.34411986016459       -0.47895605444598        1.02726865664560
H            2.15511302678500        0.59716853040353        1.78247998690226
H            1.69645938597344       -1.06117020686391        1.32488352171508
17
 energy: -346.942725564044 gnorm: 0.001128719831 xtb: 6.7.1 (edcfbbe)
C           -2.28032843271978        0.29472739778515        1.11004242815067
C           -1.82134672232366        0.41589585575949       -0.35070929279605
C           -0.44428326877328       -0.16508559485532       -0.49124106729325
O           -0.20879779143144       -1.35052779702170       -0.66530362259604
O            0.51366230740576        0.77301183360802       -0.35339332872365
C            1.90320507842694        0.30828122866663       -0.34112810626613
C            2.28634649112981       -0.19078174883775        1.03286298396718
H           -1.61448344255013        0.85057761583219        1.77630726268584
H           -3.28927131154797        0.70089938793609        1.21547900806239
H           -2.29571021448584       -0.75183057400031        1.42680814246828
H           -1.81767862369682        1.46307206526297       -0.66110280538305
H           -2.49163434224073       -0.14970436455002       -1.00260686025813
H            2.02353668966447       -0.45969542959201       -1.10912534162021
H            2.47801153463456        1.19257970195307       -0.62183092215820
H            3.34132186213018       -0.48102713952177        1.02652365363127
H            2.15057789024249        0.59410839413562        1.78215477953912
H            1.69257206262715       -1.06296744937423        1.31914775248345
17
 energy: -346.942728673719 gnorm: 0.000447596130 xtb: 6.7.1 (edcfbbe)
C           -2.28139291979314        0.29485676154663        1.10986320310285
C           -1.82092072927502        0.41619032474278       -0.35049899009829
C           -0.44461916251627       -0.16638190426440       -0.49016458134633
O           -0.21083091865126       -1.35299335243228       -0.65992819287025
O            0.51403596803498        0.77072887935077       -0.35672523748931
C            1.90291074167640        0.30823773447163       -0.34178618554611
C            2.28627211260847       -0.19115281809266        1.03204374896106
H           -1.61563027692771        0.85065809119764        1.77700143613737
H           -3.29062014049412        0.70144744107741        1.21557190327986
H           -2.29726809403395       -0.75194130001772        1.42707412816958
H           -1.81594230807847        1.46389217608718       -0.66036592217274
H           -2.49165318351113       -0.14721730030639       -1.00418557608621
H            2.02837499704254       -0.45778157828357       -1.11100281216787
H            2.47687365477970        1.19386426505194       -0.62056687180678
H            3.34236522556449       -0.47900071895795        1.02583443757295
H            2.14885388424206        0.59323091453000        1.78214104137143
H            1.69489093086847       -1.06510425433310        1.31857920739438
17
 energy: -346.942728673719 gnorm: 0.000447596130 xtb: 6.7.1 (edcfbbe)
C           -2.28139291979314        0.29485676154663        1.10986320310285
C           -1.82092072927502        0.41619032474278       -0.35049899009829
C           -0.44461916251627       -0.16638190426440       -0.49016458134633
O           -0.21083091865126       -1.35299335243228       -0.65992819287025
O            0.51403596803498        0.77072887935077       -0.35672523748931
C            1.90291074167640        0.30823773447163       -0.34178618554611
C            2.28627211260847       -0.19115281809266        1.03204374896106
H           -1.61563027692771        0.85065809119764        1.77700143613737
H           -3.29062014049412        0.70144744107741        1.21557190327986
H           -2.29726809403395       -0.75194130001772        1.42707412816958
H           -1.81594230807847        1.46389217608718       -0.66036592217274
H           -2.49165318351113       -0.14721730030639       -1.00418557608621
H            2.02837499704254       -0.45778157828357       -1.11100281216787
H            2.47687365477970        1.19386426505194       -0.62056687180678
H            3.34236522556449       -0.47900071895795        1.02583443757295
H            2.14885388424206        0.59323091453000        1.78214104137143
H            1.69489093086847       -1.06510425433310        1.31857920739438
