      -----------------------------------------------------------      
     |                   =====================                   |     
     |                           x T B                           |     
     |                   =====================                   |     
     |                         S. Grimme                         |     
     |          Mulliken Center for Theoretical Chemistry        |     
     |                    University of Bonn                     |     
      -----------------------------------------------------------      

   * xtb version 6.7.1 (edcfbbe) compiled by 'albert@albert-system' on 2024-07-22

   xtb is free software: you can redistribute it and/or modify it under
   the terms of the GNU Lesser General Public License as published by
   the Free Software Foundation, either version 3 of the License, or
   (at your option) any later version.
   
   xtb is distributed in the hope that it will be useful,
   but WITHOUT ANY WARRANTY; without even the implied warranty of
   MERCHANTABILITY or FITNESS FOR A PARTICULAR PURPOSE.  See the
   GNU Lesser General Public License for more details.
   
   Cite this work as:
   * C. Bannwarth, E. Caldeweyher, S. Ehlert, A. Hansen, P. Pracht,
     J. Seibert, S. Spicher, S. Grimme, WIREs Comput. Mol. Sci., 2020, 11,
     e01493. DOI: 10.1002/wcms.1493
   
   for GFN2-xTB:
   * C. Bannwarth, S. Ehlert and S. Grimme., J. Chem. Theory Comput., 2019,
     15, 1652-1671. DOI: 10.1021/acs.jctc.8b01176
   for GFN1-xTB:
   * S. Grimme, C. Bannwarth, P. Shushkov, J. Chem. Theory Comput., 2017,
     13, 1989-2009. DOI: 10.1021/acs.jctc.7b00118
   for GFN0-xTB:
   * P. Pracht, E. Caldeweyher, S. Ehlert, S. Grimme, ChemRxiv, 2019, preprint.
     DOI: 10.26434/chemrxiv.8326202.v1
   for GFN-FF:
   * S. Spicher and S. Grimme, Angew. Chem. Int. Ed., 2020, 59, 15665-15673.
     DOI: 10.1002/anie.202004239
   
   for ALPB and GBSA implicit solvation:
   * S. Ehlert, M. Stahn, S. Spicher, S. Grimme, J. Chem. Theory Comput.,
     2021, 17, 4250-4261. DOI: 10.1021/acs.jctc.1c00471
   
   for ddCOSMO and CPCM-X implicit solvation:
   * M. Stahn, S. Ehlert, S. Grimme, J. Phys. Chem. A,
     2023, XX, XXXX-XXXX. DOI: 10.1021/acs.jpca.3c04382
   
   for DFT-D4:
   * E. Caldeweyher, C. Bannwarth and S. Grimme, J. Chem. Phys., 2017,
     147, 034112. DOI: 10.1063/1.4993215
   * E. Caldeweyher, S. Ehlert, A. Hansen, H. Neugebauer, S. Spicher,
     C. Bannwarth and S. Grimme, J. Chem. Phys., 2019, 150, 154122.
     DOI: 10.1063/1.5090222
   * E. Caldeweyher, J.-M. Mewes, S. Ehlert and S. Grimme, Phys. Chem. Chem. Phys.
     2020, 22, 8499-8512. DOI: 10.1039/D0CP00502A
   
   for sTDA-xTB:
   * S. Grimme and C. Bannwarth, J. Chem. Phys., 2016, 145, 054103.
     DOI: 10.1063/1.4959605
   
   in the mass-spec context:
   * V. Asgeirsson, C. Bauer and S. Grimme, Chem. Sci., 2017, 8, 4879.
     DOI: 10.1039/c7sc00601b
   * J. Koopman and S. Grimme, ACS Omega 2019, 4, 12, 15120-15133.
     DOI: 10.1021/acsomega.9b02011
   
   for metadynamics refer to:
   * S. Grimme, J. Chem. Theory Comput., 2019, 155, 2847-2862
     DOI: 10.1021/acs.jctc.9b00143
   
   for SPH calculations refer to:
   * S. Spicher and S. Grimme, J. Chem. Theory Comput., 2021, 17, 1701-1714
     DOI: 10.1021/acs.jctc.0c01306
   
   for ONIOM refer to:
   * C. Plett, A. Katbashev, S. Ehlert, S. Grimme, M. Bursch,
     Phys. Chem. Chem. Phys., 2023, 25, 17860-17868. DOI: 10.1039/D3CP02178E
   
   for DIPRO refer to:
   * J. Kohn, N. Gildemeister, S. Grimme, D. Fazzi, A. Hansen,
     J. Chem. Phys., 2023, just accepted.
   
   for PTB refer to:
   * S. Grimme, M. Mueller, A. Hansen, J. Chem. Phys., 2023, 158, 124111.
     DOI: 10.1063/5.0137838
   
   with help from (in alphabetical order)
   P. Atkinson, C. Bannwarth, F. Bohle, G. Brandenburg, E. Caldeweyher
   M. Checinski, S. Dohm, S. Ehlert, S. Ehrlich, I. Gerasimov, C. Hölzer
   A. Katbashev, J. Kohn, J. Koopman, C. Lavigne, S. Lehtola, F. März, M. Müller,
   F. Musil, H. Neugebauer, J. Pisarek, C. Plett, P. Pracht, F. Pultar,
   J. Seibert, P. Shushkov, S. Spicher, M. Stahn, M. Steiner, T. Strunk,
   J. Stückrath, T. Rose, and J. Unsleber
   
 * started run on 2025/04/11 at 12:01:04.111     
   ID    Z sym.   atoms
    1    6 C      1, 3, 4
    2    8 O      2
    3    7 N      5
    4    1 H      6-14

           -------------------------------------------------
          |                Calculation Setup                |
           -------------------------------------------------

          program call               : /srv/scratch/z5358697/.xtb/bin/xtb xtb_opt.coord --opt normal --orca -I xtb_opt-xcontrol-inp
          hostname                   : k071
          coordinate file            : xtb_opt.coord
          omp threads                :                    15

           -------------------------------------------------
          |                   Orca driver                   |
           -------------------------------------------------
orca executable           : /apps/z_install_tree/linux-rocky8-ivybridge/gcc-12.2.0/orca-6.0.0-srtngmq3qlimg2qxbl6avaaiffipurdx/bin/orca
orca input file           : xtb_opt.inp
orca input line           : 
orca parallel             : true
orca number of threads    : 15
                         * ORCA takes the control...
  ------------------------------------------------------------------------

                                 *****************
                                 * O   R   C   A *
                                 *****************

                                            #,                                       
                                            ###                                      
                                            ####                                     
                                            #####                                    
                                            ######                                   
                                           ########,                                 
                                     ,,################,,,,,                         
                               ,,#################################,,                 
                          ,,##########################################,,             
                       ,#########################################, ''#####,          
                    ,#############################################,,   '####,        
                  ,##################################################,,,,####,       
                ,###########''''           ''''###############################       
              ,#####''   ,,,,##########,,,,          '''####'''          '####       
            ,##' ,,,,###########################,,,                        '##       
           ' ,,###''''                  '''############,,,                           
         ,,##''                                '''############,,,,        ,,,,,,###''
      ,#''                                            '''#######################'''  
     '                                                          ''''####''''         
             ,#######,   #######,   ,#######,      ##                                
            ,#'     '#,  ##    ##  ,#'     '#,    #''#        ,####,   ,####,        
            ##       ##  ##   ,#'  ##            #'  '#       #'       #'  '#        
            ##       ##  #######   ##           ,######,      #####,   #    #        
            '#,     ,#'  ##    ##  '#,     ,#' ,#      #,     #,   #   #,  ,#        
             '#######'   ##     ##  '#######'  #'      '#     '####' # '####'        



                #########################################################
                #                        -***-                          #
                #          Department of theory and spectroscopy        #
                #                                                       #
                #                      Frank Neese                      #
                #                                                       #
                #     Directorship, Architecture, Infrastructure        #
                #                    SHARK, DRIVERS                     #
                #        Core code/Algorithms in most modules           #
                #                                                       #
                #        Max Planck Institute fuer Kohlenforschung      #
                #                Kaiser Wilhelm Platz 1                 #
                #                 D-45470 Muelheim/Ruhr                 #
                #                      Germany                          #
                #                                                       #
                #                  All rights reserved                  #
                #                        -***-                          #
                #########################################################


                         Program Version 6.0.0  -   RELEASE  -


 With contributions from (in alphabetic order):
   Daniel Aravena         : Magnetic Suceptibility
   Michael Atanasov       : Ab Initio Ligand Field Theory (pilot matlab implementation)
   Alexander A. Auer      : GIAO ZORA, VPT2 properties, NMR spectrum
   Ute Becker             : All parallelization in ORCA, NUMFREQ, NUMCALC
   Giovanni Bistoni       : ED, misc. LED, open-shell LED, HFLD
   Martin Brehm           : Molecular dynamics
   Dmytro Bykov           : pre 5.0 version of the SCF Hessian
   Marcos Casanova-Páez   : Triplet and SCS-CIS(D). UHF-(DLPNO)-IP/EA/STEOM-CCSD. UHF-CVS-IP/STEOM-CCSD
   Vijay G. Chilkuri      : MRCI spin determinant printing, contributions to CSF-ICE
   Pauline Colinet        : FMM embedding
   Dipayan Datta          : RHF DLPNO-CCSD density
   Achintya Kumar Dutta   : EOM-CC, STEOM-CC
   Nicolas Foglia         : Exact transition moments, OPA infrastructure, MCD improvements
   Dmitry Ganyushin       : Spin-Orbit,Spin-Spin,Magnetic field MRCI
   Miquel Garcia          : C-PCM and meta-GGA Hessian, CCSD/C-PCM, Gaussian charge scheme
   Tiago L. C. Gouveia    : GS-ROHF, GS-ROCIS
   Yang Guo               : DLPNO-NEVPT2, F12-NEVPT2, CIM, IAO-localization
   Andreas Hansen         : Spin unrestricted coupled pair/coupled cluster methods
   Ingolf Harden          : AUTO-CI MPn and infrastructure 
   Benjamin Helmich-Paris : MC-RPA, TRAH-(SCF,CASSCF), AVAS, COSX integrals, SCF dyn. polar.
   Lee Huntington         : MR-EOM, pCC
   Robert Izsak           : Overlap fitted RIJCOSX, COSX-SCS-MP3, EOM
   Riya Kayal             : Wick's Theorem for AUTO-CI, AUTO-CI UHF-CCSDT
   Emily Kempfer          : AUTO-CI, RHF CISDT and CCSDT
   Christian Kollmar      : KDIIS, OOCD, Brueckner-CCSD(T), CCSD density, CASPT2, CASPT2-K, improved NEVPT2
   Axel Koslowski         : Symmetry handling
   Simone Kossmann        : Meta GGA functionals, TD-DFT gradient, OOMP2, (MP2 Hessian; deprecated post 5.0)
   Lucas Lang             : DCDCAS
   Marvin Lechner         : AUTO-CI (C++ implementation), FIC-MRCC
   Spencer Leger          : CASSCF response
   Dagmar Lenk            : GEPOL surface, SMD, ORCA-2-JSON
   Dimitrios Liakos       : Extrapolation schemes; Compound Job, initial MDCI parallelization
   Dimitrios Manganas     : Further ROCIS development; embedding schemes. LFT, Crystal Embedding
   Dimitrios Pantazis     : SARC Basis sets
   Anastasios Papadopoulos: AUTO-CI, single reference methods and gradients
   Taras Petrenko         : pre 6.0 DFT Hessian and TD-DFT gradient, (ASA, deprecated), ECA, 1-Electron XAS/XES, NRVS
   Peter Pinski           : DLPNO-MP2, DLPNO-MP2 Gradient
   Christoph Reimann      : Effective Core Potentials
   Marius Retegan         : Local ZFS, SOC
   Christoph Riplinger    : Optimizer, TS searches, QM/MM, DLPNO-CCSD(T), (RO)-DLPNO pert. Triples
   Michael Roemelt        : Original ROCIS implementation
   Masaaki Saitow         : Open-shell DLPNO-CCSD energy and density
   Barbara Sandhoefer     : DKH picture change effects
   Kantharuban Sivalingam : CASSCF convergence/infrastructure, NEVPT2 and variants, FIC-MRCI
   Bernardo de Souza      : ESD, SOC TD-DFT
   Georgi Stoychev        : AutoAux, RI-MP2 NMR, DLPNO-MP2 response, X2C
   Van Anh Tran           : RI-MP2 g-tensors
   Willem Van den Heuvel  : Paramagnetic NMR
   Zikuan Wang            : NOTCH, Electric field optimization 
   Frank Wennmohs         : Technical directorship and infrastructure
   Hang Xu                : AUTO-CI-Response properties 


 We gratefully acknowledge several colleagues who have allowed us to
 interface, adapt or use parts of their codes:
   Stefan Grimme, W. Hujo, H. Kruse, P. Pracht,  : VdW corrections, initial TS optimization,
                  C. Bannwarth, S. Ehlert,         DFT functionals, gCP, sTDA/sTD-DF
                  L. Wittmann, M. Mueller
   Ed Valeev, F. Pavosevic, A. Kumar             : LibInt (2-el integral package), F12 methods
   Garnet Chan, S. Sharma, J. Yang, R. Olivares  : DMRG
   Ulf Ekstrom                                   : XCFun DFT Library
   Mihaly Kallay                                 : mrcc  (arbitrary order and MRCC methods)
   Frank Weinhold                                : gennbo (NPA and NBO analysis)
   Simon Mueller                                 : openCOSMO-RS
   Christopher J. Cramer and Donald G. Truhlar   : smd solvation model
   Lars Goerigk                                  : TD-DFT with DH, B97 family of functionals
   V. Asgeirsson, H. Jonsson                     : NEB implementation
   FAccTs GmbH                                   : IRC, NEB, NEB-TS, DLPNO-Multilevel, CI-OPT
                                                   MM, QMMM, 2- and 3-layer-ONIOM, Crystal-QMMM,
                                                   LR-CPCM, SF, NACMEs, symmetry and pop. for TD-DFT,
                                                   nearIR, NL-DFT gradient (VV10), updates on ESD,
                                                   ML-optimized integration grids, MBIS, APM,
                                                   GOAT, DOCKER, SOLVATOR, interface openCOSMO-RS
   S Lehtola, MJT Oliveira, MAL Marques          : LibXC Library
   Liviu Ungur et al                             : ANISO software


 Your calculation uses the libint2 library for the computation of 2-el integrals
 For citations please refer to: http://libint.valeyev.net

 Your ORCA version has been built with support for libXC version: 6.2.2
 For citations please refer to: https://libxc.gitlab.io

 This ORCA versions uses:
   CBLAS   interface :  Fast vector & matrix operations
   LAPACKE interface :  Fast linear algebra routines
   SCALAPACK package :  Parallel linear algebra routines
   Shared memory     :  Shared parallel matrices
   BLAS/LAPACK       :  OpenBLAS 0.3.27  USE64BITINT DYNAMIC_ARCH NO_AFFINITY SkylakeX SINGLE_THREADED
        Core in use  :  SkylakeX
   Copyright (c) 2011-2014, The OpenBLAS Project




***************************************
The coordinates will be read from file: xtb_opt.xyz
***************************************


Your calculation utilizes the geometrical counterpoise correction gCP
Please cite in your paper:
H.Kruse, S. Grimme J.Chem.Phys., 136, (2012), 154101 
   

Your calculation utilizes the atom-pairwise dispersion correction
based on EEQ partial charges (D4)


Your calculation utilizes the SMD solvation module
Please cite in your paper:
A.V. Marenich, C.J. Cramer, D.G. Truhlar J. Phys. Chem. B, 113, (2009), 6378 

================================================================================

----- Orbital basis set information -----
Your calculation utilizes the basis: def2-mTZVPP
   Stefan Grimme, Andreas Hansen, Sebastian Ehlert, and Jan-Michael Mewes 
   J. Chem. Phys. 154, 064103 (2021). DOI: 10.1063/5.0040021

----- AuxJ basis set information -----
Your calculation utilizes the auxiliary basis: def2/J
   F. Weigend, Phys. Chem. Chem. Phys. 8, 1057 (2006).

================================================================================
                                        WARNINGS
                       Please study these warnings very carefully!
================================================================================

WARNING: Old DensityContainer found on disk!
         Will remove this file - 
         If you want to keep old densities, please start your calculation with a different basename. 

Using LibXC functional ID 497 : Re-regularized SCAN exchange by Furness et al
[ 1]  J. W. Furness, A. D. Kaplan, J. Ning, J. P. Perdew, and J. Sun.,  J. Phys. Chem. Lett. 11, 8208-8215 (2020)
[ 2]  J. W. Furness, A. D. Kaplan, J. Ning, J. P. Perdew, and J. Sun.,  J. Phys. Chem. Lett. 11, 9248-9248 (2020)
Using LibXC functional ID 498 : Re-regularized SCAN correlation by Furness et al
[ 1]  J. W. Furness, A. D. Kaplan, J. Ning, J. P. Perdew, and J. Sun.,  J. Phys. Chem. Lett. 11, 8208-8215 (2020)
[ 2]  J. W. Furness, A. D. Kaplan, J. Ning, J. P. Perdew, and J. Sun.,  J. Phys. Chem. Lett. 11, 9248-9248 (2020)
Using LibXC functional ID 497 : Re-regularized SCAN exchange by Furness et al
[ 1]  J. W. Furness, A. D. Kaplan, J. Ning, J. P. Perdew, and J. Sun.,  J. Phys. Chem. Lett. 11, 8208-8215 (2020)
[ 2]  J. W. Furness, A. D. Kaplan, J. Ning, J. P. Perdew, and J. Sun.,  J. Phys. Chem. Lett. 11, 9248-9248 (2020)
Using LibXC functional ID 498 : Re-regularized SCAN correlation by Furness et al
[ 1]  J. W. Furness, A. D. Kaplan, J. Ning, J. P. Perdew, and J. Sun.,  J. Phys. Chem. Lett. 11, 8208-8215 (2020)
[ 2]  J. W. Furness, A. D. Kaplan, J. Ning, J. P. Perdew, and J. Sun.,  J. Phys. Chem. Lett. 11, 9248-9248 (2020)

================================================================================
                                       INPUT FILE
================================================================================
NAME = xtb_opt.inp
|  1> ! r2scan-3c def2/J RI DEFGRID2 scfconv7 ENGRAD tightSCF miniprint
|  2> %cpcm
|  3>     smd true
|  4>     smdsolvent "water"
|  5> end
|  6> * xyzfile 0 1 xtb_opt.xyz
|  7> 
|  8>                          ****END OF INPUT****
================================================================================

                     *******************************
                     * Energy+Gradient Calculation *
                     *******************************

---------------------------------
CARTESIAN COORDINATES (ANGSTROEM)
---------------------------------
  C      1.600027   -0.886743   -0.069202
  O      1.239525    0.480896   -0.267566
  C      0.045444    0.889670    0.410951
  C     -1.257622    0.483042   -0.260749
  N     -1.636102   -0.914347    0.022939
  H      1.530399   -1.162377    0.994046
  H      2.639555   -0.993357   -0.396783
  H      0.968125   -1.567095   -0.652563
  H      0.065894    0.523955    1.451056
  H      0.094512    1.983522    0.438924
  H     -2.024577    1.205961    0.066466
  H     -1.146638    0.611616   -1.344903
  H     -2.530772   -1.099098   -0.422460
  H     -1.814007   -0.990248    1.021364

----------------------------
CARTESIAN COORDINATES (A.U.)
----------------------------
  NO LB      ZA    FRAG     MASS         X           Y           Z
   0 C     6.0000    0    12.011    3.023612   -1.675702   -0.130773
   1 O     8.0000    0    15.999    2.342364    0.908763   -0.505626
   2 C     6.0000    0    12.011    0.085877    1.681233    0.776586
   3 C     6.0000    0    12.011   -2.376562    0.912817   -0.492745
   4 N     7.0000    0    14.007   -3.091785   -1.727866    0.043349
   5 H     1.0000    0     1.008    2.892034   -2.196574    1.878475
   6 H     1.0000    0     1.008    4.988037   -1.877173   -0.749811
   7 H     1.0000    0     1.008    1.829490   -2.961380   -1.233164
   8 H     1.0000    0     1.008    0.124521    0.990132    2.742098
   9 H     1.0000    0     1.008    0.178602    3.748314    0.829445
  10 H     1.0000    0     1.008   -3.825896    2.278936    0.125603
  11 H     1.0000    0     1.008   -2.166831    1.155787   -2.541499
  12 H     1.0000    0     1.008   -4.782465   -2.076995   -0.798333
  13 H     1.0000    0     1.008   -3.427976   -1.871298    1.930098

------------------------------------------------------------------------------
                   ___                                                        
                  /   \      - P O W E R E D   B Y -                         
                 /     \                                                     
                 |  |  |   _    _      __       _____    __    __             
                 |  |  |  | |  | |    /  \     |  _  \  |  |  /  |          
                  \  \/   | |  | |   /    \    | | | |  |  | /  /          
                 / \  \   | |__| |  /  /\  \   | |_| |  |  |/  /          
                |  |  |   |  __  | /  /__\  \  |    /   |      \           
                |  |  |   | |  | | |   __   |  |    \   |  |\   \          
                \     /   | |  | | |  |  |  |  | |\  \  |  | \   \       
                 \___/    |_|  |_| |__|  |__|  |_| \__\ |__|  \__/        
                                                                              
                      - O R C A' S   B I G   F R I E N D -                    
                                      &                                       
                       - I N T E G R A L  F E E D E R -                       
                                                                              
 v1 FN, 2020, v2 2021, v3 2022-2024                                           
------------------------------------------------------------------------------


----------------------
SHARK INTEGRAL PACKAGE
----------------------

Number of atoms                             ...     14
Number of basis functions                   ...    150
Number of shells                            ...     74
Maximum angular momentum                    ...      2
Integral batch strategy                     ... SHARK/LIBINT Hybrid
RI-J (if used) integral strategy            ... SPLIT-RIJ (Revised 2003 algorithm where possible)
Printlevel                                  ...      1
Contraction scheme used                     ... SEGMENTED contraction
Prescreening option                         ... SCHWARTZ
   Thresh                                   ... 3.000e-11
   Tcut                                     ... 1.000e-12
   Tpresel                                  ... 1.000e-12 
Coulomb Range Separation                    ... NOT USED
Exchange Range Separation                   ... NOT USED
Multipole approximations                    ... NOT USED
Finite Nucleus Model                        ... NOT USED
CABS basis                                  ... NOT available
Auxiliary Coulomb fitting basis             ... AVAILABLE
   # of basis functions in Aux-J            ...    344
   # of shells in Aux-J                     ...    120
   Maximum angular momentum in Aux-J        ...      4
Auxiliary J/K fitting basis                 ... NOT available
Auxiliary Correlation fitting basis         ... NOT available
Auxiliary 'external' fitting basis          ... NOT available

Checking pre-screening integrals            ... done (  0.0 sec) Dimension = 74
Check shell pair data                       ... done (  0.0 sec)
Shell pair information
Shell pair cut-off parameter TPreSel        ...   1.0e-12
Total number of shell pairs                 ...      2775
Shell pairs after pre-screening             ...      2665
Total number of primitive shell pairs       ...      9590
Primitive shell pairs kept                  ...      7017
          la=0 lb=0:    895 shell pairs
          la=1 lb=0:    987 shell pairs
          la=1 lb=1:    292 shell pairs
          la=2 lb=0:    296 shell pairs
          la=2 lb=1:    167 shell pairs
          la=2 lb=2:     28 shell pairs

Calculating one electron integrals          ... done (  0.0 sec)
Calculating RI/J V-Matrix + Cholesky decomp.... done (  0.0 sec)
Calculating Nuclear repulsion               ... done (  0.0 sec) ENN=    193.707512090745 Eh

Diagonalization of the overlap matrix:
Smallest eigenvalue                        ... 2.935e-04
Time for diagonalization                   ...    0.002 sec
Threshold for overlap eigenvalues          ... 1.000e-07
Number of eigenvalues below threshold      ... 0
Time for construction of square roots      ...    0.022 sec
Total time needed                          ...    0.035 sec

-------------------
DFT GRID GENERATION
-------------------

General Integration Accuracy     IntAcc      ... 4.388
Radial Grid Type                 RadialGrid  ... OptM3 with GC (2021)
Angular Grid (max. ang.)         AngularGrid ... 4 (Lebedev-302)
Angular grid pruning method      GridPruning ... 4 (adaptive)
Weight generation scheme         WeightScheme... mBecke (2022)
Basis function cutoff            BFCut       ... 1.0000e-11
Integration weight cutoff        WCut        ... 1.0000e-14
Partially contracted basis set               ... off
Rotationally invariant grid construction     ... off
Angular grids for H and He will be reduced by one unit
Diffuse basis detected: some atoms will have their outermost
                        angular grid increased by 1.

Total number of grid points                  ...    59571
Total number of batches                      ...      938
Average number of points per batch           ...       63
Average number of grid points per atom       ...     4255
Initializing property integral containers    ... done (  0.0 sec)

SHARK setup successfully completed in   0.9 seconds

Maximum memory used throughout the entire STARTUP-calculation: 26.4 MB
Occupation numbers will be reassigned to an Aufbau configuration
             **** ENERGY FILE WAS UPDATED (xtb_opt.en.tmp) ****
Finished Guess after   0.4 sec
Maximum memory used throughout the entire GUESS-calculation: 10.3 MB
--------------------
CPCM SOLVATION MODEL
--------------------
CPCM parameters:
  Epsilon                                         ...      78.3550
  Refrac                                          ...       1.3328
  Rsolv                                           ...       1.3000
  Surface type                                    ... GAUSSIAN VDW
  Discretization scheme                           ... Constant charge density
    Threshold for H atoms                         ...       5.0000 (charges/Ang^2)
    Threshold for non-H atoms                     ...       5.0000 (charges/Ang^2)
  Epsilon function type                           ...         CPCM
Solvent:                                          ... WATER
SMD-CDS solvent descriptors:
  Soln                                            ...       1.3328
  Soln25                                          ...       1.3323
  Sola                                            ...       0.0000
  Solb                                            ...       0.0000
  Solg                                            ...       0.0000
  Solc                                            ...       0.0000
  Solh                                            ...       0.0000
Radii:
  Scheme                                          ... Element-dependent radii
  Radius for C  used is    3.4960 Bohr (=   1.8500 Ang.)
  Radius for O  used is    2.8724 Bohr (=   1.5200 Ang.)
  Radius for N  used is    3.5716 Bohr (=   1.8900 Ang.)
  Radius for H  used is    2.2677 Bohr (=   1.2000 Ang.)
Calculating surface                               ...        done! (  0.0s)
Cavity surface points                             ...         1046
Cavity Volume                                     ...     619.7507
Cavity Surface-area                               ...     421.3625
Calculating surface distance matrix               ...        done! (  0.0s)
Performing Cholesky decomposition & store         ...        done! (  0.1s)
Overall time for CPCM initialization              ...                 0.1s

----------------------------------------D-I-I-S--------------------------------------------
Iteration    Energy (Eh)           Delta-E    RMSDP     MaxDP     DIISErr   Damp  Time(sec)
-------------------------------------------------------------------------------------------
               ***  Starting incremental Fock matrix formation  ***
                              *** Initializing SOSCF ***
---------------------------------------S-O-S-C-F--------------------------------------
Iteration    Energy (Eh)           Delta-E    RMSDP     MaxDP     MaxGrad    Time(sec)
--------------------------------------------------------------------------------------
    1    -249.6373388995505138     0.00e+00  1.85e-07  4.00e-06  4.62e-07     1.9
               *** Restarting incremental Fock matrix formation ***
    2    -249.6373388995974096    -4.69e-11  1.88e-07  3.81e-06  9.92e-07     1.8
                  *** Gradient check signals convergence ***

               *****************************************************
               *                     SUCCESS                       *
               *           SCF CONVERGED AFTER   2 CYCLES          *
               *****************************************************


SMD CDS free energy correction energy :                 2.59826     Kcal/mol
Total Energy after SMD CDS correction =              -249.633198305 Eh
             **** ENERGY FILE WAS UPDATED (xtb_opt.en.tmp) ****

----------------
TOTAL SCF ENERGY
----------------

Total Energy       :       -249.63319830477201 Eh           -6792.86467 eV

Components:
Nuclear Repulsion  :        193.70751209074461 Eh            5271.04938 eV
Electronic Energy  :       -443.32869738883107 Eh          -12063.58716 eV
One Electron Energy:       -722.29205034552297 Eh          -19654.56591 eV
Two Electron Energy:        278.96335295669189 Eh            7590.97875 eV
CPCM Dielectric    :         -0.01615360151096 Eh              -0.43956 eV
SMD CDS (Gcds)     :          0.00414059482540 Eh               0.11267 eV

Virial components:
Potential Energy   :       -498.06854727196492 Eh          -13553.13420 eV
Kinetic Energy     :        248.43534896719288 Eh            6760.26953 eV
Virial Ratio       :          2.00482157367121

DFT components:
N(Alpha)           :       20.999963994982 electrons
N(Beta)            :       20.999963994982 electrons
N(Total)           :       41.999927989963 electrons
E(X)               :      -33.710128677848 Eh       
E(C)               :       -1.325285858896 Eh       
E(XC)              :      -35.035414536744 Eh       

CPCM Solvation Model Properties:
Surface-charge          :         -0.03613518182485
Corrected charge        :         -0.00000000000000
Outlying charge corr.   :          0.00011577227691 Eh               0.00315 eV
Free-energy (cav+disp)  :          0.00414059482540 Eh               0.11267 eV

---------------
SCF CONVERGENCE
---------------

  Last Energy change         ...    4.6896e-11  Tolerance :   1.0000e-07
  Last MAX-Density change    ...    3.8138e-06  Tolerance :   1.0000e-07
  Last RMS-Density change    ...    1.8806e-07  Tolerance :   5.0000e-09
  Last DIIS Error            ...    5.2961e-06  Tolerance :   1.0000e-07
  Last Orbital Gradient      ...    9.9175e-07  Tolerance :   1.0000e-04
  Last Orbital Rotation      ...    1.7378e-06  Tolerance :   1.0000e-04


----------------
ORBITAL ENERGIES
----------------

  NO   OCC          E(Eh)            E(eV) 
   0   2.0000     -18.955001      -515.7918 
   1   2.0000     -14.133457      -384.5909 
   2   2.0000     -10.069902      -274.0160 
   3   2.0000     -10.061654      -273.7915 
   4   2.0000     -10.046588      -273.3816 
   5   2.0000      -0.988512       -26.8988 
   6   2.0000      -0.838299       -22.8113 
   7   2.0000      -0.699840       -19.0436 
   8   2.0000      -0.629440       -17.1279 
   9   2.0000      -0.554748       -15.0955 
  10   2.0000      -0.459908       -12.5147 
  11   2.0000      -0.448884       -12.2147 
  12   2.0000      -0.426751       -11.6125 
  13   2.0000      -0.401499       -10.9253 
  14   2.0000      -0.390902       -10.6370 
  15   2.0000      -0.362751        -9.8710 
  16   2.0000      -0.330379        -8.9901 
  17   2.0000      -0.321252        -8.7417 
  18   2.0000      -0.284038        -7.7291 
  19   2.0000      -0.232497        -6.3266 
  20   2.0000      -0.203746        -5.5442 
  21   0.0000       0.072188         1.9643 
  22   0.0000       0.089123         2.4252 
  23   0.0000       0.123449         3.3592 
  24   0.0000       0.130640         3.5549 
  25   0.0000       0.133237         3.6256 
  26   0.0000       0.144762         3.9392 
  27   0.0000       0.150667         4.0999 
  28   0.0000       0.179797         4.8925 
  29   0.0000       0.181284         4.9330 
  30   0.0000       0.194413         5.2903 
  31   0.0000       0.202104         5.4995 
*Only the first 10 virtual orbitals were printed.
Total SCF time: 0 days 0 hours 0 min 4 sec 
Finished LeanSCF after   4.3 sec

Maximum memory used throughout the entire LEANSCF-calculation: 16.8 MB


-------------------------------------------------------------------------------
                          DFT DISPERSION CORRECTION                            
                                                                               
                                DFTD4 V3.4.0                                   
-------------------------------------------------------------------------------
-------------------------   ----------------
Dispersion correction           -0.002872142
-------------------------   ----------------

------------------   -----------------
gCP correction             0.012432945
------------------   -----------------

-------------------------   --------------------
FINAL SINGLE POINT ENERGY      -249.623637501737
-------------------------   --------------------

------------------------------------------------------------------------------
                         ORCA SCF GRADIENT CALCULATION
------------------------------------------------------------------------------

Nuc. rep. gradient        (SHARK) ... done (  0.0 sec)
HCore & Overlap gradient  (SHARK) ... done (  0.1 sec)
Split-RIJ-J gradient      (SHARK) ... done (  0.7 sec)
XC gradient                       ... done (  3.5 sec)
CPCM gradient                     ... done (  0.4 sec)
SMD gradient                      ... done (  0.0 sec)
Dispersion correction             ... done (  0.0 sec)

-------------------
DISPERSION GRADIENT
-------------------

   1   C   :    0.000059233   -0.000029108    0.000002928
   2   O   :    0.000043336    0.000012465   -0.000002346
   3   C   :    0.000005925    0.000023208    0.000013321
   4   C   :   -0.000038349    0.000029036   -0.000007628
   5   N   :   -0.000079344   -0.000030372    0.000007361
   6   H   :    0.000031590   -0.000011756    0.000002243
   7   H   :    0.000027600   -0.000011323   -0.000004498
   8   H   :    0.000027444   -0.000013549   -0.000005729
   9   H   :    0.000004388    0.000011875    0.000007074
  10   H   :    0.000004830    0.000026409    0.000003165
  11   H   :   -0.000020478    0.000009079   -0.000001484
  12   H   :   -0.000016704    0.000006855   -0.000009795
  13   H   :   -0.000024401   -0.000011908   -0.000003414
  14   H   :   -0.000025070   -0.000010911   -0.000001196

Difference to translation invariance:
           :   -0.0000000000   -0.0000000000   -0.0000000000

Difference to rotation invariance:
           :   -0.0000000000    0.0000000000   -0.0000000000

Norm of the Dispersion gradient    ...    0.0001522634
RMS gradient                       ...    0.0000234947
MAX gradient                       ...    0.0000793436
gCP correction                   ... done

------------------
CARTESIAN GRADIENT
------------------

   1   C   :   -0.000348521    0.001498604   -0.000373405
   2   O   :   -0.000674527   -0.000552457    0.000087550
   3   C   :    0.001203385   -0.000120549   -0.000440070
   4   C   :   -0.000220783   -0.000356052    0.000287869
   5   N   :    0.000137955    0.000389786    0.000275538
   6   H   :   -0.000053532   -0.000236202    0.000786076
   7   H   :    0.000688630   -0.000116869   -0.000157566
   8   H   :   -0.000306140   -0.000448244   -0.000257904
   9   H   :   -0.000071183   -0.000154217    0.000157072
  10   H   :   -0.000132720    0.000025349    0.000364091
  11   H   :   -0.000170471    0.000327841   -0.000140850
  12   H   :    0.000172775    0.000062787   -0.000493371
  13   H   :   -0.000353380   -0.000261630   -0.000443852
  14   H   :    0.000128511   -0.000058147    0.000348820

Difference to translation invariance:
           :    0.0000000000   -0.0000000000    0.0000000000

Difference to rotation invariance:
           :    0.0000279561   -0.0001763525   -0.0001952577

Norm of the Cartesian gradient     ...    0.0028559473
RMS gradient                       ...    0.0004406822
MAX gradient                       ...    0.0014986043

-------
TIMINGS
-------

Total SCF gradient time     ....        5.178 sec

Densities                   ....       0.000 sec  (  0.0%)
One electron gradient       ....       0.127 sec  (  2.4%)
RI-J Coulomb gradient       ....       0.698 sec  ( 13.5%)
XC gradient                 ....       3.548 sec  ( 68.5%)
CPCM gradient               ....       0.398 sec  (  7.7%)
   A-Matrix (El+Nuc)        ....       0.038 sec  (  0.7%)
   Potential                ....       0.360 sec  (  7.0%)
SMD gradient                ....       0.010 sec  (  0.2%)

Maximum memory used throughout the entire SCFGRAD-calculation: 30.3 MB

------------------------------------------------------------------------------
                              ORCA PROPERTY CALCULATIONS
------------------------------------------------------------------------------

GBWName                                 ... xtb_opt.gbw
Number of atoms                         ...     14
Number of basis functions               ...    150
Max core memory                         ...   1024 MB

Electric properties:
Dipole moment                           ... YES
Quadrupole moment                       ...  NO
Static polarizability (Dipole/Dipole)   ...  NO
Static polarizability (Dipole/Quad.)    ...  NO
Static polarizability (Quad./Quad.)     ...  NO
Static polarizability (Velocity)        ...  NO

Atomic electric properties:
Dipole moment                           ...  NO
Quadrupole moment                       ...  NO
Static polarizability                   ...  NO

Choice of electric origin               ... Center of mass
Position of electric origin             ...    -0.016669    -0.019509    -0.045845

General magnetic properties:
Magnetizability                         ...  NO

EPR properties:
g-Tensor (aka g-matrix)                 ...  NO
Zero-Field splitting spin-orbit         ...  NO
Zero-field splitting spin-spin          ...  NO
Hyperfine couplings                     ...  NO (   0 nuclei)
Quadrupole couplings                    ...  NO (   0 nuclei)
Contact density                         ...  NO (   0 nuclei)

NMR properties:
Chemical shifts                         ...  NO (   0 nuclei)
Spin-rotation constants                 ...  NO (   0 nuclei)
Spin-spin couplings                     ...  NO (   0 nuclei,    0 pairs)

Choice of magnetic origin               ... GIAO
Position of magnetic origin             ...     0.000000     0.000000     0.000000

Properties with geometric perturbations:
SCF Hessian                             ...  NO
IR spectrum                             ...  NO
VCD spectrum                            ...  NO
X-ray spectroscopy properties:
SCF XES/XAS/RIXS spectra                ...  NO


-------------
DIPOLE MOMENT
-------------

Method             : SCF
Type of density    : Electron Density
Multiplicity       :   1
Irrep              :   0
Energy             :  -249.6331983047720087 Eh
Relativity type    : 
Basis              : AO
                                X                 Y                 Z
Electronic contribution:      0.969002033       1.266989681      -0.618278383
Nuclear contribution   :     -1.996435291      -1.305723331       1.285234534
                        -----------------------------------------
Total Dipole Moment    :     -1.027433257      -0.038733651       0.666956151
                        -----------------------------------------
Magnitude (a.u.)       :      1.225540657
Magnitude (Debye)      :      3.115076790



--------------------
Rotational spectrum 
--------------------
 
Rotational constants in cm-1:             0.275704             0.113632             0.089750 
Rotational constants in MHz :          8265.384613          3406.605827          2690.631912 

Dipole components along the rotational axes: 
x,y,z [a.u.] :     1.040340     0.019853     0.647494 
x,y,z [Debye]:     2.644333     0.050463     1.645800 

 

Dipole moment calculation done in   0.0 sec 

Maximum memory used throughout the entire PROP-calculation: 8.6 MB

--------------------------------
SUGGESTED CITATIONS FOR THIS RUN
--------------------------------

Below you find a list of papers that are relevant to this ORCA run
We neither can nor want to force you to cite these papers, but we appreciate if you do
You receive ORCA, which is the product of decades of hard work by many enthusiastic individuals, for free
The only thing we kindly ask in return is that you cite our papers,
We deeply appreciate it, if you show your appreciation for ORCA by not just citing the generic ORCA reference.

Please note that relegating all ORCA citations to the supporting information does *not* help us.
SI sections are not indexed - citations you put there will not count into any citation statistics
But we need these citations in order to attract the funding resources that allow us to do what we are doing

Therefore, if you are a happy ORCA user, please consider citing a few of the papers listed below in the main body of your paper

In addition to the list printed below, the program has created the file xtb_opt.bibtex that contains the list in bibtex format
You can import this file easily into all common literature databanks and citation aid programs


List of essential papers. We consider these as the minimum necessary citations

  1. Neese,F.
     Software update: the ORCA program system, version 5.0
     WIRES Comput. Molec. Sci., 2022 12(1)e1606
     doi.org/10.1002/wcms.1606
  2. Grimme,S.; Hansen,A.; Ehlert,S.; Mewes,J.
     r2SCAN-3c: A 'Swiss army knife' composite electronic-structure method
     J. Chem. Phys., 2021 154 064103
     doi.org/10.1063/5.0040021

List of papers to cite with high priority. The work reported in these papers was absolutely
necessary for this run to complete.
Our perspective: the developers of density functionals and basis sets usually get cited in chemistry papers
Good! But without the algorithms to do something with them, the functionals or basis sets would not do anything.
Hence, in our opinion, the algorithm design and method developments papers are equally worthy of getting cited

  1. Neese,F.
     An improvement of the resolution of the identity approximation for the formation of the Coulomb matrix
     J. Comp. Chem., 2003 24(14)1740-1747
     doi.org/10.1002/jcc.10318
  2. Garcia-Rates,M.; Neese,F.
     Effect of the Solute Cavity on the Solvation Energy and its Derivatives within the Framework of the Gaussian Charge Scheme
     J. Comput. Chem., 2020 41 922-939
     doi.org/10.1002/jcc.26139
  3. Neese,F.
     The SHARK Integral Generation and Digestion System
     J. Comp. Chem., 2022  1-16
     doi.org/10.1002/jcc.26942
  4. Lehtola,S.; Steigemann,C.; Oliveira,M.; Marques,M.
     Recent developments in Libxc - A comprehensive library of functionals for density functional theory
     Software X, 2018 7 
     doi.org/10.1016/j.softx.2017.11.002
  5. Caldeweyher,E.; Bannwarth,C.; Grimme,S.
     Extension of the D3 dispersion coefficient model
     J. Chem. Phys., 2017 147 034112-XXXX
     doi.org/10.1063/1.4993215
  6. Caldeweyher,E.; Ehlert,S.; Hansen,A.; Neugebauer,H.; Spicher,S.; Bannwarth,C.; Grimme,S.
     A generally applicable atomic-charge dependent London dispersion correction
     J. Chem. Phys., 2019 150 154122-XXXX
     doi.org/10.1063/1.5090222
  7. Caldeweyher,E.; Mewes,J.; Ehlert,S.; Grimme,S.
     Extension and evaluation of the D4 London-dispersion model for periodic systems
     Phys. Chem. Chem. Phys., 2020 22(16)8499-8512
     doi.org/10.1039/D0CP00502A

List of suggested additional citations. These are papers that are important in the 'surrounding' of 
of this run, or papers that preceded the highly important papers. If you like your results we are grateful for a citation.

  1. Neese,F.
     The ORCA program system
     WIRES Comput. Molec. Sci., 2012 2(1)73-78
     doi.org/10.1002/wcms.81
  2. Neese,F.
     Software update: the ORCA program system, version 4.0
     WIRES Comput. Molec. Sci., 2018 8(1)1-6
     doi.org/10.1002/wcms.1327
  3. Neese,F.; Wennmohs,F.; Becker,U.; Riplinger,C.
     The ORCA quantum chemistry program package
     J. Chem. Phys., 2020 152 Art. No. L224108
     doi.org/10.1063/5.0004608

List of optional additional citations

  1. Neese,F.
     Approximate second-order SCF convergence for spin unrestricted wavefunctions
     Chem. Phys. Lett., 2000 325(1-3)93-98
     doi.org/10.1016/s0009-2614(00)00662-x

Timings for individual modules:

Sum of individual times          ...       11.085 sec (=   0.185 min)
Startup calculation              ...        0.950 sec (=   0.016 min)   8.6 %
SCF iterations                   ...        4.759 sec (=   0.079 min)  42.9 %
Property calculations            ...        0.105 sec (=   0.002 min)   1.0 %
SCF Gradient evaluation          ...        5.271 sec (=   0.088 min)  47.6 %
                             ****ORCA TERMINATED NORMALLY****
TOTAL RUN TIME: 0 days 0 hours 0 minutes 12 seconds 54 msec
  ------------------------------------------------------------------------
          * successful ORCA run, taking over control again...

         :::::::::::::::::::::::::::::::::::::::::::::::::::::
         ::                  ORCA SUMMARY                   ::
         :::::::::::::::::::::::::::::::::::::::::::::::::::::
         :: total energy            -249.623637501737 Eh    ::
         :: gradient norm              0.002855947320 Eh/a0 ::
         :: HOMO-LUMO gap              0.000000000000 eV    ::
         :::::::::::::::::::::::::::::::::::::::::::::::::::::

      ----------------------------------------------------------- 
     |                       L-ANC optimizer                     |
      ----------------------------------------------------------- 
          low memory version by Sebastian Ehlert

          ...................................................
          :                      SETUP                      :
          :.................................................:
          :   energy convergence        0.5000000E-05 Eh    :
          :   grad. convergence         0.1000000E-02 Eh/a0 :
          :   optimization log               true           :
          :   writing optlog all                1     steps :
          :   Hessian reset                     8     steps :
          :   maximium step len.        1.0000000     a0    :
          :   LBFGS images                      8           :
          ...................................................
 * calculating model hessian...
Using Lindh-Hessian (1995)
 Shifting diagonal of input Hessian by   1.000000000000000E-002
 Lowest  eigenvalues of input Hessian
    0.000000    0.000000    0.000000    0.000000    0.000000    0.000000
    0.013498    0.014512    0.017299    0.025101    0.031956    0.032547
    0.047316    0.065833    0.067056    0.075977    0.077612    0.081199
 Highest eigenvalues
    1.120325    1.175731    1.257724    1.314587    1.393771    1.498448
 

........................................................................
.............................. CYCLE    1 ..............................
........................................................................
                         * ORCA takes the control...
  ------------------------------------------------------------------------

                                 *****************
                                 * O   R   C   A *
                                 *****************

                                            #,                                       
                                            ###                                      
                                            ####                                     
                                            #####                                    
                                            ######                                   
                                           ########,                                 
                                     ,,################,,,,,                         
                               ,,#################################,,                 
                          ,,##########################################,,             
                       ,#########################################, ''#####,          
                    ,#############################################,,   '####,        
                  ,##################################################,,,,####,       
                ,###########''''           ''''###############################       
              ,#####''   ,,,,##########,,,,          '''####'''          '####       
            ,##' ,,,,###########################,,,                        '##       
           ' ,,###''''                  '''############,,,                           
         ,,##''                                '''############,,,,        ,,,,,,###''
      ,#''                                            '''#######################'''  
     '                                                          ''''####''''         
             ,#######,   #######,   ,#######,      ##                                
            ,#'     '#,  ##    ##  ,#'     '#,    #''#        ,####,   ,####,        
            ##       ##  ##   ,#'  ##            #'  '#       #'       #'  '#        
            ##       ##  #######   ##           ,######,      #####,   #    #        
            '#,     ,#'  ##    ##  '#,     ,#' ,#      #,     #,   #   #,  ,#        
             '#######'   ##     ##  '#######'  #'      '#     '####' # '####'        



                #########################################################
                #                        -***-                          #
                #          Department of theory and spectroscopy        #
                #                                                       #
                #                      Frank Neese                      #
                #                                                       #
                #     Directorship, Architecture, Infrastructure        #
                #                    SHARK, DRIVERS                     #
                #        Core code/Algorithms in most modules           #
                #                                                       #
                #        Max Planck Institute fuer Kohlenforschung      #
                #                Kaiser Wilhelm Platz 1                 #
                #                 D-45470 Muelheim/Ruhr                 #
                #                      Germany                          #
                #                                                       #
                #                  All rights reserved                  #
                #                        -***-                          #
                #########################################################


                         Program Version 6.0.0  -   RELEASE  -


 With contributions from (in alphabetic order):
   Daniel Aravena         : Magnetic Suceptibility
   Michael Atanasov       : Ab Initio Ligand Field Theory (pilot matlab implementation)
   Alexander A. Auer      : GIAO ZORA, VPT2 properties, NMR spectrum
   Ute Becker             : All parallelization in ORCA, NUMFREQ, NUMCALC
   Giovanni Bistoni       : ED, misc. LED, open-shell LED, HFLD
   Martin Brehm           : Molecular dynamics
   Dmytro Bykov           : pre 5.0 version of the SCF Hessian
   Marcos Casanova-Páez   : Triplet and SCS-CIS(D). UHF-(DLPNO)-IP/EA/STEOM-CCSD. UHF-CVS-IP/STEOM-CCSD
   Vijay G. Chilkuri      : MRCI spin determinant printing, contributions to CSF-ICE
   Pauline Colinet        : FMM embedding
   Dipayan Datta          : RHF DLPNO-CCSD density
   Achintya Kumar Dutta   : EOM-CC, STEOM-CC
   Nicolas Foglia         : Exact transition moments, OPA infrastructure, MCD improvements
   Dmitry Ganyushin       : Spin-Orbit,Spin-Spin,Magnetic field MRCI
   Miquel Garcia          : C-PCM and meta-GGA Hessian, CCSD/C-PCM, Gaussian charge scheme
   Tiago L. C. Gouveia    : GS-ROHF, GS-ROCIS
   Yang Guo               : DLPNO-NEVPT2, F12-NEVPT2, CIM, IAO-localization
   Andreas Hansen         : Spin unrestricted coupled pair/coupled cluster methods
   Ingolf Harden          : AUTO-CI MPn and infrastructure 
   Benjamin Helmich-Paris : MC-RPA, TRAH-(SCF,CASSCF), AVAS, COSX integrals, SCF dyn. polar.
   Lee Huntington         : MR-EOM, pCC
   Robert Izsak           : Overlap fitted RIJCOSX, COSX-SCS-MP3, EOM
   Riya Kayal             : Wick's Theorem for AUTO-CI, AUTO-CI UHF-CCSDT
   Emily Kempfer          : AUTO-CI, RHF CISDT and CCSDT
   Christian Kollmar      : KDIIS, OOCD, Brueckner-CCSD(T), CCSD density, CASPT2, CASPT2-K, improved NEVPT2
   Axel Koslowski         : Symmetry handling
   Simone Kossmann        : Meta GGA functionals, TD-DFT gradient, OOMP2, (MP2 Hessian; deprecated post 5.0)
   Lucas Lang             : DCDCAS
   Marvin Lechner         : AUTO-CI (C++ implementation), FIC-MRCC
   Spencer Leger          : CASSCF response
   Dagmar Lenk            : GEPOL surface, SMD, ORCA-2-JSON
   Dimitrios Liakos       : Extrapolation schemes; Compound Job, initial MDCI parallelization
   Dimitrios Manganas     : Further ROCIS development; embedding schemes. LFT, Crystal Embedding
   Dimitrios Pantazis     : SARC Basis sets
   Anastasios Papadopoulos: AUTO-CI, single reference methods and gradients
   Taras Petrenko         : pre 6.0 DFT Hessian and TD-DFT gradient, (ASA, deprecated), ECA, 1-Electron XAS/XES, NRVS
   Peter Pinski           : DLPNO-MP2, DLPNO-MP2 Gradient
   Christoph Reimann      : Effective Core Potentials
   Marius Retegan         : Local ZFS, SOC
   Christoph Riplinger    : Optimizer, TS searches, QM/MM, DLPNO-CCSD(T), (RO)-DLPNO pert. Triples
   Michael Roemelt        : Original ROCIS implementation
   Masaaki Saitow         : Open-shell DLPNO-CCSD energy and density
   Barbara Sandhoefer     : DKH picture change effects
   Kantharuban Sivalingam : CASSCF convergence/infrastructure, NEVPT2 and variants, FIC-MRCI
   Bernardo de Souza      : ESD, SOC TD-DFT
   Georgi Stoychev        : AutoAux, RI-MP2 NMR, DLPNO-MP2 response, X2C
   Van Anh Tran           : RI-MP2 g-tensors
   Willem Van den Heuvel  : Paramagnetic NMR
   Zikuan Wang            : NOTCH, Electric field optimization 
   Frank Wennmohs         : Technical directorship and infrastructure
   Hang Xu                : AUTO-CI-Response properties 


 We gratefully acknowledge several colleagues who have allowed us to
 interface, adapt or use parts of their codes:
   Stefan Grimme, W. Hujo, H. Kruse, P. Pracht,  : VdW corrections, initial TS optimization,
                  C. Bannwarth, S. Ehlert,         DFT functionals, gCP, sTDA/sTD-DF
                  L. Wittmann, M. Mueller
   Ed Valeev, F. Pavosevic, A. Kumar             : LibInt (2-el integral package), F12 methods
   Garnet Chan, S. Sharma, J. Yang, R. Olivares  : DMRG
   Ulf Ekstrom                                   : XCFun DFT Library
   Mihaly Kallay                                 : mrcc  (arbitrary order and MRCC methods)
   Frank Weinhold                                : gennbo (NPA and NBO analysis)
   Simon Mueller                                 : openCOSMO-RS
   Christopher J. Cramer and Donald G. Truhlar   : smd solvation model
   Lars Goerigk                                  : TD-DFT with DH, B97 family of functionals
   V. Asgeirsson, H. Jonsson                     : NEB implementation
   FAccTs GmbH                                   : IRC, NEB, NEB-TS, DLPNO-Multilevel, CI-OPT
                                                   MM, QMMM, 2- and 3-layer-ONIOM, Crystal-QMMM,
                                                   LR-CPCM, SF, NACMEs, symmetry and pop. for TD-DFT,
                                                   nearIR, NL-DFT gradient (VV10), updates on ESD,
                                                   ML-optimized integration grids, MBIS, APM,
                                                   GOAT, DOCKER, SOLVATOR, interface openCOSMO-RS
   S Lehtola, MJT Oliveira, MAL Marques          : LibXC Library
   Liviu Ungur et al                             : ANISO software


 Your calculation uses the libint2 library for the computation of 2-el integrals
 For citations please refer to: http://libint.valeyev.net

 Your ORCA version has been built with support for libXC version: 6.2.2
 For citations please refer to: https://libxc.gitlab.io

 This ORCA versions uses:
   CBLAS   interface :  Fast vector & matrix operations
   LAPACKE interface :  Fast linear algebra routines
   SCALAPACK package :  Parallel linear algebra routines
   Shared memory     :  Shared parallel matrices
   BLAS/LAPACK       :  OpenBLAS 0.3.27  USE64BITINT DYNAMIC_ARCH NO_AFFINITY SkylakeX SINGLE_THREADED
        Core in use  :  SkylakeX
   Copyright (c) 2011-2014, The OpenBLAS Project




***************************************
The coordinates will be read from file: xtb_opt.xyz
***************************************


Your calculation utilizes the geometrical counterpoise correction gCP
Please cite in your paper:
H.Kruse, S. Grimme J.Chem.Phys., 136, (2012), 154101 
   

Your calculation utilizes the atom-pairwise dispersion correction
based on EEQ partial charges (D4)


Your calculation utilizes the SMD solvation module
Please cite in your paper:
A.V. Marenich, C.J. Cramer, D.G. Truhlar J. Phys. Chem. B, 113, (2009), 6378 

================================================================================

----- Orbital basis set information -----
Your calculation utilizes the basis: def2-mTZVPP
   Stefan Grimme, Andreas Hansen, Sebastian Ehlert, and Jan-Michael Mewes 
   J. Chem. Phys. 154, 064103 (2021). DOI: 10.1063/5.0040021

----- AuxJ basis set information -----
Your calculation utilizes the auxiliary basis: def2/J
   F. Weigend, Phys. Chem. Chem. Phys. 8, 1057 (2006).

================================================================================
                                        WARNINGS
                       Please study these warnings very carefully!
================================================================================

WARNING: Old DensityContainer found on disk!
         Will remove this file - 
         If you want to keep old densities, please start your calculation with a different basename. 

Using LibXC functional ID 497 : Re-regularized SCAN exchange by Furness et al
[ 1]  J. W. Furness, A. D. Kaplan, J. Ning, J. P. Perdew, and J. Sun.,  J. Phys. Chem. Lett. 11, 8208-8215 (2020)
[ 2]  J. W. Furness, A. D. Kaplan, J. Ning, J. P. Perdew, and J. Sun.,  J. Phys. Chem. Lett. 11, 9248-9248 (2020)
Using LibXC functional ID 498 : Re-regularized SCAN correlation by Furness et al
[ 1]  J. W. Furness, A. D. Kaplan, J. Ning, J. P. Perdew, and J. Sun.,  J. Phys. Chem. Lett. 11, 8208-8215 (2020)
[ 2]  J. W. Furness, A. D. Kaplan, J. Ning, J. P. Perdew, and J. Sun.,  J. Phys. Chem. Lett. 11, 9248-9248 (2020)
Using LibXC functional ID 497 : Re-regularized SCAN exchange by Furness et al
[ 1]  J. W. Furness, A. D. Kaplan, J. Ning, J. P. Perdew, and J. Sun.,  J. Phys. Chem. Lett. 11, 8208-8215 (2020)
[ 2]  J. W. Furness, A. D. Kaplan, J. Ning, J. P. Perdew, and J. Sun.,  J. Phys. Chem. Lett. 11, 9248-9248 (2020)
Using LibXC functional ID 498 : Re-regularized SCAN correlation by Furness et al
[ 1]  J. W. Furness, A. D. Kaplan, J. Ning, J. P. Perdew, and J. Sun.,  J. Phys. Chem. Lett. 11, 8208-8215 (2020)
[ 2]  J. W. Furness, A. D. Kaplan, J. Ning, J. P. Perdew, and J. Sun.,  J. Phys. Chem. Lett. 11, 9248-9248 (2020)

================================================================================
                                       INPUT FILE
================================================================================
NAME = xtb_opt.inp
|  1> ! r2scan-3c def2/J RI DEFGRID2 scfconv7 ENGRAD tightSCF miniprint
|  2> %cpcm
|  3>     smd true
|  4>     smdsolvent "water"
|  5> end
|  6> * xyzfile 0 1 xtb_opt.xyz
|  7> 
|  8>                          ****END OF INPUT****
================================================================================

                     *******************************
                     * Energy+Gradient Calculation *
                     *******************************

---------------------------------
CARTESIAN COORDINATES (ANGSTROEM)
---------------------------------
  C      1.599560   -0.887724   -0.068467
  O      1.241217    0.481354   -0.265443
  C      0.045227    0.890716    0.410808
  C     -1.257170    0.482583   -0.260405
  N     -1.634759   -0.915517    0.021144
  H      1.529236   -1.163987    0.993466
  H      2.638187   -0.994824   -0.395795
  H      0.967421   -1.565645   -0.652964
  H      0.065730    0.527641    1.451593
  H      0.094628    1.984614    0.434863
  H     -2.024484    1.203402    0.069457
  H     -1.148309    0.612663   -1.343969
  H     -2.530434   -1.097840   -0.422090
  H     -1.812287   -0.992039    1.019323

----------------------------
CARTESIAN COORDINATES (A.U.)
----------------------------
  NO LB      ZA    FRAG     MASS         X           Y           Z
   0 C     6.0000    0    12.011    3.022731   -1.677555   -0.129383
   1 O     8.0000    0    15.999    2.345561    0.909627   -0.501614
   2 C     6.0000    0    12.011    0.085467    1.683210    0.776315
   3 C     6.0000    0    12.011   -2.375706    0.911949   -0.492093
   4 N     7.0000    0    14.007   -3.089247   -1.730076    0.039956
   5 H     1.0000    0     1.008    2.889836   -2.199616    1.877379
   6 H     1.0000    0     1.008    4.985451   -1.879944   -0.747944
   7 H     1.0000    0     1.008    1.828160   -2.958640   -1.233923
   8 H     1.0000    0     1.008    0.124211    0.997098    2.743114
   9 H     1.0000    0     1.008    0.178821    3.750376    0.821772
  10 H     1.0000    0     1.008   -3.825720    2.274099    0.131254
  11 H     1.0000    0     1.008   -2.169990    1.157766   -2.539733
  12 H     1.0000    0     1.008   -4.781827   -2.074617   -0.797634
  13 H     1.0000    0     1.008   -3.424726   -1.874682    1.926241

------------------------------------------------------------------------------
                   ___                                                        
                  /   \      - P O W E R E D   B Y -                         
                 /     \                                                     
                 |  |  |   _    _      __       _____    __    __             
                 |  |  |  | |  | |    /  \     |  _  \  |  |  /  |          
                  \  \/   | |  | |   /    \    | | | |  |  | /  /          
                 / \  \   | |__| |  /  /\  \   | |_| |  |  |/  /          
                |  |  |   |  __  | /  /__\  \  |    /   |      \           
                |  |  |   | |  | | |   __   |  |    \   |  |\   \          
                \     /   | |  | | |  |  |  |  | |\  \  |  | \   \       
                 \___/    |_|  |_| |__|  |__|  |_| \__\ |__|  \__/        
                                                                              
                      - O R C A' S   B I G   F R I E N D -                    
                                      &                                       
                       - I N T E G R A L  F E E D E R -                       
                                                                              
 v1 FN, 2020, v2 2021, v3 2022-2024                                           
------------------------------------------------------------------------------


----------------------
SHARK INTEGRAL PACKAGE
----------------------

Number of atoms                             ...     14
Number of basis functions                   ...    150
Number of shells                            ...     74
Maximum angular momentum                    ...      2
Integral batch strategy                     ... SHARK/LIBINT Hybrid
RI-J (if used) integral strategy            ... SPLIT-RIJ (Revised 2003 algorithm where possible)
Printlevel                                  ...      1
Contraction scheme used                     ... SEGMENTED contraction
Prescreening option                         ... SCHWARTZ
   Thresh                                   ... 3.000e-11
   Tcut                                     ... 1.000e-12
   Tpresel                                  ... 1.000e-12 
Coulomb Range Separation                    ... NOT USED
Exchange Range Separation                   ... NOT USED
Multipole approximations                    ... NOT USED
Finite Nucleus Model                        ... NOT USED
CABS basis                                  ... NOT available
Auxiliary Coulomb fitting basis             ... AVAILABLE
   # of basis functions in Aux-J            ...    344
   # of shells in Aux-J                     ...    120
   Maximum angular momentum in Aux-J        ...      4
Auxiliary J/K fitting basis                 ... NOT available
Auxiliary Correlation fitting basis         ... NOT available
Auxiliary 'external' fitting basis          ... NOT available

Checking pre-screening integrals            ... done (  0.0 sec) Dimension = 74
Check shell pair data                       ... done (  0.0 sec)
Shell pair information
Shell pair cut-off parameter TPreSel        ...   1.0e-12
Total number of shell pairs                 ...      2775
Shell pairs after pre-screening             ...      2665
Total number of primitive shell pairs       ...      9590
Primitive shell pairs kept                  ...      7017
          la=0 lb=0:    895 shell pairs
          la=1 lb=0:    987 shell pairs
          la=1 lb=1:    292 shell pairs
          la=2 lb=0:    296 shell pairs
          la=2 lb=1:    167 shell pairs
          la=2 lb=2:     28 shell pairs

Calculating one electron integrals          ... done (  0.0 sec)
Calculating RI/J V-Matrix + Cholesky decomp.... done (  0.0 sec)
Calculating Nuclear repulsion               ... done (  0.0 sec) ENN=    193.705380747444 Eh

Diagonalization of the overlap matrix:
Smallest eigenvalue                        ... 2.943e-04
Time for diagonalization                   ...    0.002 sec
Threshold for overlap eigenvalues          ... 1.000e-07
Number of eigenvalues below threshold      ... 0
Time for construction of square roots      ...    0.023 sec
Total time needed                          ...    0.037 sec

-------------------
DFT GRID GENERATION
-------------------

General Integration Accuracy     IntAcc      ... 4.388
Radial Grid Type                 RadialGrid  ... OptM3 with GC (2021)
Angular Grid (max. ang.)         AngularGrid ... 4 (Lebedev-302)
Angular grid pruning method      GridPruning ... 4 (adaptive)
Weight generation scheme         WeightScheme... mBecke (2022)
Basis function cutoff            BFCut       ... 1.0000e-11
Integration weight cutoff        WCut        ... 1.0000e-14
Partially contracted basis set               ... off
Rotationally invariant grid construction     ... off
Angular grids for H and He will be reduced by one unit
Diffuse basis detected: some atoms will have their outermost
                        angular grid increased by 1.

Total number of grid points                  ...    59572
Total number of batches                      ...      938
Average number of points per batch           ...       63
Average number of grid points per atom       ...     4255
Initializing property integral containers    ... done (  0.0 sec)

SHARK setup successfully completed in   0.8 seconds

Maximum memory used throughout the entire STARTUP-calculation: 26.4 MB
Occupation numbers will be reassigned to an Aufbau configuration
             **** ENERGY FILE WAS UPDATED (xtb_opt.en.tmp) ****
Finished Guess after   0.4 sec
Maximum memory used throughout the entire GUESS-calculation: 10.3 MB
--------------------
CPCM SOLVATION MODEL
--------------------
CPCM parameters:
  Epsilon                                         ...      78.3550
  Refrac                                          ...       1.3328
  Rsolv                                           ...       1.3000
  Surface type                                    ... GAUSSIAN VDW
  Discretization scheme                           ... Constant charge density
    Threshold for H atoms                         ...       5.0000 (charges/Ang^2)
    Threshold for non-H atoms                     ...       5.0000 (charges/Ang^2)
  Epsilon function type                           ...         CPCM
Solvent:                                          ... WATER
SMD-CDS solvent descriptors:
  Soln                                            ...       1.3328
  Soln25                                          ...       1.3323
  Sola                                            ...       0.0000
  Solb                                            ...       0.0000
  Solg                                            ...       0.0000
  Solc                                            ...       0.0000
  Solh                                            ...       0.0000
Radii:
  Scheme                                          ... Element-dependent radii
  Radius for C  used is    3.4960 Bohr (=   1.8500 Ang.)
  Radius for O  used is    2.8724 Bohr (=   1.5200 Ang.)
  Radius for N  used is    3.5716 Bohr (=   1.8900 Ang.)
  Radius for H  used is    2.2677 Bohr (=   1.2000 Ang.)
Calculating surface                               ...        done! (  0.0s)
Cavity surface points                             ...         1046
Cavity Volume                                     ...     619.6685
Cavity Surface-area                               ...     421.3011
Calculating surface distance matrix               ...        done! (  0.0s)
Performing Cholesky decomposition & store         ...        done! (  0.1s)
Overall time for CPCM initialization              ...                 0.1s

----------------------------------------D-I-I-S--------------------------------------------
Iteration    Energy (Eh)           Delta-E    RMSDP     MaxDP     DIISErr   Damp  Time(sec)
-------------------------------------------------------------------------------------------
               ***  Starting incremental Fock matrix formation  ***
                              *** Initializing SOSCF ***
---------------------------------------S-O-S-C-F--------------------------------------
Iteration    Energy (Eh)           Delta-E    RMSDP     MaxDP     MaxGrad    Time(sec)
--------------------------------------------------------------------------------------
    1    -249.6373431441552952     0.00e+00  3.88e-05  5.09e-04  8.41e-05     1.9
               *** Restarting incremental Fock matrix formation ***
    2    -249.6373517734905931    -8.63e-06  1.87e-05  2.16e-04  9.58e-05     1.8
    3    -249.6373521366007822    -3.63e-07  1.01e-05  1.77e-04  1.15e-04     1.6
    4    -249.6373523466931488    -2.10e-07  6.25e-06  8.96e-05  4.84e-05     1.5
    5    -249.6373524254345284    -7.87e-08  1.79e-06  3.35e-05  1.19e-05     1.5
                 **** Energy Check signals convergence ****

               *****************************************************
               *                     SUCCESS                       *
               *           SCF CONVERGED AFTER   5 CYCLES          *
               *****************************************************


SMD CDS free energy correction energy :                 2.59304     Kcal/mol
Total Energy after SMD CDS correction =              -249.633220152 Eh
             **** ENERGY FILE WAS UPDATED (xtb_opt.en.tmp) ****

----------------
TOTAL SCF ENERGY
----------------

Total Energy       :       -249.63322015175319 Eh           -6792.86526 eV

Components:
Nuclear Repulsion  :        193.70538074744388 Eh            5270.99138 eV
Electronic Energy  :       -443.32654086266785 Eh          -12063.52847 eV
One Electron Energy:       -722.28795053903241 Eh          -19654.45435 eV
Two Electron Energy:        278.96140967636455 Eh            7590.92587 eV
CPCM Dielectric    :         -0.01619231021055 Eh              -0.44062 eV
SMD CDS (Gcds)     :          0.00413227368135 Eh               0.11244 eV

Virial components:
Potential Energy   :       -498.07328560881581 Eh          -13553.26314 eV
Kinetic Energy     :        248.44006545706262 Eh            6760.39787 eV
Virial Ratio       :          2.00480258565580

DFT components:
N(Alpha)           :       20.999963602923 electrons
N(Beta)            :       20.999963602923 electrons
N(Total)           :       41.999927205846 electrons
E(X)               :      -33.711581306133 Eh       
E(C)               :       -1.325301139855 Eh       
E(XC)              :      -35.036882445988 Eh       

CPCM Solvation Model Properties:
Surface-charge          :         -0.03611060569309
Corrected charge        :          0.00000000000000
Outlying charge corr.   :          0.00011562465038 Eh               0.00315 eV
Free-energy (cav+disp)  :          0.00413227368135 Eh               0.11244 eV

---------------
SCF CONVERGENCE
---------------

  Last Energy change         ...    7.8741e-08  Tolerance :   1.0000e-07
  Last MAX-Density change    ...    3.3466e-05  Tolerance :   1.0000e-07
  Last RMS-Density change    ...    1.7950e-06  Tolerance :   5.0000e-09
  Last DIIS Error            ...    1.0235e-03  Tolerance :   1.0000e-07
  Last Orbital Gradient      ...    1.1898e-05  Tolerance :   1.0000e-04
  Last Orbital Rotation      ...    1.6233e-05  Tolerance :   1.0000e-04


----------------
ORBITAL ENERGIES
----------------

  NO   OCC          E(Eh)            E(eV) 
   0   2.0000     -18.954855      -515.7878 
   1   2.0000     -14.133335      -384.5876 
   2   2.0000     -10.069903      -274.0160 
   3   2.0000     -10.061273      -273.7812 
   4   2.0000     -10.046464      -273.3782 
   5   2.0000      -0.988091       -26.8873 
   6   2.0000      -0.838463       -22.8157 
   7   2.0000      -0.699896       -19.0451 
   8   2.0000      -0.629614       -17.1327 
   9   2.0000      -0.554729       -15.0949 
  10   2.0000      -0.459854       -12.5133 
  11   2.0000      -0.448812       -12.2128 
  12   2.0000      -0.426690       -11.6108 
  13   2.0000      -0.401405       -10.9228 
  14   2.0000      -0.390862       -10.6359 
  15   2.0000      -0.362892        -9.8748 
  16   2.0000      -0.330469        -8.9925 
  17   2.0000      -0.321359        -8.7446 
  18   2.0000      -0.283989        -7.7277 
  19   2.0000      -0.232495        -6.3265 
  20   2.0000      -0.203853        -5.5471 
  21   0.0000       0.072000         1.9592 
  22   0.0000       0.089245         2.4285 
  23   0.0000       0.123566         3.3624 
  24   0.0000       0.130702         3.5566 
  25   0.0000       0.133261         3.6262 
  26   0.0000       0.144945         3.9441 
  27   0.0000       0.150843         4.1046 
  28   0.0000       0.179961         4.8970 
  29   0.0000       0.181549         4.9402 
  30   0.0000       0.194418         5.2904 
  31   0.0000       0.202346         5.5061 
*Only the first 10 virtual orbitals were printed.
Total SCF time: 0 days 0 hours 0 min 8 sec 
Finished LeanSCF after   8.9 sec

Maximum memory used throughout the entire LEANSCF-calculation: 16.8 MB


-------------------------------------------------------------------------------
                          DFT DISPERSION CORRECTION                            
                                                                               
                                DFTD4 V3.4.0                                   
-------------------------------------------------------------------------------
-------------------------   ----------------
Dispersion correction           -0.002872305
-------------------------   ----------------

------------------   -----------------
gCP correction             0.012440578
------------------   -----------------

-------------------------   --------------------
FINAL SINGLE POINT ENERGY      -249.623651878349
-------------------------   --------------------

------------------------------------------------------------------------------
                         ORCA SCF GRADIENT CALCULATION
------------------------------------------------------------------------------

Nuc. rep. gradient        (SHARK) ... done (  0.0 sec)
HCore & Overlap gradient  (SHARK) ... done (  0.1 sec)
Split-RIJ-J gradient      (SHARK) ... done (  0.7 sec)
XC gradient                       ... done (  3.5 sec)
CPCM gradient                     ... done (  0.4 sec)
SMD gradient                      ... done (  0.0 sec)
Dispersion correction             ... done (  0.0 sec)

-------------------
DISPERSION GRADIENT
-------------------

   1   C   :    0.000059271   -0.000029120    0.000002839
   2   O   :    0.000043346    0.000012453   -0.000002266
   3   C   :    0.000005864    0.000023374    0.000013308
   4   C   :   -0.000038371    0.000029012   -0.000007574
   5   N   :   -0.000079341   -0.000030411    0.000007315
   6   H   :    0.000031574   -0.000011795    0.000002365
   7   H   :    0.000027706   -0.000011342   -0.000004513
   8   H   :    0.000027364   -0.000013587   -0.000005754
   9   H   :    0.000004400    0.000011920    0.000007106
  10   H   :    0.000004833    0.000026407    0.000003140
  11   H   :   -0.000020497    0.000009068   -0.000001462
  12   H   :   -0.000016720    0.000006850   -0.000009827
  13   H   :   -0.000024383   -0.000011909   -0.000003438
  14   H   :   -0.000025045   -0.000010920   -0.000001240

Difference to translation invariance:
           :    0.0000000000    0.0000000000    0.0000000000

Difference to rotation invariance:
           :    0.0000000000    0.0000000000    0.0000000000

Norm of the Dispersion gradient    ...    0.0001523216
RMS gradient                       ...    0.0000235037
MAX gradient                       ...    0.0000793415
gCP correction                   ... done

------------------
CARTESIAN GRADIENT
------------------

   1   C   :   -0.000097282    0.000696247   -0.000099560
   2   O   :   -0.000393685   -0.000314020    0.000084300
   3   C   :    0.000648029   -0.000055594   -0.000207278
   4   C   :   -0.000175336   -0.000196390    0.000108064
   5   N   :   -0.000171276    0.000285080    0.000123791
   6   H   :    0.000011690   -0.000060538    0.000167071
   7   H   :    0.000143533   -0.000044339   -0.000025023
   8   H   :   -0.000023835   -0.000168749   -0.000050080
   9   H   :   -0.000009868   -0.000145499    0.000019247
  10   H   :   -0.000026434    0.000018351    0.000220399
  11   H   :   -0.000056553    0.000121134   -0.000128169
  12   H   :    0.000076562   -0.000053874   -0.000123235
  13   H   :    0.000006180   -0.000112161   -0.000140288
  14   H   :    0.000068274    0.000030352    0.000050762

Difference to translation invariance:
[...]
One Electron Energy:       -722.28984466155146 Eh          -19654.50589 eV
Two Electron Energy:        278.96300453031159 Eh            7590.96927 eV
CPCM Dielectric    :         -0.01625750640650 Eh              -0.44239 eV
SMD CDS (Gcds)     :          0.00412759213893 Eh               0.11232 eV

Virial components:
Potential Energy   :       -498.07276325820624 Eh          -13553.24892 eV
Kinetic Energy     :        248.43952828265432 Eh            6760.38326 eV
Virial Ratio       :          2.00480481790136

DFT components:
N(Alpha)           :       20.999963139790 electrons
N(Beta)            :       20.999963139790 electrons
N(Total)           :       41.999926279579 electrons
E(X)               :      -33.711372516213 Eh       
E(C)               :       -1.325253932399 Eh       
E(XC)              :      -35.036626448612 Eh       

CPCM Solvation Model Properties:
Surface-charge          :         -0.03610198570843
Corrected charge        :          0.00000000000000
Outlying charge corr.   :          0.00011559326945 Eh               0.00315 eV
Free-energy (cav+disp)  :          0.00412759213893 Eh               0.11232 eV

---------------
SCF CONVERGENCE
---------------

  Last Energy change         ...    4.5407e-10  Tolerance :   1.0000e-07
  Last MAX-Density change    ...    4.7190e-05  Tolerance :   1.0000e-07
  Last RMS-Density change    ...    1.7924e-06  Tolerance :   5.0000e-09
  Last DIIS Error            ...    4.9743e-05  Tolerance :   1.0000e-07
  Last Orbital Gradient      ...    1.5344e-05  Tolerance :   1.0000e-04
  Last Orbital Rotation      ...    1.4492e-05  Tolerance :   1.0000e-04


----------------
ORBITAL ENERGIES
----------------

  NO   OCC          E(Eh)            E(eV) 
   0   2.0000     -18.954686      -515.7832 
   1   2.0000     -14.133448      -384.5907 
   2   2.0000     -10.069947      -274.0172 
   3   2.0000     -10.061092      -273.7762 
   4   2.0000     -10.046535      -273.3801 
   5   2.0000      -0.987250       -26.8644 
   6   2.0000      -0.838536       -22.8177 
   7   2.0000      -0.699982       -19.0475 
   8   2.0000      -0.629794       -17.1376 
   9   2.0000      -0.554527       -15.0894 
  10   2.0000      -0.459540       -12.5047 
  11   2.0000      -0.448705       -12.2099 
  12   2.0000      -0.426483       -11.6052 
  13   2.0000      -0.401052       -10.9132 
  14   2.0000      -0.390646       -10.6300 
  15   2.0000      -0.363112        -9.8808 
  16   2.0000      -0.330696        -8.9987 
  17   2.0000      -0.321487        -8.7481 
  18   2.0000      -0.283920        -7.7259 
  19   2.0000      -0.232547        -6.3279 
  20   2.0000      -0.204059        -5.5527 
  21   0.0000       0.071534         1.9465 
  22   0.0000       0.089483         2.4350 
  23   0.0000       0.123678         3.3654 
  24   0.0000       0.130597         3.5537 
  25   0.0000       0.133168         3.6237 
  26   0.0000       0.145189         3.9508 
  27   0.0000       0.151171         4.1136 
  28   0.0000       0.179944         4.8965 
  29   0.0000       0.182046         4.9537 
  30   0.0000       0.194036         5.2800 
  31   0.0000       0.202664         5.5148 
*Only the first 10 virtual orbitals were printed.
Total SCF time: 0 days 0 hours 0 min 4 sec 
Finished LeanSCF after   4.3 sec

Maximum memory used throughout the entire LEANSCF-calculation: 16.8 MB


-------------------------------------------------------------------------------
                          DFT DISPERSION CORRECTION                            
                                                                               
                                DFTD4 V3.4.0                                   
-------------------------------------------------------------------------------
-------------------------   ----------------
Dispersion correction           -0.002874056
-------------------------   ----------------

------------------   -----------------
gCP correction             0.012441819
------------------   -----------------

-------------------------   --------------------
FINAL SINGLE POINT ENERGY      -249.623667211998
-------------------------   --------------------

------------------------------------------------------------------------------
                         ORCA SCF GRADIENT CALCULATION
------------------------------------------------------------------------------

Nuc. rep. gradient        (SHARK) ... done (  0.0 sec)
HCore & Overlap gradient  (SHARK) ... done (  0.1 sec)
Split-RIJ-J gradient      (SHARK) ... done (  0.7 sec)
XC gradient                       ... done (  3.3 sec)
CPCM gradient                     ... done (  0.4 sec)
SMD gradient                      ... done (  0.0 sec)
Dispersion correction             ... done (  0.0 sec)

-------------------
DISPERSION GRADIENT
-------------------

   1   C   :    0.000059208   -0.000029221    0.000002766
   2   O   :    0.000043345    0.000012404   -0.000002095
   3   C   :    0.000005767    0.000023733    0.000013281
   4   C   :   -0.000038387    0.000028995   -0.000007475
   5   N   :   -0.000079057   -0.000030665    0.000007202
   6   H   :    0.000031496   -0.000011850    0.000002437
   7   H   :    0.000027810   -0.000011401   -0.000004488
   8   H   :    0.000027150   -0.000013559   -0.000005713
   9   H   :    0.000004438    0.000012097    0.000007196
  10   H   :    0.000004832    0.000026433    0.000003062
  11   H   :   -0.000020533    0.000009059   -0.000001407
  12   H   :   -0.000016745    0.000006887   -0.000009877
  13   H   :   -0.000024366   -0.000011942   -0.000003516
  14   H   :   -0.000024959   -0.000010968   -0.000001373

Difference to translation invariance:
           :   -0.0000000000    0.0000000000   -0.0000000000

Difference to rotation invariance:
           :   -0.0000000000   -0.0000000000   -0.0000000000

Norm of the Dispersion gradient    ...    0.0001522463
RMS gradient                       ...    0.0000234921
MAX gradient                       ...    0.0000790569
gCP correction                   ... done

------------------
CARTESIAN GRADIENT
------------------

   1   C   :    0.000131208   -0.000434322    0.000133194
   2   O   :    0.000173100    0.000139375   -0.000115118
   3   C   :   -0.000407680    0.000133595    0.000203049
   4   C   :    0.000052625    0.000052631   -0.000077065
   5   N   :   -0.000012599   -0.000089109   -0.000005227
   6   H   :    0.000039672    0.000076122   -0.000129392
   7   H   :   -0.000087268    0.000060235   -0.000012374
   8   H   :    0.000045480    0.000089514    0.000025592
   9   H   :    0.000045916   -0.000042406   -0.000064105
  10   H   :    0.000052659   -0.000018576   -0.000007433
  11   H   :    0.000067023   -0.000024961   -0.000020662
  12   H   :   -0.000007973   -0.000050823    0.000072453
  13   H   :    0.000030159    0.000052100    0.000049469
  14   H   :   -0.000122322    0.000056626   -0.000052381

Difference to translation invariance:
           :   -0.0000000000   -0.0000000000   -0.0000000000

Difference to rotation invariance:
           :    0.0000185755   -0.0002347845   -0.0002003843

Norm of the Cartesian gradient     ...    0.0007930778
RMS gradient                       ...    0.0001223746
MAX gradient                       ...    0.0004343220

-------
TIMINGS
-------

Total SCF gradient time     ....        4.873 sec

Densities                   ....       0.000 sec  (  0.0%)
One electron gradient       ....       0.117 sec  (  2.4%)
RI-J Coulomb gradient       ....       0.677 sec  ( 13.9%)
XC gradient                 ....       3.259 sec  ( 66.9%)
CPCM gradient               ....       0.391 sec  (  8.0%)
   A-Matrix (El+Nuc)        ....       0.036 sec  (  0.7%)
   Potential                ....       0.355 sec  (  7.3%)
SMD gradient                ....       0.015 sec  (  0.3%)

Maximum memory used throughout the entire SCFGRAD-calculation: 30.3 MB

------------------------------------------------------------------------------
                              ORCA PROPERTY CALCULATIONS
------------------------------------------------------------------------------

GBWName                                 ... xtb_opt.gbw
Number of atoms                         ...     14
Number of basis functions               ...    150
Max core memory                         ...   1024 MB

Electric properties:
Dipole moment                           ... YES
Quadrupole moment                       ...  NO
Static polarizability (Dipole/Dipole)   ...  NO
Static polarizability (Dipole/Quad.)    ...  NO
Static polarizability (Quad./Quad.)     ...  NO
Static polarizability (Velocity)        ...  NO

Atomic electric properties:
Dipole moment                           ...  NO
Quadrupole moment                       ...  NO
Static polarizability                   ...  NO

Choice of electric origin               ... Center of mass
Position of electric origin             ...    -0.012425    -0.020567    -0.044975

General magnetic properties:
Magnetizability                         ...  NO

EPR properties:
g-Tensor (aka g-matrix)                 ...  NO
Zero-Field splitting spin-orbit         ...  NO
Zero-field splitting spin-spin          ...  NO
Hyperfine couplings                     ...  NO (   0 nuclei)
Quadrupole couplings                    ...  NO (   0 nuclei)
Contact density                         ...  NO (   0 nuclei)

NMR properties:
Chemical shifts                         ...  NO (   0 nuclei)
Spin-rotation constants                 ...  NO (   0 nuclei)
Spin-spin couplings                     ...  NO (   0 nuclei,    0 pairs)

Choice of magnetic origin               ... GIAO
Position of magnetic origin             ...     0.000000     0.000000     0.000000

Properties with geometric perturbations:
SCF Hessian                             ...  NO
IR spectrum                             ...  NO
VCD spectrum                            ...  NO
X-ray spectroscopy properties:
SCF XES/XAS/RIXS spectra                ...  NO


-------------
DIPOLE MOMENT
-------------

Method             : SCF
Type of density    : Electron Density
Multiplicity       :   1
Irrep              :   0
Energy             :  -249.6332349755519147 Eh
Relativity type    : 
Basis              : AO
                                X                 Y                 Z
Electronic contribution:      0.985140411       1.259880622      -0.609056273
Nuclear contribution   :     -2.026335448      -1.297827375       1.279443893
                        -----------------------------------------
Total Dipole Moment    :     -1.041195037      -0.037946753       0.670387621
                        -----------------------------------------
Magnitude (a.u.)       :      1.238929628
Magnitude (Debye)      :      3.149108852



--------------------
Rotational spectrum 
--------------------
 
Rotational constants in cm-1:             0.274358             0.114128             0.089807 
Rotational constants in MHz :          8225.037051          3421.470978          2692.349770 

Dipole components along the rotational axes: 
x,y,z [a.u.] :    -1.052450     0.024335     0.653225 
x,y,z [Debye]:    -2.675116     0.061856     1.660366 

 

Dipole moment calculation done in   0.0 sec 

Maximum memory used throughout the entire PROP-calculation: 8.6 MB

--------------------------------
SUGGESTED CITATIONS FOR THIS RUN
--------------------------------

Below you find a list of papers that are relevant to this ORCA run
We neither can nor want to force you to cite these papers, but we appreciate if you do
You receive ORCA, which is the product of decades of hard work by many enthusiastic individuals, for free
The only thing we kindly ask in return is that you cite our papers,
We deeply appreciate it, if you show your appreciation for ORCA by not just citing the generic ORCA reference.

Please note that relegating all ORCA citations to the supporting information does *not* help us.
SI sections are not indexed - citations you put there will not count into any citation statistics
But we need these citations in order to attract the funding resources that allow us to do what we are doing

Therefore, if you are a happy ORCA user, please consider citing a few of the papers listed below in the main body of your paper

In addition to the list printed below, the program has created the file xtb_opt.bibtex that contains the list in bibtex format
You can import this file easily into all common literature databanks and citation aid programs


List of essential papers. We consider these as the minimum necessary citations

  1. Neese,F.
     Software update: the ORCA program system, version 5.0
     WIRES Comput. Molec. Sci., 2022 12(1)e1606
     doi.org/10.1002/wcms.1606
  2. Grimme,S.; Hansen,A.; Ehlert,S.; Mewes,J.
     r2SCAN-3c: A 'Swiss army knife' composite electronic-structure method
     J. Chem. Phys., 2021 154 064103
     doi.org/10.1063/5.0040021

List of papers to cite with high priority. The work reported in these papers was absolutely
necessary for this run to complete.
Our perspective: the developers of density functionals and basis sets usually get cited in chemistry papers
Good! But without the algorithms to do something with them, the functionals or basis sets would not do anything.
Hence, in our opinion, the algorithm design and method developments papers are equally worthy of getting cited

  1. Neese,F.
     An improvement of the resolution of the identity approximation for the formation of the Coulomb matrix
     J. Comp. Chem., 2003 24(14)1740-1747
     doi.org/10.1002/jcc.10318
  2. Garcia-Rates,M.; Neese,F.
     Effect of the Solute Cavity on the Solvation Energy and its Derivatives within the Framework of the Gaussian Charge Scheme
     J. Comput. Chem., 2020 41 922-939
     doi.org/10.1002/jcc.26139
  3. Neese,F.
     The SHARK Integral Generation and Digestion System
     J. Comp. Chem., 2022  1-16
     doi.org/10.1002/jcc.26942
  4. Lehtola,S.; Steigemann,C.; Oliveira,M.; Marques,M.
     Recent developments in Libxc - A comprehensive library of functionals for density functional theory
     Software X, 2018 7 
     doi.org/10.1016/j.softx.2017.11.002
  5. Caldeweyher,E.; Bannwarth,C.; Grimme,S.
     Extension of the D3 dispersion coefficient model
     J. Chem. Phys., 2017 147 034112-XXXX
     doi.org/10.1063/1.4993215
  6. Caldeweyher,E.; Ehlert,S.; Hansen,A.; Neugebauer,H.; Spicher,S.; Bannwarth,C.; Grimme,S.
     A generally applicable atomic-charge dependent London dispersion correction
     J. Chem. Phys., 2019 150 154122-XXXX
     doi.org/10.1063/1.5090222
  7. Caldeweyher,E.; Mewes,J.; Ehlert,S.; Grimme,S.
     Extension and evaluation of the D4 London-dispersion model for periodic systems
     Phys. Chem. Chem. Phys., 2020 22(16)8499-8512
     doi.org/10.1039/D0CP00502A

List of suggested additional citations. These are papers that are important in the 'surrounding' of 
of this run, or papers that preceded the highly important papers. If you like your results we are grateful for a citation.

  1. Neese,F.
     The ORCA program system
     WIRES Comput. Molec. Sci., 2012 2(1)73-78
     doi.org/10.1002/wcms.81
  2. Neese,F.
     Software update: the ORCA program system, version 4.0
     WIRES Comput. Molec. Sci., 2018 8(1)1-6
     doi.org/10.1002/wcms.1327
  3. Neese,F.; Wennmohs,F.; Becker,U.; Riplinger,C.
     The ORCA quantum chemistry program package
     J. Chem. Phys., 2020 152 Art. No. L224108
     doi.org/10.1063/5.0004608

List of optional additional citations

  1. Neese,F.
     Approximate second-order SCF convergence for spin unrestricted wavefunctions
     Chem. Phys. Lett., 2000 325(1-3)93-98
     doi.org/10.1016/s0009-2614(00)00662-x

Timings for individual modules:

Sum of individual times          ...       10.584 sec (=   0.176 min)
Startup calculation              ...        0.857 sec (=   0.014 min)   8.1 %
SCF iterations                   ...        4.650 sec (=   0.077 min)  43.9 %
Property calculations            ...        0.109 sec (=   0.002 min)   1.0 %
SCF Gradient evaluation          ...        4.968 sec (=   0.083 min)  46.9 %
                             ****ORCA TERMINATED NORMALLY****
TOTAL RUN TIME: 0 days 0 hours 0 minutes 11 seconds 507 msec
  ------------------------------------------------------------------------
          * successful ORCA run, taking over control again...

         :::::::::::::::::::::::::::::::::::::::::::::::::::::
         ::                  ORCA SUMMARY                   ::
         :::::::::::::::::::::::::::::::::::::::::::::::::::::
         :: total energy            -249.623667211998 Eh    ::
         :: gradient norm              0.000793077847 Eh/a0 ::
         :: HOMO-LUMO gap              0.000000000000 eV    ::
         :::::::::::::::::::::::::::::::::::::::::::::::::::::

           -------------------------------------------------
          |                Property Printout                |
           -------------------------------------------------
           -------------------------------------------------
          |                Geometry Summary                 |
           -------------------------------------------------

      molecular mass/u    :       75.1097826
   center of mass at/Å    :       -0.0065618      -0.0108780      -0.0238030
  moments of inertia/u·Å² :        0.6144215E+02   0.1477051E+03   0.1877053E+03
rotational constants/cm⁻¹ :        0.2743659E+00   0.1141303E+00   0.8980902E-01

 * 13 selected distances

     #   Z          #   Z                                           value/Å
     1   6 C        2   8 O                                       1.4303334
     2   8 O        3   6 C                                       1.4351237
     3   6 C        4   6 C                                       1.5200285 (max)
     4   6 C        5   7 N                                       1.4759844
     1   6 C        6   1 H                                       1.0989494
     1   6 C        7   1 H                                       1.0938231
     1   6 C        8   1 H                                       1.0952072
     3   6 C        9   1 H                                       1.1022976
     3   6 C       10   1 H                                       1.0951835
     4   6 C       11   1 H                                       1.1030433
     4   6 C       12   1 H                                       1.0964240
     5   7 N       13   1 H                                       1.0158214 (min)
     5   7 N       14   1 H                                       1.0167961

 * 5 distinct bonds (by element types)

   Z      Z             #   av. dist./Å        max./Å        min./Å
   1 H    6 C           7     1.0978468     1.1030433     1.0938231
   6 C    6 C           1     1.5200285     1.5200285     1.5200285
   1 H    7 N           2     1.0163087     1.0167961     1.0158214
   6 C    7 N           1     1.4759844     1.4759844     1.4759844
   6 C    8 O           2     1.4327285     1.4351237     1.4303334


optimized geometry written to: xtbopt.coord


           -------------------------------------------------
          | TOTAL ENERGY             -249.623667211998 Eh   |
          | GRADIENT NORM               0.000793077847 Eh/α |
           -------------------------------------------------

------------------------------------------------------------------------
 * finished run on 2025/04/11 at 12:02:13.659     
------------------------------------------------------------------------
 total:
 * wall-time:     0 d,  0 h,  1 min,  9.547 sec
 *  cpu-time:     0 d,  0 h,  0 min,  1.302 sec
 * ratio c/w:     0.019 speedup
 SCF:
 * wall-time:     0 d,  0 h,  0 min, 12.256 sec
 *  cpu-time:     0 d,  0 h,  0 min,  0.340 sec
 * ratio c/w:     0.028 speedup
 ANC optimizer:
 * wall-time:     0 d,  0 h,  0 min, 57.234 sec
 *  cpu-time:     0 d,  0 h,  0 min,  0.753 sec
 * ratio c/w:     0.013 speedup

