      -----------------------------------------------------------      
     |                   =====================                   |     
     |                           x T B                           |     
     |                   =====================                   |     
     |                         S. Grimme                         |     
     |          Mulliken Center for Theoretical Chemistry        |     
     |                    University of Bonn                     |     
      -----------------------------------------------------------      

   * xtb version 6.7.1 (edcfbbe) compiled by 'albert@albert-system' on 2024-07-22

   xtb is free software: you can redistribute it and/or modify it under
   the terms of the GNU Lesser General Public License as published by
   the Free Software Foundation, either version 3 of the License, or
   (at your option) any later version.
   
   xtb is distributed in the hope that it will be useful,
   but WITHOUT ANY WARRANTY; without even the implied warranty of
   MERCHANTABILITY or FITNESS FOR A PARTICULAR PURPOSE.  See the
   GNU Lesser General Public License for more details.
   
   Cite this work as:
   * C. Bannwarth, E. Caldeweyher, S. Ehlert, A. Hansen, P. Pracht,
     J. Seibert, S. Spicher, S. Grimme, WIREs Comput. Mol. Sci., 2020, 11,
     e01493. DOI: 10.1002/wcms.1493
   
   for GFN2-xTB:
   * C. Bannwarth, S. Ehlert and S. Grimme., J. Chem. Theory Comput., 2019,
     15, 1652-1671. DOI: 10.1021/acs.jctc.8b01176
   for GFN1-xTB:
   * S. Grimme, C. Bannwarth, P. Shushkov, J. Chem. Theory Comput., 2017,
     13, 1989-2009. DOI: 10.1021/acs.jctc.7b00118
   for GFN0-xTB:
   * P. Pracht, E. Caldeweyher, S. Ehlert, S. Grimme, ChemRxiv, 2019, preprint.
     DOI: 10.26434/chemrxiv.8326202.v1
   for GFN-FF:
   * S. Spicher and S. Grimme, Angew. Chem. Int. Ed., 2020, 59, 15665-15673.
     DOI: 10.1002/anie.202004239
   
   for ALPB and GBSA implicit solvation:
   * S. Ehlert, M. Stahn, S. Spicher, S. Grimme, J. Chem. Theory Comput.,
     2021, 17, 4250-4261. DOI: 10.1021/acs.jctc.1c00471
   
   for ddCOSMO and CPCM-X implicit solvation:
   * M. Stahn, S. Ehlert, S. Grimme, J. Phys. Chem. A,
     2023, XX, XXXX-XXXX. DOI: 10.1021/acs.jpca.3c04382
   
   for DFT-D4:
   * E. Caldeweyher, C. Bannwarth and S. Grimme, J. Chem. Phys., 2017,
     147, 034112. DOI: 10.1063/1.4993215
   * E. Caldeweyher, S. Ehlert, A. Hansen, H. Neugebauer, S. Spicher,
     C. Bannwarth and S. Grimme, J. Chem. Phys., 2019, 150, 154122.
     DOI: 10.1063/1.5090222
   * E. Caldeweyher, J.-M. Mewes, S. Ehlert and S. Grimme, Phys. Chem. Chem. Phys.
     2020, 22, 8499-8512. DOI: 10.1039/D0CP00502A
   
   for sTDA-xTB:
   * S. Grimme and C. Bannwarth, J. Chem. Phys., 2016, 145, 054103.
     DOI: 10.1063/1.4959605
   
   in the mass-spec context:
   * V. Asgeirsson, C. Bauer and S. Grimme, Chem. Sci., 2017, 8, 4879.
     DOI: 10.1039/c7sc00601b
   * J. Koopman and S. Grimme, ACS Omega 2019, 4, 12, 15120-15133.
     DOI: 10.1021/acsomega.9b02011
   
   for metadynamics refer to:
   * S. Grimme, J. Chem. Theory Comput., 2019, 155, 2847-2862
     DOI: 10.1021/acs.jctc.9b00143
   
   for SPH calculations refer to:
   * S. Spicher and S. Grimme, J. Chem. Theory Comput., 2021, 17, 1701-1714
     DOI: 10.1021/acs.jctc.0c01306
   
   for ONIOM refer to:
   * C. Plett, A. Katbashev, S. Ehlert, S. Grimme, M. Bursch,
     Phys. Chem. Chem. Phys., 2023, 25, 17860-17868. DOI: 10.1039/D3CP02178E
   
   for DIPRO refer to:
   * J. Kohn, N. Gildemeister, S. Grimme, D. Fazzi, A. Hansen,
     J. Chem. Phys., 2023, just accepted.
   
   for PTB refer to:
   * S. Grimme, M. Mueller, A. Hansen, J. Chem. Phys., 2023, 158, 124111.
     DOI: 10.1063/5.0137838
   
   with help from (in alphabetical order)
   P. Atkinson, C. Bannwarth, F. Bohle, G. Brandenburg, E. Caldeweyher
   M. Checinski, S. Dohm, S. Ehlert, S. Ehrlich, I. Gerasimov, C. Hölzer
   A. Katbashev, J. Kohn, J. Koopman, C. Lavigne, S. Lehtola, F. März, M. Müller,
   F. Musil, H. Neugebauer, J. Pisarek, C. Plett, P. Pracht, F. Pultar,
   J. Seibert, P. Shushkov, S. Spicher, M. Stahn, M. Steiner, T. Strunk,
   J. Stückrath, T. Rose, and J. Unsleber
   
 * started run on 2025/04/11 at 12:14:11.363     
   ID    Z sym.   atoms
    1    6 C      1, 2, 4-7
    2    1 H      3, 9-21
    3    8 O      8

           -------------------------------------------------
          |                Calculation Setup                |
           -------------------------------------------------

          program call               : /srv/scratch/z5358697/.xtb/bin/xtb xtb_rrho.coord --gfn2 --bhess vtight --chrg 0 --enso --norestart -I rrho-xcontrol-inp --parallel 1 --alpb water
          hostname                   : k068
          coordinate file            : xtb_rrho.coord
          omp threads                :                     1


           -------------------------------------------------
          |                 G F N 2 - x T B                 |
           -------------------------------------------------

        Reference                      10.1021/acs.jctc.8b01176
      * Hamiltonian:
        H0-scaling (s, p, d)           1.850000    2.230000    2.230000
        zeta-weighting                 0.500000
      * Dispersion:
        s8                             2.700000
        a1                             0.520000
        a2                             5.000000
        s9                             5.000000
      * Repulsion:
        kExp                           1.500000    1.000000
        rExp                           1.000000
      * Coulomb:
        alpha                          2.000000
        third order                    shell-resolved
        anisotropic                    true
        a3                             3.000000
        a5                             4.000000
        cn-shift                       1.200000
        cn-exp                         4.000000
        max-rad                        5.000000

      * Solvation model:               ALPB
        Solvent                        water
        Parameter file                 internal GFN2-xTB/ALPB
        Dielectric constant                8.0200E+01
        Reference state                gsolv [1 M gas/solution]
        Free energy shift                  1.0808E-03 Eh       6.7819E-01 kcal/mol
        Temperature                        2.9815E+02 K
        Density                            1.0000E+00 kg/L
        Solvent mass                       1.8000E+01 g/mol
        Interaction kernel             P16
        Born radius scaling (c1)           1.4744E+00
        Born radii integrator          GBOBC
        Born offset                        0.0000E+00 a0       0.0000E+00 AA
        H-bond correction              true
        Ion screening                  false
        Surface tension                    1.0000E-05 Eh       1.5569E+01 dyn/cm
        Grid points                               974 per atom

          ...................................................
          :                      SETUP                      :
          :.................................................:
          :  # basis functions                  42          :
          :  # atomic orbitals                  42          :
          :  # shells                           28          :
          :  # electrons                        44          :
          :  max. iterations                   250          :
          :  Hamiltonian                  GFN2-xTB          :
          :  restarted?                      false          :
          :  GBSA solvation                   true          :
          :  PC potential                    false          :
          :  electronic temp.          300.0000000     K    :
          :  accuracy                    1.0000000          :
          :  -> integral cutoff          0.2500000E+02      :
          :  -> integral neglect         0.1000000E-07      :
          :  -> SCF convergence          0.1000000E-05 Eh   :
          :  -> wf. convergence          0.1000000E-03 e    :
          :  Broyden damping             0.4000000          :
          :  net charge                          0          :
          :  unpaired electrons                  0          :
          ...................................................

 iter      E             dE          RMSdq      gap      omega  full diag
   1    -24.3164681 -0.243165E+02  0.298E+00   11.49       0.0  T
   2    -24.3543857 -0.379176E-01  0.160E+00   11.23       1.0  T
   3    -24.3554432 -0.105754E-02  0.630E-01   11.25       1.0  T
   4    -24.3557675 -0.324318E-03  0.147E-01   11.23       1.0  T
   5    -24.3558578 -0.903203E-04  0.675E-02   11.25       1.0  T
   6    -24.3558599 -0.203150E-05  0.109E-02   11.26       2.0  T
   7    -24.3558602 -0.329870E-06  0.484E-03   11.26       4.5  T
   8    -24.3558602 -0.530948E-07  0.180E-03   11.26      12.1  T
   9    -24.3558602 -0.396152E-08  0.672E-04   11.26      32.5  T
  10    -24.3558603 -0.168699E-08  0.139E-04   11.26     156.7  T

   *** convergence criteria satisfied after 10 iterations ***

         #    Occupation            Energy/Eh            Energy/eV
      -------------------------------------------------------------
         1        2.0000           -0.6812382             -18.5374
       ...           ...                  ...                  ...
        16        2.0000           -0.4565320             -12.4229
        17        2.0000           -0.4547391             -12.3741
        18        2.0000           -0.4398391             -11.9686
        19        2.0000           -0.4333845             -11.7930
        20        2.0000           -0.4241892             -11.5428
        21        2.0000           -0.4221775             -11.4880
        22        2.0000           -0.4042915             -11.0013 (HOMO)
        23                          0.0093614               0.2547 (LUMO)
        24                          0.0731134               1.9895
        25                          0.0831258               2.2620
        26                          0.1037363               2.8228
        27                          0.1174400               3.1957
       ...                                ...                  ...
        42                          0.3037540               8.2656
      -------------------------------------------------------------
                  HL-Gap            0.4136529 Eh           11.2561 eV
             Fermi-level           -0.1974650 Eh           -5.3733 eV

 SCC (total)                   0 d,  0 h,  0 min,  0.019 sec
 SCC setup                      ...        0 min,  0.001 sec (  6.710%)
 Dispersion                     ...        0 min,  0.000 sec (  0.615%)
 classical contributions        ...        0 min,  0.000 sec (  0.126%)
 integral evaluation            ...        0 min,  0.001 sec (  7.816%)
 iterations                     ...        0 min,  0.011 sec ( 58.309%)
 molecular gradient             ...        0 min,  0.005 sec ( 25.430%)
 printout                       ...        0 min,  0.000 sec (  0.912%)

         :::::::::::::::::::::::::::::::::::::::::::::::::::::
         ::                     SUMMARY                     ::
         :::::::::::::::::::::::::::::::::::::::::::::::::::::
         :: total energy             -24.058753183662 Eh    ::
         :: total w/o Gsasa/hb       -24.054950855837 Eh    ::
         :: gradient norm              0.030883340697 Eh/a0 ::
         :: HOMO-LUMO gap             11.256067560182 eV    ::
         ::.................................................::
         :: SCC energy               -24.355794725296 Eh    ::
         :: -> isotropic ES            0.038627414873 Eh    ::
         :: -> anisotropic ES          0.005863016064 Eh    ::
         :: -> anisotropic XC          0.010448117233 Eh    ::
         :: -> dispersion             -0.012715313575 Eh    ::
         :: -> Gsolv                  -0.008410669016 Eh    ::
         ::    -> Gelec               -0.004608341190 Eh    ::
         ::    -> Gsasa                0.000398688099 Eh    ::
         ::    -> Ghb                 -0.005281775623 Eh    ::
         ::    -> Gshift               0.001080759698 Eh    ::
         :: repulsion energy           0.297041541634 Eh    ::
         :: add. restraining           0.000000000000 Eh    ::
         :: total charge              -0.000000000000 e     ::
         :::::::::::::::::::::::::::::::::::::::::::::::::::::

metadynamics with 1 initial structures loaded
           -------------------------------------------------
          |           Optimal kpush determination           |
           -------------------------------------------------
      ----------------------------------------------------------- 
     |                   =====================                   |
     |                        A N C O P T                        |
     |                   =====================                   |
     |               Approximate Normal Coordinate               |
     |                Rational Function Optimizer                |
      ----------------------------------------------------------- 
target rmsd / Å         0.100000
unbiased initial rmsd   0.045324
 
iter. min.        max.        rmsd       kpush
final kpush:  0.000000
           -------------------------------------------------
          |            Biased Numerical Hessian             |
           -------------------------------------------------
kpush                :   0.00000
alpha                :   1.00000
step length          :   0.00500
SCC accuracy         :   0.30000
Hessian scale factor :   1.00000
frozen atoms in %    :   0.00000    0
RMS gradient         :   0.00014
estimated CPU  time      0.02 min
estimated wall time      0.02 min

writing file <hessian>.

 projected vibrational frequencies (cm⁻¹)
eigval :       -0.00    -0.00    -0.00     0.00     0.00     0.00
eigval :       60.12    82.46   189.67   208.76   229.78   257.41
eigval :      286.24   314.14   319.52   404.03   426.80   475.36
eigval :      497.65   859.34   893.89   900.59   946.41   954.42
eigval :      986.73   992.84  1040.72  1081.81  1103.01  1151.68
eigval :     1168.81  1189.98  1213.77  1236.57  1286.60  1323.66
eigval :     1331.29  1348.35  1360.84  1398.26  1404.92  1418.47
eigval :     1474.60  1481.42  1490.39  1498.35  1498.63  1506.85
eigval :     1510.89  2809.14  2919.87  2958.05  2985.34  3023.57
eigval :     3025.02  3026.53  3031.34  3037.88  3037.96  3045.05
eigval :     3055.59  3059.73  3507.36
           -------------------------------------------------
          |                Property Printout                |
           -------------------------------------------------

    * Orbital Energies and Occupations

         #    Occupation            Energy/Eh            Energy/eV
      -------------------------------------------------------------
         1        2.0000           -0.6839341             -18.6108
       ...           ...                  ...                  ...
        10        2.0000           -0.5101672             -13.8824
        11        2.0000           -0.4999832             -13.6052
        12        2.0000           -0.4856697             -13.2157
        13        2.0000           -0.4788158             -13.0292
        14        2.0000           -0.4640329             -12.6270
        15        2.0000           -0.4589159             -12.4877
        16        2.0000           -0.4558973             -12.4056
        17        2.0000           -0.4553525             -12.3908
        18        2.0000           -0.4397367             -11.9658
        19        2.0000           -0.4321797             -11.7602
        20        2.0000           -0.4232896             -11.5183
        21        2.0000           -0.4219100             -11.4808
        22        2.0000           -0.4024893             -10.9523 (HOMO)
        23                          0.0311888               0.8487 (LUMO)
        24                          0.0774685               2.1080
        25                          0.0872187               2.3733
        26                          0.1126166               3.0645
        27                          0.1204124               3.2766
        28                          0.1287951               3.5047
        29                          0.1447324               3.9384
        30                          0.1569132               4.2698
        31                          0.1635078               4.4493
        32                          0.1855926               5.0502
        33                          0.2018935               5.4938
       ...                                ...                  ...
        42                          0.3150122               8.5719
      -------------------------------------------------------------
                  HL-Gap            0.4336781 Eh           11.8010 eV
             Fermi-level           -0.1856503 Eh           -5.0518 eV

     #   Z          covCN         q      C6AA      α(0)
     1   6 C        3.753    -0.119    22.834     6.814
     2   6 C        3.722     0.120    18.718     6.179
     3   1 H        0.923     0.007     2.934     2.679
     4   6 C        3.803    -0.084    22.105     6.694
     5   6 C        3.848    -0.013    20.780     6.484
     6   6 C        3.756    -0.116    22.766     6.803
     7   6 C        3.756    -0.116    22.779     6.805
     8   8 O        1.655    -0.523    23.382     6.528
     9   1 H        0.925     0.049     2.332     2.388
    10   1 H        0.925     0.050     2.315     2.380
    11   1 H        0.925     0.050     2.320     2.382
    12   1 H        0.924     0.039     2.463     2.454
    13   1 H        0.924     0.047     2.359     2.402
    14   1 H        0.924     0.027     2.625     2.534
    15   1 H        0.925     0.040     2.446     2.446
    16   1 H        0.925     0.036     2.500     2.473
    17   1 H        0.925     0.040     2.449     2.447
    18   1 H        0.925     0.042     2.428     2.437
    19   1 H        0.925     0.038     2.477     2.461
    20   1 H        0.925     0.039     2.457     2.451
    21   1 H        0.805     0.345     0.600     1.217

 Mol. C6AA /au·bohr⁶  :       2897.437950
 Mol. C8AA /au·bohr⁸  :      60054.736076
 Mol. α(0) /au        :         79.456207


Wiberg/Mayer (AO) data.
largest (>0.10) Wiberg bond orders for each atom

 ---------------------------------------------------------------------------
     #   Z sym  total        # sym  WBO       # sym  WBO       # sym  WBO
 ---------------------------------------------------------------------------
     1   6 C    3.995 --     2 C    1.007    10 H    0.985    11 H    0.985
                             9 H    0.983
     2   6 C    3.950 --     1 C    1.007     4 C    0.989     8 O    0.976
                             3 H    0.962
     3   1 H    1.000 --     2 C    0.962
     4   6 C    3.995 --     5 C    0.992     2 C    0.989    13 H    0.976
                            12 H    0.973
     5   6 C    3.996 --     7 C    1.011     6 C    1.010     4 C    0.992
                            14 H    0.968
     6   6 C    3.996 --     5 C    1.010    15 H    0.987    16 H    0.987
                            17 H    0.986
     7   6 C    3.996 --     5 C    1.011    19 H    0.986    20 H    0.986
                            18 H    0.984
     8   8 O    1.908 --     2 C    0.976    21 H    0.864
     9   1 H    0.998 --     1 C    0.983
    10   1 H    0.997 --     1 C    0.985
    11   1 H    0.997 --     1 C    0.985
    12   1 H    0.998 --     4 C    0.973
    13   1 H    0.998 --     4 C    0.976
    14   1 H    0.999 --     5 C    0.968
    15   1 H    0.998 --     6 C    0.987
    16   1 H    0.999 --     6 C    0.987
    17   1 H    0.998 --     6 C    0.986
    18   1 H    0.998 --     7 C    0.984
    19   1 H    0.998 --     7 C    0.986
    20   1 H    0.998 --     7 C    0.986
    21   1 H    0.881 --     8 O    0.864
 ---------------------------------------------------------------------------

Topologies differ in total number of bonds
Writing topology from bond orders to xtbtopo.mol

molecular dipole:
                 x           y           z       tot (Debye)
 q only:       -0.629       0.116       0.124
   full:       -0.750       0.219       0.233       2.072
molecular quadrupole (traceless):
                xx          xy          yy          xz          yz          zz
 q only:       -5.059      -0.342       4.496       0.744       1.465       0.563
  q+dip:       -7.382      -0.556       4.974       1.251       1.270       2.408
   full:       -6.998      -0.369       5.366       1.136       1.601       1.632

           -------------------------------------------------
          |                Geometry Summary                 |
           -------------------------------------------------

      molecular mass/u    :      102.1749908
   center of mass at/Å    :       -0.0000454       0.0000006       0.0003097
  moments of inertia/u·Å² :        0.1186687E+03   0.3440344E+03   0.4184981E+03
rotational constants/cm⁻¹ :        0.1420562E+00   0.4899984E-01   0.4028127E-01

 * 20 selected distances

     #   Z          #   Z                                           value/Å
     1   6 C        2   6 C                                       1.5245092
     2   6 C        3   1 H                                       1.1037944
     2   6 C        4   6 C                                       1.5350490
     4   6 C        5   6 C                                       1.5392308 (max)
     5   6 C        6   6 C                                       1.5291596
     5   6 C        7   6 C                                       1.5279396
     2   6 C        8   8 O                                       1.4213192
     1   6 C        9   1 H                                       1.0846367
     1   6 C       10   1 H                                       1.0867540
     1   6 C       11   1 H                                       1.0869912
     4   6 C       12   1 H                                       1.0929609
     4   6 C       13   1 H                                       1.0915775
     5   6 C       14   1 H                                       1.0958226
     6   6 C       15   1 H                                       1.0878380
     6   6 C       16   1 H                                       1.0875391
     6   6 C       17   1 H                                       1.0874815
     7   6 C       18   1 H                                       1.0858436
     7   6 C       19   1 H                                       1.0877207
     7   6 C       20   1 H                                       1.0879789
     8   8 O       21   1 H                                       0.9663402 (min)

 * 4 distinct bonds (by element types)

   Z      Z             #   av. dist./Å        max./Å        min./Å
   1 H    6 C          13     1.0897645     1.1037944     1.0846367
   6 C    6 C           5     1.5311776     1.5392308     1.5245092
   1 H    8 O           1     0.9663402     0.9663402     0.9663402
   6 C    8 O           1     1.4213192     1.4213192     1.4213192

           -------------------------------------------------
          |               Frequency Printout                |
           -------------------------------------------------
 projected vibrational frequencies (cm⁻¹)
eigval :       -0.00    -0.00    -0.00     0.00     0.00     0.00
eigval :       60.12    82.46   189.67   208.76   229.78   257.41
eigval :      286.24   314.14   319.52   404.03   426.80   475.36
eigval :      497.65   859.34   893.89   900.59   946.41   954.42
eigval :      986.73   992.84  1040.72  1081.81  1103.01  1151.68
eigval :     1168.81  1189.98  1213.77  1236.57  1286.60  1323.66
eigval :     1331.29  1348.35  1360.84  1398.26  1404.92  1418.47
eigval :     1474.60  1481.42  1490.39  1498.35  1498.63  1506.85
eigval :     1510.89  2809.14  2919.87  2958.05  2985.34  3023.57
eigval :     3025.02  3026.53  3031.34  3037.88  3037.96  3045.05
eigval :     3055.59  3059.73  3507.36
 reduced masses (amu)
   1: 10.47   2:  9.75   3: 11.38   4: 11.04   5: 10.04   6: 11.12   7:  8.29   8:  9.38
   9:  7.66  10:  2.16  11:  1.89  12:  3.12  13:  2.04  14:  9.03  15:  9.30  16:  8.42
  17:  7.31  18:  9.61  19:  8.74  20:  7.57  21:  5.61  22:  7.85  23:  2.76  24:  7.27
  25:  4.12  26:  5.67  27:  5.16  28:  6.13  29:  7.79  30:  7.27  31:  7.22  32:  6.79
  33:  4.43  34:  4.17  35:  2.82  36:  4.74  37:  3.21  38:  4.89  39:  4.62  40:  3.74
  41:  3.32  42:  3.08  43:  1.59  44:  1.81  45:  1.57  46:  1.58  47:  1.59  48:  1.58
  49:  1.59  50:  1.71  51:  1.75  52:  1.88  53:  1.60  54:  1.93  55:  1.94  56:  1.92
  57:  1.61  58:  1.52  59:  1.71  60:  1.48  61:  1.58  62:  1.73  63:  1.87
 IR intensities (km·mol⁻¹)
   1:  0.17   2:  0.42   3:  0.03   4:  0.28   5:  0.25   6:  0.11   7:  0.54   8:  1.07
   9:  0.28  10:  0.63  11:  3.37  12:  0.50  13:208.66  14:  3.83  15:  8.42  16:  6.41
  17:  4.96  18:  5.77  19:  8.35  20:  1.70  21:  1.31  22:  6.35  23:  3.28  24: 38.63
  25:  1.45  26:  1.83  27: 30.60  28: 41.52  29: 33.96  30: 60.75  31: 31.71  32:  5.82
  33: 71.45  34: 39.14  35:  9.32  36: 22.60  37:  8.41  38: 43.03  39:  6.15  40:  8.11
  41:  3.24  42:  0.84  43:  0.41  44:  0.08  45:  1.07  46:  0.93  47:  0.37  48:  1.20
  49:  0.42  50:152.11  51: 84.95  52: 76.35  53: 50.76  54: 26.78  55: 62.28  56:117.48
  57: 81.80  58: 42.70  59: 76.63  60: 43.38  61: 36.19  62: 35.19  63: 52.71
 Raman intensities (Ä⁴*amu⁻¹)
   1:  0.00   2:  0.00   3:  0.00   4:  0.00   5:  0.00   6:  0.00   7:  0.00   8:  0.00
   9:  0.00  10:  0.00  11:  0.00  12:  0.00  13:  0.00  14:  0.00  15:  0.00  16:  0.00
  17:  0.00  18:  0.00  19:  0.00  20:  0.00  21:  0.00  22:  0.00  23:  0.00  24:  0.00
  25:  0.00  26:  0.00  27:  0.00  28:  0.00  29:  0.00  30:  0.00  31:  0.00  32:  0.00
  33:  0.00  34:  0.00  35:  0.00  36:  0.00  37:  0.00  38:  0.00  39:  0.00  40:  0.00
  41:  0.00  42:  0.00  43:  0.00  44:  0.00  45:  0.00  46:  0.00  47:  0.00  48:  0.00
  49:  0.00  50:  0.00  51:  0.00  52:  0.00  53:  0.00  54:  0.00  55:  0.00  56:  0.00
  57:  0.00  58:  0.00  59:  0.00  60:  0.00  61:  0.00  62:  0.00  63:  0.00
 output can be read by thermo (or use thermo option).
 writing <g98.out> molden fake output.
 recommended (thermochemical) frequency scaling factor: 1.0
           -------------------------------------------------
          |             Thermodynamic Functions             |
           -------------------------------------------------

Molecule has no symmetry elements
It seems to be the C1 point group
c1  symmetry found (for desy threshold:  0.10E+00) used in thermo

          ...................................................
          :                      SETUP                      :
          :.................................................:
          :  # frequencies                          57      :
          :  # imaginary freq.                       0      :
          :  linear?                             false      :
          :  only rotor calc.                    false      :
          :  symmetry                               c1      :
          :  rotational number                       1      :
          :  scaling factor                  1.0000000      :
          :  rotor cutoff                    0.0000000 cm⁻¹ :
          :  imag. cutoff                 -100.0000000 cm⁻¹ :
          :.................................................:

    mode    ω/cm⁻¹     T·S(HO)/kcal·mol⁻¹    T·S(FR)/kcal·mol⁻¹   T·S(vib)
   ------------------------------------------------------------------------
       1     60.12    -1.32773 (100.00%)    -1.00166 (  0.00%)    -1.32773
       2     82.46    -1.14234 (100.00%)    -0.90813 (  0.00%)    -1.14234
       3    189.67    -0.66519 (100.00%)    -0.66149 (  0.00%)    -0.66519
       4    208.76    -0.61253 (100.00%)    -0.63308 (  0.00%)    -0.61253
       5    229.78    -0.56072 (100.00%)    -0.60468 (  0.00%)    -0.56072
       6    257.41    -0.50068 (100.00%)    -0.57105 (  0.00%)    -0.50068
       7    286.24    -0.44606 (100.00%)    -0.53961 (  0.00%)    -0.44606
   ------------------------------------------------------------------------

   temp. (K)  partition function   enthalpy   heat capacity  entropy
                                   cal/mol     cal/K/mol   cal/K/mol   J/K/mol
 298.15  VIB   270.                 4146.862     28.272     25.035
         ROT  0.316E+06              888.752      2.981     28.145
         INT  0.853E+08             5035.614     31.253     53.180
         TR   0.999E+27             1481.254      4.968     39.764
         TOT                        6516.8684    36.2214    92.9440   388.8778

       T/K    H(0)-H(T)+PV         H(T)/Eh          T*S/Eh         G(T)/Eh
   ------------------------------------------------------------------------
    298.15    0.103853E-01    0.200221E+00    0.441607E-01    0.156061E+00
   ------------------------------------------------------------------------

         :::::::::::::::::::::::::::::::::::::::::::::::::::::
         ::                  THERMODYNAMIC                  ::
         :::::::::::::::::::::::::::::::::::::::::::::::::::::
         :: total free energy         -23.903953010094 Eh   ::
         ::.................................................::
         :: total energy              -24.060013747249 Eh   ::
         :: zero point energy           0.189836148802 Eh   ::
         :: G(RRHO) w/o ZPVE           -0.033775411646 Eh   ::
         :: G(RRHO) contrib.            0.156060737155 Eh   ::
         :::::::::::::::::::::::::::::::::::::::::::::::::::::

optimized geometry written to: xtbopt.coord


           -------------------------------------------------
          | TOTAL ENERGY              -24.060013747249 Eh   |
          | TOTAL ENTHALPY            -23.859792307572 Eh   |
          | TOTAL FREE ENERGY         -23.903953010094 Eh   |
          | GRADIENT NORM               0.000143705023 Eh/α |
          | HOMO-LUMO GAP              11.800981695818 eV   |
           -------------------------------------------------

------------------------------------------------------------------------
 * finished run on 2025/04/11 at 12:14:12.918     
------------------------------------------------------------------------
 total:
 * wall-time:     0 d,  0 h,  0 min,  1.554 sec
 *  cpu-time:     0 d,  0 h,  0 min,  1.458 sec
 * ratio c/w:     0.938 speedup
 SCF:
 * wall-time:     0 d,  0 h,  0 min,  0.019 sec
 *  cpu-time:     0 d,  0 h,  0 min,  0.015 sec
 * ratio c/w:     0.760 speedup
 analytical hessian:
 * wall-time:     0 d,  0 h,  0 min,  1.256 sec
 *  cpu-time:     0 d,  0 h,  0 min,  1.233 sec
 * ratio c/w:     0.982 speedup

