21
 energy: -312.204973157553 gnorm: 0.031559686288 xtb: 6.7.1 (edcfbbe)
C            1.78193894578962        0.54027258603941       -1.11734876979513
C            1.07108842817463       -0.17215572977629        0.03253768231442
H            0.70166516831093       -1.14208284550609       -0.31353719343894
C           -0.09088808454027        0.66224372069346        0.60711385716903
C           -1.50025387536480        0.27957136642389        0.12925070725727
C           -1.65044586153136        0.36587478916213       -1.38776122431495
C           -1.91509600644863       -1.10250767818855        0.63131485907975
O            2.00038448648642       -0.51734279752925        1.05149331566594
H            2.61085472635694       -0.06870869763045       -1.47130334545197
H            1.09655621608591        0.71281491841587       -1.94000032125967
H            2.17267545506277        1.49917324036432       -0.78138431974625
H           -0.06951660593080        0.54687023194233        1.69386724545060
H            0.08165446613618        1.71692912836082        0.38046723566860
H           -2.18407351306782        1.01216802344852        0.57527988855492
H           -1.04264904956203       -0.38878368477228       -1.88013755913314
H           -1.35271005339942        1.34780786739725       -1.74749172097436
H           -2.68802673629114        0.20004253698864       -1.66854210653938
H           -2.94648174490566       -1.30788492857956        0.35458772015713
H           -1.28835387917090       -1.88035790323324        0.20255724678976
H           -1.83146491001157       -1.15714410511276        1.71413334615958
H            2.43812040158040        0.28953067212830        1.35695415110130
21
 energy: -312.205939922952 gnorm: 0.013412028129 xtb: 6.7.1 (edcfbbe)
C            1.78227085786176        0.53359027680406       -1.11676110361389
C            1.07205100438785       -0.16905016477097        0.03613366299049
H            0.69469261836040       -1.13474697184884       -0.31776909643246
C           -0.09132460537364        0.66374048785104        0.61233774529705
C           -1.50039127391958        0.27902044857801        0.12853229034987
C           -1.65269307100099        0.36883024058005       -1.39041767171196
C           -1.91728738692130       -1.10313164530384        0.63515821206917
O            2.02026528059606       -0.51904324801171        1.05639483592089
H            2.61093650428248       -0.07687291131322       -1.48590949837371
H            1.09329985849523        0.72166240458154       -1.94245686573584
H            2.17949652500684        1.49553301518283       -0.77678717339507
H           -0.07013510510137        0.55294056448748        1.70206773670458
H            0.08593132758357        1.72305481580888        0.39111100291743
H           -2.18555153774184        1.01254455353201        0.57420455464622
H           -1.04111869184925       -0.38740397835059       -1.89105227648295
H           -1.35470940192136        1.35326916176253       -1.76223858985487
H           -2.69347213872408        0.19802628083176       -1.67999504245022
H           -2.95303555071326       -1.31660125686160        0.35694202421611
H           -1.29031260544704       -1.88959827202590        0.20527190658001
H           -1.83721824513073       -1.16387651761507        1.72430073672206
H            2.44328402493276        0.29444326841343        1.36298360842091
21
 energy: -312.206135795377 gnorm: 0.004897473041 xtb: 6.7.1 (edcfbbe)
C            1.78221129269370        0.53242346978166       -1.11591538451388
C            1.07033897395780       -0.16908776421788        0.03299014312788
H            0.69051713409482       -1.13607212569707       -0.31598005150224
C           -0.08888676607419        0.66421630818949        0.61470181983528
C           -1.49904566343919        0.27936906397157        0.12903411831448
C           -1.65213746312091        0.36778802679557       -1.39064863233678
C           -1.91823275612903       -1.10297792761765        0.63560858503140
O            2.02917842727344       -0.51939998858253        1.05851111521577
H            2.60442794263694       -0.08329049463476       -1.49683997822924
H            1.09116754554554        0.73502643357702       -1.94051324076659
H            2.19113287310120        1.49254832154780       -0.77538788005155
H           -0.06835971255998        0.55407324982296        1.70579118863691
H            0.09052699406024        1.72636158046058        0.39874926048890
H           -2.18446235137087        1.01378748810348        0.57431548135675
H           -1.03896983227276       -0.38723424614639       -1.89802052355691
H           -1.35630164945468        1.35360136710502       -1.76817533168229
H           -2.69409874453966        0.19390586102374       -1.68380983588059
H           -2.95583692402430       -1.32009504647847        0.35682677917560
H           -1.29266761813664       -1.89578942902308        0.20789210664989
H           -1.84139803987305       -1.16547993408888        1.72737181466807
H            2.43587518875550        0.30265637381886        1.36554942301609
21
 energy: -312.206180292176 gnorm: 0.002463479633 xtb: 6.7.1 (edcfbbe)
C            1.78195488654602        0.53199205354875       -1.11690046357004
C            1.07032941938820       -0.16798292182363        0.03084035529591
H            0.69233294932764       -1.13679588957254       -0.31411186651969
C           -0.08805915830244        0.66279737185187        0.61472025260283
C           -1.49887063547053        0.27899828994862        0.12839495660375
C           -1.65142495359118        0.36732701045211       -1.39104649506713
C           -1.91850128363390       -1.10258643588611        0.63615866972541
O            2.03344276876298       -0.51825863594738        1.05920128914835
H            2.59796318953223       -0.08748588823400       -1.50468085468874
H            1.08945849464997        0.74424045720358       -1.93808573882434
H            2.19917145760600        1.48775470893572       -0.77406152227725
H           -0.06780088620306        0.55036093261666        1.70561808391879
H            0.09127528322230        1.72560286643602        0.40164327017209
H           -2.18404647719064        1.01383146050973        0.57323729190259
H           -1.03731327136719       -0.38661060708428       -1.89904614171962
H           -1.35744359278665        1.35349163476225       -1.76914967588352
H           -2.69311458760400        0.19159600436483       -1.68405000399840
H           -2.95594191733271       -1.31939086701350        0.35641477380961
H           -1.29346434297555       -1.89671076929983        0.21005065488017
H           -1.84336295743264       -1.16459341083307        1.72806030831386
H            2.42839478910117        0.30875328000444        1.36884371306952
21
 energy: -312.206208698155 gnorm: 0.002189600661 xtb: 6.7.1 (edcfbbe)
C            1.78107515094051        0.53188060155622       -1.11846563134661
C            1.06993893782549       -0.16744170494932        0.02823355751880
H            0.69544599922368       -1.13887995407508       -0.31211423102161
C           -0.08668179867453        0.66141721245353        0.61463474379622
C           -1.49781598755807        0.27842463293631        0.12755034771546
C           -1.65027174488244        0.36595572138119       -1.39150423938916
C           -1.91893269140498       -1.10206012759952        0.63610650077284
O            2.03728792302888       -0.51521401245961        1.05889540885945
H            2.58802421233267       -0.09283565126278       -1.51523396473994
H            1.08594560146147        0.75665373407056       -1.93344214536659
H            2.20984582616061        1.48063340626770       -0.77188827086196
H           -0.06675962442163        0.54456190839131        1.70481155394071
H            0.09229435446832        1.72456652473160        0.40479323478974
H           -2.18213939220226        1.01408329826033        0.57185606014999
H           -1.03480371402859       -0.38649881055822       -1.89869888430956
H           -1.35871949819925        1.35251652527190       -1.76878092532882
H           -2.69129234350337        0.18812396409940       -1.68366215977859
H           -2.95568801967863       -1.31786515313477        0.35496303222052
H           -1.29373331648014       -1.89649291034793        0.21236716724718
H           -1.84559885738273       -1.16201215834852        1.72768261865180
H            2.41755860755229        0.31681369719736        1.37394693345767
21
 energy: -312.206219529817 gnorm: 0.002063012030 xtb: 6.7.1 (edcfbbe)
C            1.78012065011883        0.53200115479656       -1.11982161891291
C            1.07043042154062       -0.16741621604656        0.02782054932827
H            0.69747576595963       -1.13993198647079       -0.31084809008005
C           -0.08619694269085        0.66026543047916        0.61461686277292
C           -1.49749398058326        0.27839850510638        0.12713525351259
C           -1.64928994411609        0.36518683198093       -1.39194061593195
C           -1.91910167098449       -1.10165555368639        0.63617188858773
O            2.03926666267725       -0.51290595026820        1.05826123012469
H            2.58140584233614       -0.09570706169907       -1.52247042228093
H            1.08270343579835        0.76426516901312       -1.93020006015245
H            2.21598020817570        1.47619280057657       -0.77077529225906
H           -0.06676481082470        0.54105314176765        1.70436785545994
H            0.09292428425121        1.72341115323148        0.40624262346359
H           -2.18133175254817        1.01467942980205        0.57097778098273
H           -1.03290516578876       -0.38670417632390       -1.89802361489054
H           -1.35897014414242        1.35187687776802       -1.76890217909678
H           -2.68986765516945        0.18606702393051       -1.68373372792823
H           -2.95527804898611       -1.31703846404531        0.35380340996697
H           -1.29326165646842       -1.89584796733390        0.21380399886557
H           -1.84696809899077       -1.16034312606395        1.72759717984246
H            2.41210251400915        0.32048379710154        1.37796770240112
21
 energy: -312.206230678923 gnorm: 0.001698236697 xtb: 6.7.1 (edcfbbe)
C            1.77773910125350        0.53232039538306       -1.12257115239808
C            1.07161382535649       -0.16774684881690        0.02772916699602
H            0.70065894613063       -1.14188187984277       -0.30851628996763
C           -0.08502050838209        0.65851615906085        0.61553013856520
C           -1.49618316998439        0.27837219195406        0.12641437996539
C           -1.64698538467822        0.36339975306068       -1.39288621187607
C           -1.91963637409866       -1.10079328007095        0.63626188400760
O            2.04326815904890       -0.50828195401747        1.05606029406181
H            2.56725108099006       -0.10143342738282       -1.53844622439608
H            1.07481111172820        0.78028874633240       -1.92305114491259
H            2.22856509412401        1.46743709915463       -0.76885018379247
H           -0.06684709156536        0.53537898254285        1.70469745737701
H            0.09500350798076        1.72185805700514        0.41021197925980
H           -2.17936617259255        1.01597780178213        0.56897659113947
H           -1.02864575009515       -0.38765272293418       -1.89701126808160
H           -1.35877585514503        1.35024233925046       -1.77017230325526
H           -2.68678909394712        0.18165076244997       -1.68476376686793
H           -2.95469181286007       -1.31625930956497        0.35098939793406
H           -1.29211176454109       -1.89493779730747        0.21706399763314
H           -1.85057519741211       -1.15720562910307        1.72774512225987
H            2.40169790405614        0.32708153831748        1.38663901823707
21
 energy: -312.206234162282 gnorm: 0.000610786497 xtb: 6.7.1 (edcfbbe)
C            1.77659718244238        0.53261681286530       -1.12314811831724
C            1.07231378730286       -0.16792965619793        0.02889606550853
H            0.70018509800420       -1.14148056428400       -0.30805781571015
C           -0.08502794796546        0.65859653751031        0.61644906105167
C           -1.49586090386573        0.27853505012852        0.12646347959953
C           -1.64583205051686        0.36308609965742       -1.39315629628284
C           -1.91970774390538       -1.10063722221785        0.63645098438079
O            2.04364950154192       -0.50799675154546        1.05495133775530
H            2.56451074204147       -0.10129526880269       -1.54151426432226
H            1.07239627812488        0.78223998718933       -1.92172735945000
H            2.22928772659986        1.46683124533198       -0.76969694571252
H           -0.06733861280782        0.53575074677105        1.70584475468230
H            0.09561738427303        1.72214138843631        0.41148887373143
H           -2.17941636069009        1.01626599555187        0.56837703665961
H           -1.02731593810047       -0.38842159024552       -1.89716235418497
H           -1.35725175999985        1.34983026958597       -1.77131514331462
H           -2.68575102368500        0.18124077460722       -1.68564480145738
H           -2.95458900787767       -1.31679153664619        0.35003889305780
H           -1.29148858168152       -1.89515430988734        0.21816847254538
H           -1.85196089009225       -1.15696113992531        1.72830736029845
H            2.40196381652664        0.32586415986203        1.38803795469584
21
 energy: -312.206234162282 gnorm: 0.000610786497 xtb: 6.7.1 (edcfbbe)
C            1.77659718244238        0.53261681286530       -1.12314811831724
C            1.07231378730286       -0.16792965619793        0.02889606550853
H            0.70018509800420       -1.14148056428400       -0.30805781571015
C           -0.08502794796546        0.65859653751031        0.61644906105167
C           -1.49586090386573        0.27853505012852        0.12646347959953
C           -1.64583205051686        0.36308609965742       -1.39315629628284
C           -1.91970774390538       -1.10063722221785        0.63645098438079
O            2.04364950154192       -0.50799675154546        1.05495133775530
H            2.56451074204147       -0.10129526880269       -1.54151426432226
H            1.07239627812488        0.78223998718933       -1.92172735945000
H            2.22928772659986        1.46683124533198       -0.76969694571252
H           -0.06733861280782        0.53575074677105        1.70584475468230
H            0.09561738427303        1.72214138843631        0.41148887373143
H           -2.17941636069009        1.01626599555187        0.56837703665961
H           -1.02731593810047       -0.38842159024552       -1.89716235418497
H           -1.35725175999985        1.34983026958597       -1.77131514331462
H           -2.68575102368500        0.18124077460722       -1.68564480145738
H           -2.95458900787767       -1.31679153664619        0.35003889305780
H           -1.29148858168152       -1.89515430988734        0.21816847254538
H           -1.85196089009225       -1.15696113992531        1.72830736029845
H            2.40196381652664        0.32586415986203        1.38803795469584
