      -----------------------------------------------------------      
     |                   =====================                   |     
     |                           x T B                           |     
     |                   =====================                   |     
     |                         S. Grimme                         |     
     |          Mulliken Center for Theoretical Chemistry        |     
     |                    University of Bonn                     |     
      -----------------------------------------------------------      

   * xtb version 6.7.1 (edcfbbe) compiled by 'albert@albert-system' on 2024-07-22

   xtb is free software: you can redistribute it and/or modify it under
   the terms of the GNU Lesser General Public License as published by
   the Free Software Foundation, either version 3 of the License, or
   (at your option) any later version.
   
   xtb is distributed in the hope that it will be useful,
   but WITHOUT ANY WARRANTY; without even the implied warranty of
   MERCHANTABILITY or FITNESS FOR A PARTICULAR PURPOSE.  See the
   GNU Lesser General Public License for more details.
   
   Cite this work as:
   * C. Bannwarth, E. Caldeweyher, S. Ehlert, A. Hansen, P. Pracht,
     J. Seibert, S. Spicher, S. Grimme, WIREs Comput. Mol. Sci., 2020, 11,
     e01493. DOI: 10.1002/wcms.1493
   
   for GFN2-xTB:
   * C. Bannwarth, S. Ehlert and S. Grimme., J. Chem. Theory Comput., 2019,
     15, 1652-1671. DOI: 10.1021/acs.jctc.8b01176
   for GFN1-xTB:
   * S. Grimme, C. Bannwarth, P. Shushkov, J. Chem. Theory Comput., 2017,
     13, 1989-2009. DOI: 10.1021/acs.jctc.7b00118
   for GFN0-xTB:
   * P. Pracht, E. Caldeweyher, S. Ehlert, S. Grimme, ChemRxiv, 2019, preprint.
     DOI: 10.26434/chemrxiv.8326202.v1
   for GFN-FF:
   * S. Spicher and S. Grimme, Angew. Chem. Int. Ed., 2020, 59, 15665-15673.
     DOI: 10.1002/anie.202004239
   
   for ALPB and GBSA implicit solvation:
   * S. Ehlert, M. Stahn, S. Spicher, S. Grimme, J. Chem. Theory Comput.,
     2021, 17, 4250-4261. DOI: 10.1021/acs.jctc.1c00471
   
   for ddCOSMO and CPCM-X implicit solvation:
   * M. Stahn, S. Ehlert, S. Grimme, J. Phys. Chem. A,
     2023, XX, XXXX-XXXX. DOI: 10.1021/acs.jpca.3c04382
   
   for DFT-D4:
   * E. Caldeweyher, C. Bannwarth and S. Grimme, J. Chem. Phys., 2017,
     147, 034112. DOI: 10.1063/1.4993215
   * E. Caldeweyher, S. Ehlert, A. Hansen, H. Neugebauer, S. Spicher,
     C. Bannwarth and S. Grimme, J. Chem. Phys., 2019, 150, 154122.
     DOI: 10.1063/1.5090222
   * E. Caldeweyher, J.-M. Mewes, S. Ehlert and S. Grimme, Phys. Chem. Chem. Phys.
     2020, 22, 8499-8512. DOI: 10.1039/D0CP00502A
   
   for sTDA-xTB:
   * S. Grimme and C. Bannwarth, J. Chem. Phys., 2016, 145, 054103.
     DOI: 10.1063/1.4959605
   
   in the mass-spec context:
   * V. Asgeirsson, C. Bauer and S. Grimme, Chem. Sci., 2017, 8, 4879.
     DOI: 10.1039/c7sc00601b
   * J. Koopman and S. Grimme, ACS Omega 2019, 4, 12, 15120-15133.
     DOI: 10.1021/acsomega.9b02011
   
   for metadynamics refer to:
   * S. Grimme, J. Chem. Theory Comput., 2019, 155, 2847-2862
     DOI: 10.1021/acs.jctc.9b00143
   
   for SPH calculations refer to:
   * S. Spicher and S. Grimme, J. Chem. Theory Comput., 2021, 17, 1701-1714
     DOI: 10.1021/acs.jctc.0c01306
   
   for ONIOM refer to:
   * C. Plett, A. Katbashev, S. Ehlert, S. Grimme, M. Bursch,
     Phys. Chem. Chem. Phys., 2023, 25, 17860-17868. DOI: 10.1039/D3CP02178E
   
   for DIPRO refer to:
   * J. Kohn, N. Gildemeister, S. Grimme, D. Fazzi, A. Hansen,
     J. Chem. Phys., 2023, just accepted.
   
   for PTB refer to:
   * S. Grimme, M. Mueller, A. Hansen, J. Chem. Phys., 2023, 158, 124111.
     DOI: 10.1063/5.0137838
   
   with help from (in alphabetical order)
   P. Atkinson, C. Bannwarth, F. Bohle, G. Brandenburg, E. Caldeweyher
   M. Checinski, S. Dohm, S. Ehlert, S. Ehrlich, I. Gerasimov, C. Hölzer
   A. Katbashev, J. Kohn, J. Koopman, C. Lavigne, S. Lehtola, F. März, M. Müller,
   F. Musil, H. Neugebauer, J. Pisarek, C. Plett, P. Pracht, F. Pultar,
   J. Seibert, P. Shushkov, S. Spicher, M. Stahn, M. Steiner, T. Strunk,
   J. Stückrath, T. Rose, and J. Unsleber
   
 * started run on 2025/04/11 at 11:19:23.905     
   ID    Z sym.   atoms
    1    6 C      1-3
    2    8 O      4-6
    3    1 H      7-14

           -------------------------------------------------
          |                Calculation Setup                |
           -------------------------------------------------

          program call               : /srv/scratch/z5358697/.xtb/bin/xtb gas.coord --gfn2 --sp --chrg 0 --norestart --parallel 1
          hostname                   : k022
          coordinate file            : gas.coord
          omp threads                :                     1


           -------------------------------------------------
          |                 G F N 2 - x T B                 |
           -------------------------------------------------

        Reference                      10.1021/acs.jctc.8b01176
      * Hamiltonian:
        H0-scaling (s, p, d)           1.850000    2.230000    2.230000
        zeta-weighting                 0.500000
      * Dispersion:
        s8                             2.700000
        a1                             0.520000
        a2                             5.000000
        s9                             5.000000
      * Repulsion:
        kExp                           1.500000    1.000000
        rExp                           1.000000
      * Coulomb:
        alpha                          2.000000
        third order                    shell-resolved
        anisotropic                    true
        a3                             3.000000
        a5                             4.000000
        cn-shift                       1.200000
        cn-exp                         4.000000
        max-rad                        5.000000


          ...................................................
          :                      SETUP                      :
          :.................................................:
          :  # basis functions                  32          :
          :  # atomic orbitals                  32          :
          :  # shells                           20          :
          :  # electrons                        38          :
          :  max. iterations                   250          :
          :  Hamiltonian                  GFN2-xTB          :
          :  restarted?                      false          :
          :  GBSA solvation                  false          :
          :  PC potential                    false          :
          :  electronic temp.          300.0000000     K    :
          :  accuracy                    1.0000000          :
          :  -> integral cutoff          0.2500000E+02      :
          :  -> integral neglect         0.1000000E-07      :
          :  -> SCF convergence          0.1000000E-05 Eh   :
          :  -> wf. convergence          0.1000000E-03 e    :
          :  Broyden damping             0.4000000          :
          :  net charge                          0          :
          :  unpaired electrons                  0          :
          ...................................................

 iter      E             dE          RMSdq      gap      omega  full diag
   1    -22.8211116 -0.228211E+02  0.443E+00   11.71       0.0  T
   2    -22.8444406 -0.233290E-01  0.237E+00   11.44       1.0  T
   3    -22.8452950 -0.854395E-03  0.712E-01   11.44       1.0  T
   4    -22.8454709 -0.175896E-03  0.132E-01   11.44       1.0  T
   5    -22.8454896 -0.187584E-04  0.343E-02   11.48       1.0  T
   6    -22.8454927 -0.307566E-05  0.163E-02   11.47       1.6  T
   7    -22.8454931 -0.418833E-06  0.463E-03   11.47       5.8  T
   8    -22.8454932 -0.578577E-07  0.178E-03   11.47      15.0  T
   9    -22.8454932 -0.819382E-08  0.341E-04   11.47      78.3  T
  10    -22.8454932 -0.279741E-09  0.160E-04   11.47     166.9  T

   *** convergence criteria satisfied after 10 iterations ***

         #    Occupation            Energy/Eh            Energy/eV
      -------------------------------------------------------------
         1        2.0000           -0.7069024             -19.2358
       ...           ...                  ...                  ...
        13        2.0000           -0.5005148             -13.6197
        14        2.0000           -0.4905235             -13.3478
        15        2.0000           -0.4692693             -12.7695
        16        2.0000           -0.4633546             -12.6085
        17        2.0000           -0.4351144             -11.8401
        18        2.0000           -0.4209569             -11.4548
        19        2.0000           -0.4069331             -11.0732 (HOMO)
        20                          0.0146005               0.3973 (LUMO)
        21                          0.0220618               0.6003
        22                          0.0691496               1.8817
        23                          0.0868300               2.3628
        24                          0.1067702               2.9054
       ...                                ...                  ...
        32                          0.2683543               7.3023
      -------------------------------------------------------------
                  HL-Gap            0.4215336 Eh           11.4705 eV
             Fermi-level           -0.1961663 Eh           -5.3380 eV

 SCC (total)                   0 d,  0 h,  0 min,  0.026 sec
 SCC setup                      ...        0 min,  0.000 sec (  0.659%)
 Dispersion                     ...        0 min,  0.000 sec (  0.234%)
 classical contributions        ...        0 min,  0.000 sec (  0.062%)
 integral evaluation            ...        0 min,  0.001 sec (  3.922%)
 iterations                     ...        0 min,  0.021 sec ( 82.727%)
 molecular gradient             ...        0 min,  0.003 sec ( 11.712%)
 printout                       ...        0 min,  0.000 sec (  0.633%)

         :::::::::::::::::::::::::::::::::::::::::::::::::::::
         ::                     SUMMARY                     ::
         :::::::::::::::::::::::::::::::::::::::::::::::::::::
         :: total energy             -22.671439862440 Eh    ::
         :: gradient norm              0.011558350740 Eh/a0 ::
         :: HOMO-LUMO gap             11.470513778911 eV    ::
         ::.................................................::
         :: SCC energy               -22.845482334431 Eh    ::
         :: -> isotropic ES            0.071580527940 Eh    ::
         :: -> anisotropic ES          0.003729450763 Eh    ::
         :: -> anisotropic XC         -0.002951456707 Eh    ::
         :: -> dispersion             -0.007065002358 Eh    ::
         :: repulsion energy           0.174042471991 Eh    ::
         :: add. restraining           0.000000000000 Eh    ::
         :: total charge              -0.000000000000 e     ::
         :::::::::::::::::::::::::::::::::::::::::::::::::::::

           -------------------------------------------------
          |                Property Printout                |
           -------------------------------------------------

    * Orbital Energies and Occupations

         #    Occupation            Energy/Eh            Energy/eV
      -------------------------------------------------------------
         1        2.0000           -0.7069024             -19.2358
       ...           ...                  ...                  ...
         7        2.0000           -0.5908146             -16.0769
         8        2.0000           -0.5750618             -15.6482
         9        2.0000           -0.5617137             -15.2850
        10        2.0000           -0.5516714             -15.0117
        11        2.0000           -0.5372706             -14.6199
        12        2.0000           -0.5262186             -14.3191
        13        2.0000           -0.5005148             -13.6197
        14        2.0000           -0.4905235             -13.3478
        15        2.0000           -0.4692693             -12.7695
        16        2.0000           -0.4633546             -12.6085
        17        2.0000           -0.4351144             -11.8401
        18        2.0000           -0.4209569             -11.4548
        19        2.0000           -0.4069331             -11.0732 (HOMO)
        20                          0.0146005               0.3973 (LUMO)
        21                          0.0220618               0.6003
        22                          0.0691496               1.8817
        23                          0.0868300               2.3628
        24                          0.1067702               2.9054
        25                          0.1202368               3.2718
        26                          0.1355157               3.6876
        27                          0.1572387               4.2787
        28                          0.1694530               4.6111
        29                          0.2138618               5.8195
        30                          0.2275094               6.1908
       ...                                ...                  ...
        32                          0.2683543               7.3023
      -------------------------------------------------------------
                  HL-Gap            0.4215336 Eh           11.4705 eV
             Fermi-level           -0.1961663 Eh           -5.3380 eV

     #   Z          covCN         q      C6AA      α(0)
     1   6 C        3.673     0.076    19.540     6.335
     2   6 C        3.722     0.094    19.129     6.246
     3   6 C        3.674     0.058    19.828     6.381
     4   8 O        1.655    -0.437    21.582     6.271
     5   8 O        1.655    -0.430    21.447     6.252
     6   8 O        1.655    -0.432    21.484     6.257
     7   1 H        0.923     0.013     2.841     2.636
     8   1 H        0.924     0.026     2.651     2.546
     9   1 H        0.924     0.065     2.142     2.289
    10   1 H        0.924     0.023     2.685     2.562
    11   1 H        0.924     0.067     2.121     2.277
    12   1 H        0.805     0.287     0.762     1.371
    13   1 H        0.804     0.301     0.717     1.330
    14   1 H        0.805     0.290     0.753     1.363

 Mol. C6AA /au·bohr⁶  :       1406.911074
 Mol. C8AA /au·bohr⁸  :      28790.631302
 Mol. α(0) /au        :         54.116502


Wiberg/Mayer (AO) data.
largest (>0.10) Wiberg bond orders for each atom

 ---------------------------------------------------------------------------
     #   Z sym  total        # sym  WBO       # sym  WBO       # sym  WBO
 ---------------------------------------------------------------------------
     1   6 C    3.962 --     6 O    1.002     2 C    0.977     8 H    0.971
                             7 H    0.969
     2   6 C    3.963 --     5 O    1.008     1 C    0.977     3 C    0.974
                             9 H    0.958
     3   6 C    3.954 --     4 O    1.001     2 C    0.974    10 H    0.972
                            11 H    0.970
     4   8 O    1.970 --     3 C    1.001    12 H    0.904
     5   8 O    1.972 --     2 C    1.008    13 H    0.889
     6   8 O    1.956 --     1 C    1.002    14 H    0.902
     7   1 H    1.000 --     1 C    0.969
     8   1 H    0.999 --     1 C    0.971
     9   1 H    0.996 --     2 C    0.958
    10   1 H    0.999 --     3 C    0.972
    11   1 H    0.995 --     3 C    0.970
    12   1 H    0.918 --     4 O    0.904
    13   1 H    0.909 --     5 O    0.889
    14   1 H    0.916 --     6 O    0.902
 ---------------------------------------------------------------------------

Topologies differ in total number of bonds
Writing topology from bond orders to xtbtopo.mol

molecular dipole:
                 x           y           z       tot (Debye)
 q only:       -0.073      -0.965      -0.455
   full:       -0.171      -1.444      -0.755       4.165
molecular quadrupole (traceless):
                xx          xy          yy          xz          yz          zz
 q only:       -1.797       2.628      -1.099       3.409      -0.144       2.896
  q+dip:       -3.177       4.087      -0.979       5.457      -0.196       4.155
   full:       -2.871       3.957      -1.188       5.079      -0.020       4.059


           -------------------------------------------------
          | TOTAL ENERGY              -22.671439862440 Eh   |
          | GRADIENT NORM               0.011558350740 Eh/α |
          | HOMO-LUMO GAP              11.470513778911 eV   |
           -------------------------------------------------

------------------------------------------------------------------------
 * finished run on 2025/04/11 at 11:19:23.960     
------------------------------------------------------------------------
 total:
 * wall-time:     0 d,  0 h,  0 min,  0.054 sec
 *  cpu-time:     0 d,  0 h,  0 min,  0.016 sec
 * ratio c/w:     0.299 speedup
 SCF:
 * wall-time:     0 d,  0 h,  0 min,  0.026 sec
 *  cpu-time:     0 d,  0 h,  0 min,  0.009 sec
 * ratio c/w:     0.352 speedup

