      -----------------------------------------------------------      
     |                   =====================                   |     
     |                           x T B                           |     
     |                   =====================                   |     
     |                         S. Grimme                         |     
     |          Mulliken Center for Theoretical Chemistry        |     
     |                    University of Bonn                     |     
      -----------------------------------------------------------      

   * xtb version 6.7.1 (edcfbbe) compiled by 'albert@albert-system' on 2024-07-22

   xtb is free software: you can redistribute it and/or modify it under
   the terms of the GNU Lesser General Public License as published by
   the Free Software Foundation, either version 3 of the License, or
   (at your option) any later version.
   
   xtb is distributed in the hope that it will be useful,
   but WITHOUT ANY WARRANTY; without even the implied warranty of
   MERCHANTABILITY or FITNESS FOR A PARTICULAR PURPOSE.  See the
   GNU Lesser General Public License for more details.
   
   Cite this work as:
   * C. Bannwarth, E. Caldeweyher, S. Ehlert, A. Hansen, P. Pracht,
     J. Seibert, S. Spicher, S. Grimme, WIREs Comput. Mol. Sci., 2020, 11,
     e01493. DOI: 10.1002/wcms.1493
   
   for GFN2-xTB:
   * C. Bannwarth, S. Ehlert and S. Grimme., J. Chem. Theory Comput., 2019,
     15, 1652-1671. DOI: 10.1021/acs.jctc.8b01176
   for GFN1-xTB:
   * S. Grimme, C. Bannwarth, P. Shushkov, J. Chem. Theory Comput., 2017,
     13, 1989-2009. DOI: 10.1021/acs.jctc.7b00118
   for GFN0-xTB:
   * P. Pracht, E. Caldeweyher, S. Ehlert, S. Grimme, ChemRxiv, 2019, preprint.
     DOI: 10.26434/chemrxiv.8326202.v1
   for GFN-FF:
   * S. Spicher and S. Grimme, Angew. Chem. Int. Ed., 2020, 59, 15665-15673.
     DOI: 10.1002/anie.202004239
   
   for ALPB and GBSA implicit solvation:
   * S. Ehlert, M. Stahn, S. Spicher, S. Grimme, J. Chem. Theory Comput.,
     2021, 17, 4250-4261. DOI: 10.1021/acs.jctc.1c00471
   
   for ddCOSMO and CPCM-X implicit solvation:
   * M. Stahn, S. Ehlert, S. Grimme, J. Phys. Chem. A,
     2023, XX, XXXX-XXXX. DOI: 10.1021/acs.jpca.3c04382
   
   for DFT-D4:
   * E. Caldeweyher, C. Bannwarth and S. Grimme, J. Chem. Phys., 2017,
     147, 034112. DOI: 10.1063/1.4993215
   * E. Caldeweyher, S. Ehlert, A. Hansen, H. Neugebauer, S. Spicher,
     C. Bannwarth and S. Grimme, J. Chem. Phys., 2019, 150, 154122.
     DOI: 10.1063/1.5090222
   * E. Caldeweyher, J.-M. Mewes, S. Ehlert and S. Grimme, Phys. Chem. Chem. Phys.
     2020, 22, 8499-8512. DOI: 10.1039/D0CP00502A
   
   for sTDA-xTB:
   * S. Grimme and C. Bannwarth, J. Chem. Phys., 2016, 145, 054103.
     DOI: 10.1063/1.4959605
   
   in the mass-spec context:
   * V. Asgeirsson, C. Bauer and S. Grimme, Chem. Sci., 2017, 8, 4879.
     DOI: 10.1039/c7sc00601b
   * J. Koopman and S. Grimme, ACS Omega 2019, 4, 12, 15120-15133.
     DOI: 10.1021/acsomega.9b02011
   
   for metadynamics refer to:
   * S. Grimme, J. Chem. Theory Comput., 2019, 155, 2847-2862
     DOI: 10.1021/acs.jctc.9b00143
   
   for SPH calculations refer to:
   * S. Spicher and S. Grimme, J. Chem. Theory Comput., 2021, 17, 1701-1714
     DOI: 10.1021/acs.jctc.0c01306
   
   for ONIOM refer to:
   * C. Plett, A. Katbashev, S. Ehlert, S. Grimme, M. Bursch,
     Phys. Chem. Chem. Phys., 2023, 25, 17860-17868. DOI: 10.1039/D3CP02178E
   
   for DIPRO refer to:
   * J. Kohn, N. Gildemeister, S. Grimme, D. Fazzi, A. Hansen,
     J. Chem. Phys., 2023, just accepted.
   
   for PTB refer to:
   * S. Grimme, M. Mueller, A. Hansen, J. Chem. Phys., 2023, 158, 124111.
     DOI: 10.1063/5.0137838
   
   with help from (in alphabetical order)
   P. Atkinson, C. Bannwarth, F. Bohle, G. Brandenburg, E. Caldeweyher
   M. Checinski, S. Dohm, S. Ehlert, S. Ehrlich, I. Gerasimov, C. Hölzer
   A. Katbashev, J. Kohn, J. Koopman, C. Lavigne, S. Lehtola, F. März, M. Müller,
   F. Musil, H. Neugebauer, J. Pisarek, C. Plett, P. Pracht, F. Pultar,
   J. Seibert, P. Shushkov, S. Spicher, M. Stahn, M. Steiner, T. Strunk,
   J. Stückrath, T. Rose, and J. Unsleber
   
 * started run on 2025/04/11 at 11:19:24.034     
   ID    Z sym.   atoms
    1    6 C      1-3
    2    8 O      4-6
    3    1 H      7-14

           -------------------------------------------------
          |                Calculation Setup                |
           -------------------------------------------------

          program call               : /srv/scratch/z5358697/.xtb/bin/xtb solv.coord --gfn2 --sp --chrg 0 --norestart --parallel 1 --alpb water reference -I xtb_sp-xcontrol-inp
          hostname                   : k022
          coordinate file            : solv.coord
          omp threads                :                     1


           -------------------------------------------------
          |                 G F N 2 - x T B                 |
           -------------------------------------------------

        Reference                      10.1021/acs.jctc.8b01176
      * Hamiltonian:
        H0-scaling (s, p, d)           1.850000    2.230000    2.230000
        zeta-weighting                 0.500000
      * Dispersion:
        s8                             2.700000
        a1                             0.520000
        a2                             5.000000
        s9                             5.000000
      * Repulsion:
        kExp                           1.500000    1.000000
        rExp                           1.000000
      * Coulomb:
        alpha                          2.000000
        third order                    shell-resolved
        anisotropic                    true
        a3                             3.000000
        a5                             4.000000
        cn-shift                       1.200000
        cn-exp                         4.000000
        max-rad                        5.000000

      * Solvation model:               ALPB
        Solvent                        water
        Parameter file                 internal GFN2-xTB/ALPB
        Dielectric constant                8.0200E+01
        Reference state                gsolv=reference [X=1]
        Free energy shift                  2.8945E-03 Eh       1.8164E+00 kcal/mol
        Temperature                        2.9815E+02 K
        Density                            1.0000E+00 kg/L
        Solvent mass                       1.8000E+01 g/mol
        Interaction kernel             P16
        Born radius scaling (c1)           1.4744E+00
        Born radii integrator          GBOBC
        Born offset                        0.0000E+00 a0       0.0000E+00 AA
        H-bond correction              true
        Ion screening                  false
        Surface tension                    1.0000E-05 Eh       1.5569E+01 dyn/cm
        Grid points                               974 per atom

          ...................................................
          :                      SETUP                      :
          :.................................................:
          :  # basis functions                  32          :
          :  # atomic orbitals                  32          :
          :  # shells                           20          :
          :  # electrons                        38          :
          :  max. iterations                   250          :
          :  Hamiltonian                  GFN2-xTB          :
          :  restarted?                      false          :
          :  GBSA solvation                   true          :
          :  PC potential                    false          :
          :  electronic temp.          300.0000000     K    :
          :  accuracy                    1.0000000          :
          :  -> integral cutoff          0.2500000E+02      :
          :  -> integral neglect         0.1000000E-07      :
          :  -> SCF convergence          0.1000000E-05 Eh   :
          :  -> wf. convergence          0.1000000E-03 e    :
          :  Broyden damping             0.4000000          :
          :  net charge                          0          :
          :  unpaired electrons                  0          :
          ...................................................

 iter      E             dE          RMSdq      gap      omega  full diag
   1    -22.8377187 -0.228377E+02  0.473E+00   11.89       0.0  T
   2    -22.8616010 -0.238822E-01  0.246E+00   11.67       1.0  T
   3    -22.8631357 -0.153472E-02  0.606E-01   11.59       1.0  T
   4    -22.8632397 -0.103961E-03  0.183E-01   11.59       1.0  T
   5    -22.8632715 -0.317953E-04  0.578E-02   11.62       1.0  T
   6    -22.8632793 -0.779936E-05  0.254E-02   11.62       1.1  T
   7    -22.8632801 -0.872287E-06  0.442E-03   11.62       6.0  T
   8    -22.8632802 -0.367322E-07  0.216E-03   11.62      12.4  T
   9    -22.8632802 -0.653378E-08  0.459E-04   11.62      58.3  T
  10    -22.8632802 -0.337444E-09  0.200E-04   11.62     133.6  T

   *** convergence criteria satisfied after 10 iterations ***

         #    Occupation            Energy/Eh            Energy/eV
      -------------------------------------------------------------
         1        2.0000           -0.7006549             -19.0658
       ...           ...                  ...                  ...
        13        2.0000           -0.4989036             -13.5759
        14        2.0000           -0.4855039             -13.2112
        15        2.0000           -0.4663280             -12.6894
        16        2.0000           -0.4561653             -12.4129
        17        2.0000           -0.4314183             -11.7395
        18        2.0000           -0.4159378             -11.3182
        19        2.0000           -0.4057374             -11.0407 (HOMO)
        20                          0.0212534               0.5783 (LUMO)
        21                          0.0295248               0.8034
        22                          0.0728341               1.9819
        23                          0.0936669               2.5488
        24                          0.1163766               3.1668
       ...                                ...                  ...
        32                          0.2779964               7.5647
      -------------------------------------------------------------
                  HL-Gap            0.4269907 Eh           11.6190 eV
             Fermi-level           -0.1922420 Eh           -5.2312 eV

 SCC (total)                   0 d,  0 h,  0 min,  0.014 sec
 SCC setup                      ...        0 min,  0.001 sec (  6.445%)
 Dispersion                     ...        0 min,  0.000 sec (  0.453%)
 classical contributions        ...        0 min,  0.000 sec (  0.111%)
 integral evaluation            ...        0 min,  0.001 sec (  7.467%)
 iterations                     ...        0 min,  0.009 sec ( 63.747%)
 molecular gradient             ...        0 min,  0.003 sec ( 20.488%)
 printout                       ...        0 min,  0.000 sec (  1.148%)

         :::::::::::::::::::::::::::::::::::::::::::::::::::::
         ::                     SUMMARY                     ::
         :::::::::::::::::::::::::::::::::::::::::::::::::::::
         :: total energy             -22.689226862782 Eh    ::
         :: total w/o Gsasa/hb       -22.679767380591 Eh    ::
         :: gradient norm              0.000321456127 Eh/a0 ::
         :: HOMO-LUMO gap             11.619009641567 eV    ::
         ::.................................................::
         :: SCC energy               -22.863269334773 Eh    ::
         :: -> isotropic ES            0.096819031306 Eh    ::
         :: -> anisotropic ES          0.001490118541 Eh    ::
         :: -> anisotropic XC         -0.002370883989 Eh    ::
         :: -> dispersion             -0.007041920520 Eh    ::
         :: -> Gsolv                  -0.023301385688 Eh    ::
         ::    -> Gelec               -0.013841903497 Eh    ::
         ::    -> Gsasa                0.003218833672 Eh    ::
         ::    -> Ghb                 -0.015572865024 Eh    ::
         ::    -> Gshift               0.002894549160 Eh    ::
         :: repulsion energy           0.174042471991 Eh    ::
         :: add. restraining           0.000000000000 Eh    ::
         :: total charge               0.000000000000 e     ::
         :::::::::::::::::::::::::::::::::::::::::::::::::::::

           -------------------------------------------------
          |                Property Printout                |
           -------------------------------------------------

    * Orbital Energies and Occupations

         #    Occupation            Energy/Eh            Energy/eV
      -------------------------------------------------------------
         1        2.0000           -0.7006549             -19.0658
       ...           ...                  ...                  ...
         7        2.0000           -0.5824612             -15.8496
         8        2.0000           -0.5680812             -15.4583
         9        2.0000           -0.5574286             -15.1684
        10        2.0000           -0.5460580             -14.8590
        11        2.0000           -0.5311400             -14.4531
        12        2.0000           -0.5206929             -14.1688
        13        2.0000           -0.4989036             -13.5759
        14        2.0000           -0.4855039             -13.2112
        15        2.0000           -0.4663280             -12.6894
        16        2.0000           -0.4561653             -12.4129
        17        2.0000           -0.4314183             -11.7395
        18        2.0000           -0.4159378             -11.3182
        19        2.0000           -0.4057374             -11.0407 (HOMO)
        20                          0.0212534               0.5783 (LUMO)
        21                          0.0295248               0.8034
        22                          0.0728341               1.9819
        23                          0.0936669               2.5488
        24                          0.1163766               3.1668
        25                          0.1267890               3.4501
        26                          0.1454365               3.9575
        27                          0.1700822               4.6282
        28                          0.1797834               4.8922
        29                          0.2254555               6.1350
        30                          0.2387721               6.4973
       ...                                ...                  ...
        32                          0.2779964               7.5647
      -------------------------------------------------------------
                  HL-Gap            0.4269907 Eh           11.6190 eV
             Fermi-level           -0.1922420 Eh           -5.2312 eV

     #   Z          covCN         q      C6AA      α(0)
     1   6 C        3.673     0.070    19.640     6.351
     2   6 C        3.722     0.096    19.099     6.241
     3   6 C        3.674     0.055    19.872     6.388
     4   8 O        1.655    -0.501    22.903     6.460
     5   8 O        1.655    -0.503    22.953     6.468
     6   8 O        1.655    -0.523    23.390     6.529
     7   1 H        0.923     0.031     2.578     2.511
     8   1 H        0.924     0.040     2.452     2.449
     9   1 H        0.924     0.054     2.270     2.356
    10   1 H        0.924     0.038     2.474     2.460
    11   1 H        0.924     0.065     2.146     2.291
    12   1 H        0.805     0.353     0.580     1.197
    13   1 H        0.804     0.354     0.578     1.194
    14   1 H        0.805     0.370     0.543     1.157

 Mol. C6AA /au·bohr⁶  :       1409.257577
 Mol. C8AA /au·bohr⁸  :      29009.110760
 Mol. α(0) /au        :         54.052065


Wiberg/Mayer (AO) data.
largest (>0.10) Wiberg bond orders for each atom

 ---------------------------------------------------------------------------
     #   Z sym  total        # sym  WBO       # sym  WBO       # sym  WBO
 ---------------------------------------------------------------------------
     1   6 C    3.957 --     6 O    0.997     2 C    0.979     8 H    0.970
                             7 H    0.968
     2   6 C    3.957 --     5 O    0.998     1 C    0.979     3 C    0.974
                             9 H    0.960
     3   6 C    3.954 --     4 O    1.001     2 C    0.974    10 H    0.971
                            11 H    0.970
     4   8 O    1.929 --     3 C    1.001    12 H    0.862
     5   8 O    1.927 --     2 C    0.998    13 H    0.855
     6   8 O    1.898 --     1 C    0.997    14 H    0.849
     7   1 H    0.999 --     1 C    0.968
     8   1 H    0.998 --     1 C    0.970
     9   1 H    0.997 --     2 C    0.960
    10   1 H    0.999 --     3 C    0.971
    11   1 H    0.996 --     3 C    0.970
    12   1 H    0.875 --     4 O    0.862
    13   1 H    0.874 --     5 O    0.855
    14   1 H    0.862 --     6 O    0.849
 ---------------------------------------------------------------------------

Topologies differ in total number of bonds
Writing topology from bond orders to xtbtopo.mol

molecular dipole:
                 x           y           z       tot (Debye)
 q only:       -0.145      -1.270      -0.747
   full:       -0.221      -1.631      -0.940       4.817
molecular quadrupole (traceless):
                xx          xy          yy          xz          yz          zz
 q only:       -1.530       3.047      -1.279       4.013      -0.071       2.809
  q+dip:       -3.005       4.382      -1.086       5.856      -0.112       4.091
   full:       -2.684       4.241      -1.307       5.465       0.055       3.991


           -------------------------------------------------
          | TOTAL ENERGY              -22.689226862782 Eh   |
          | GRADIENT NORM               0.000321456127 Eh/α |
          | HOMO-LUMO GAP              11.619009641567 eV   |
           -------------------------------------------------

------------------------------------------------------------------------
 * finished run on 2025/04/11 at 11:19:24.084     
------------------------------------------------------------------------
 total:
 * wall-time:     0 d,  0 h,  0 min,  0.049 sec
 *  cpu-time:     0 d,  0 h,  0 min,  0.017 sec
 * ratio c/w:     0.347 speedup
 SCF:
 * wall-time:     0 d,  0 h,  0 min,  0.015 sec
 *  cpu-time:     0 d,  0 h,  0 min,  0.010 sec
 * ratio c/w:     0.692 speedup

