      -----------------------------------------------------------      
     |                   =====================                   |     
     |                           x T B                           |     
     |                   =====================                   |     
     |                         S. Grimme                         |     
     |          Mulliken Center for Theoretical Chemistry        |     
     |                    University of Bonn                     |     
      -----------------------------------------------------------      

   * xtb version 6.7.1 (edcfbbe) compiled by 'albert@albert-system' on 2024-07-22

   xtb is free software: you can redistribute it and/or modify it under
   the terms of the GNU Lesser General Public License as published by
   the Free Software Foundation, either version 3 of the License, or
   (at your option) any later version.
   
   xtb is distributed in the hope that it will be useful,
   but WITHOUT ANY WARRANTY; without even the implied warranty of
   MERCHANTABILITY or FITNESS FOR A PARTICULAR PURPOSE.  See the
   GNU Lesser General Public License for more details.
   
   Cite this work as:
   * C. Bannwarth, E. Caldeweyher, S. Ehlert, A. Hansen, P. Pracht,
     J. Seibert, S. Spicher, S. Grimme, WIREs Comput. Mol. Sci., 2020, 11,
     e01493. DOI: 10.1002/wcms.1493
   
   for GFN2-xTB:
   * C. Bannwarth, S. Ehlert and S. Grimme., J. Chem. Theory Comput., 2019,
     15, 1652-1671. DOI: 10.1021/acs.jctc.8b01176
   for GFN1-xTB:
   * S. Grimme, C. Bannwarth, P. Shushkov, J. Chem. Theory Comput., 2017,
     13, 1989-2009. DOI: 10.1021/acs.jctc.7b00118
   for GFN0-xTB:
   * P. Pracht, E. Caldeweyher, S. Ehlert, S. Grimme, ChemRxiv, 2019, preprint.
     DOI: 10.26434/chemrxiv.8326202.v1
   for GFN-FF:
   * S. Spicher and S. Grimme, Angew. Chem. Int. Ed., 2020, 59, 15665-15673.
     DOI: 10.1002/anie.202004239
   
   for ALPB and GBSA implicit solvation:
   * S. Ehlert, M. Stahn, S. Spicher, S. Grimme, J. Chem. Theory Comput.,
     2021, 17, 4250-4261. DOI: 10.1021/acs.jctc.1c00471
   
   for ddCOSMO and CPCM-X implicit solvation:
   * M. Stahn, S. Ehlert, S. Grimme, J. Phys. Chem. A,
     2023, XX, XXXX-XXXX. DOI: 10.1021/acs.jpca.3c04382
   
   for DFT-D4:
   * E. Caldeweyher, C. Bannwarth and S. Grimme, J. Chem. Phys., 2017,
     147, 034112. DOI: 10.1063/1.4993215
   * E. Caldeweyher, S. Ehlert, A. Hansen, H. Neugebauer, S. Spicher,
     C. Bannwarth and S. Grimme, J. Chem. Phys., 2019, 150, 154122.
     DOI: 10.1063/1.5090222
   * E. Caldeweyher, J.-M. Mewes, S. Ehlert and S. Grimme, Phys. Chem. Chem. Phys.
     2020, 22, 8499-8512. DOI: 10.1039/D0CP00502A
   
   for sTDA-xTB:
   * S. Grimme and C. Bannwarth, J. Chem. Phys., 2016, 145, 054103.
     DOI: 10.1063/1.4959605
   
   in the mass-spec context:
   * V. Asgeirsson, C. Bauer and S. Grimme, Chem. Sci., 2017, 8, 4879.
     DOI: 10.1039/c7sc00601b
   * J. Koopman and S. Grimme, ACS Omega 2019, 4, 12, 15120-15133.
     DOI: 10.1021/acsomega.9b02011
   
   for metadynamics refer to:
   * S. Grimme, J. Chem. Theory Comput., 2019, 155, 2847-2862
     DOI: 10.1021/acs.jctc.9b00143
   
   for SPH calculations refer to:
   * S. Spicher and S. Grimme, J. Chem. Theory Comput., 2021, 17, 1701-1714
     DOI: 10.1021/acs.jctc.0c01306
   
   for ONIOM refer to:
   * C. Plett, A. Katbashev, S. Ehlert, S. Grimme, M. Bursch,
     Phys. Chem. Chem. Phys., 2023, 25, 17860-17868. DOI: 10.1039/D3CP02178E
   
   for DIPRO refer to:
   * J. Kohn, N. Gildemeister, S. Grimme, D. Fazzi, A. Hansen,
     J. Chem. Phys., 2023, just accepted.
   
   for PTB refer to:
   * S. Grimme, M. Mueller, A. Hansen, J. Chem. Phys., 2023, 158, 124111.
     DOI: 10.1063/5.0137838
   
   with help from (in alphabetical order)
   P. Atkinson, C. Bannwarth, F. Bohle, G. Brandenburg, E. Caldeweyher
   M. Checinski, S. Dohm, S. Ehlert, S. Ehrlich, I. Gerasimov, C. Hölzer
   A. Katbashev, J. Kohn, J. Koopman, C. Lavigne, S. Lehtola, F. März, M. Müller,
   F. Musil, H. Neugebauer, J. Pisarek, C. Plett, P. Pracht, F. Pultar,
   J. Seibert, P. Shushkov, S. Spicher, M. Stahn, M. Steiner, T. Strunk,
   J. Stückrath, T. Rose, and J. Unsleber
   
 * started run on 2025/04/11 at 11:39:09.153     
   ID    Z sym.   atoms
    1    6 C      1-9
    2    1 H      10-29

           -------------------------------------------------
          |                Calculation Setup                |
           -------------------------------------------------

          program call               : /srv/scratch/z5358697/.xtb/bin/xtb xtb_rrho.coord --gfn2 --ohess vtight --chrg 0 --enso --norestart -I rrho-xcontrol-inp --parallel 1 --alpb water
          hostname                   : k063
          coordinate file            : xtb_rrho.coord
          omp threads                :                     1


           -------------------------------------------------
          |                 G F N 2 - x T B                 |
           -------------------------------------------------

        Reference                      10.1021/acs.jctc.8b01176
      * Hamiltonian:
        H0-scaling (s, p, d)           1.850000    2.230000    2.230000
        zeta-weighting                 0.500000
      * Dispersion:
        s8                             2.700000
        a1                             0.520000
        a2                             5.000000
        s9                             5.000000
      * Repulsion:
        kExp                           1.500000    1.000000
        rExp                           1.000000
      * Coulomb:
        alpha                          2.000000
        third order                    shell-resolved
        anisotropic                    true
        a3                             3.000000
        a5                             4.000000
        cn-shift                       1.200000
        cn-exp                         4.000000
        max-rad                        5.000000

      * Solvation model:               ALPB
        Solvent                        water
        Parameter file                 internal GFN2-xTB/ALPB
        Dielectric constant                8.0200E+01
        Reference state                gsolv [1 M gas/solution]
        Free energy shift                  1.0808E-03 Eh       6.7819E-01 kcal/mol
        Temperature                        2.9815E+02 K
        Density                            1.0000E+00 kg/L
        Solvent mass                       1.8000E+01 g/mol
        Interaction kernel             P16
        Born radius scaling (c1)           1.4744E+00
        Born radii integrator          GBOBC
        Born offset                        0.0000E+00 a0       0.0000E+00 AA
        H-bond correction              true
        Ion screening                  false
        Surface tension                    1.0000E-05 Eh       1.5569E+01 dyn/cm
        Grid points                               974 per atom

          ...................................................
          :                      SETUP                      :
          :.................................................:
          :  # basis functions                  56          :
          :  # atomic orbitals                  56          :
          :  # shells                           38          :
          :  # electrons                        56          :
          :  max. iterations                   250          :
          :  Hamiltonian                  GFN2-xTB          :
          :  restarted?                      false          :
          :  GBSA solvation                   true          :
          :  PC potential                    false          :
          :  electronic temp.          300.0000000     K    :
          :  accuracy                    1.0000000          :
          :  -> integral cutoff          0.2500000E+02      :
          :  -> integral neglect         0.1000000E-07      :
          :  -> SCF convergence          0.1000000E-05 Eh   :
          :  -> wf. convergence          0.1000000E-03 e    :
          :  Broyden damping             0.4000000          :
          :  net charge                          0          :
          :  unpaired electrons                  0          :
          ...................................................

 iter      E             dE          RMSdq      gap      omega  full diag
   1    -29.8648723 -0.298649E+02  0.228E+00   12.32       0.0  T
   2    -29.9157518 -0.508795E-01  0.127E+00   12.28       1.0  T
   3    -29.9172048 -0.145296E-02  0.609E-01   12.28       1.0  T
   4    -29.9173521 -0.147310E-03  0.147E-01   12.29       1.0  T
   5    -29.9175201 -0.168059E-03  0.578E-02   12.29       1.0  T
   6    -29.9175199  0.257641E-06  0.666E-03   12.29       2.8  T
   7    -29.9175205 -0.626974E-06  0.119E-03   12.29      15.6  T
   8    -29.9175205 -0.523466E-08  0.682E-04   12.29      27.2  T
   9    -29.9175205 -0.614630E-09  0.145E-04   12.29     128.3  T

   *** convergence criteria satisfied after 9 iterations ***

         #    Occupation            Energy/Eh            Energy/eV
      -------------------------------------------------------------
         1        2.0000           -0.6248892             -17.0041
       ...           ...                  ...                  ...
        22        2.0000           -0.4355755             -11.8526
        23        2.0000           -0.4344731             -11.8226
        24        2.0000           -0.4290831             -11.6759
        25        2.0000           -0.4216728             -11.4743
        26        2.0000           -0.4135716             -11.2539
        27        2.0000           -0.4111652             -11.1884
        28        2.0000           -0.4097529             -11.1499 (HOMO)
        29                          0.0418580               1.1390 (LUMO)
        30                          0.0817286               2.2239
        31                          0.0861138               2.3433
        32                          0.0905618               2.4643
        33                          0.0978810               2.6635
       ...                                ...                  ...
        56                          0.3081436               8.3850
      -------------------------------------------------------------
                  HL-Gap            0.4516109 Eh           12.2890 eV
             Fermi-level           -0.1839474 Eh           -5.0055 eV

 SCC (total)                   0 d,  0 h,  0 min,  0.039 sec
 SCC setup                      ...        0 min,  0.002 sec (  5.979%)
 Dispersion                     ...        0 min,  0.000 sec (  0.612%)
 classical contributions        ...        0 min,  0.000 sec (  0.135%)
 integral evaluation            ...        0 min,  0.003 sec (  8.076%)
 iterations                     ...        0 min,  0.024 sec ( 61.417%)
 molecular gradient             ...        0 min,  0.009 sec ( 23.313%)
 printout                       ...        0 min,  0.000 sec (  0.422%)

         :::::::::::::::::::::::::::::::::::::::::::::::::::::
         ::                     SUMMARY                     ::
         :::::::::::::::::::::::::::::::::::::::::::::::::::::
         :: total energy             -29.491390822878 Eh    ::
         :: total w/o Gsasa/hb       -29.490785250322 Eh    ::
         :: gradient norm              0.027082000737 Eh/a0 ::
         :: HOMO-LUMO gap             12.288957493085 eV    ::
         ::.................................................::
         :: SCC energy               -29.917365830339 Eh    ::
         :: -> isotropic ES            0.006972495188 Eh    ::
         :: -> anisotropic ES          0.010872387542 Eh    ::
         :: -> anisotropic XC          0.018477447360 Eh    ::
         :: -> dispersion             -0.020100041368 Eh    ::
         :: -> Gsolv                  -0.000730410718 Eh    ::
         ::    -> Gelec               -0.000124838162 Eh    ::
         ::    -> Gsasa               -0.001103200030 Eh    ::
         ::    -> Ghb                 -0.000583132224 Eh    ::
         ::    -> Gshift               0.001080759698 Eh    ::
         :: repulsion energy           0.425975007461 Eh    ::
         :: add. restraining           0.000000000000 Eh    ::
         :: total charge              -0.000000000000 e     ::
         :::::::::::::::::::::::::::::::::::::::::::::::::::::

      ----------------------------------------------------------- 
     |                   =====================                   |
     |                        A N C O P T                        |
     |                   =====================                   |
     |               Approximate Normal Coordinate               |
     |                Rational Function Optimizer                |
      ----------------------------------------------------------- 
      ----------------------------------------------------------- 
     |                   =====================                   |
     |                        A N C O P T                        |
     |                   =====================                   |
     |               Approximate Normal Coordinate               |
     |                Rational Function Optimizer                |
      ----------------------------------------------------------- 

          ...................................................
          :                      SETUP                      :
          :.................................................:
          :   optimization level         verytight          :
          :   max. optcycles                   580          :
          :   ANC micro-cycles                  20          :
          :   degrees of freedom                81          :
          :.................................................:
          :   RF solver                   davidson          :
          :   write xtbopt.log                true          :
          :   linear?                        false          :
          :   energy convergence         0.1000000E-06 Eh   :
          :   grad. convergence          0.2000000E-03 Eh/α :
          :   maxmium RF displ.          1.0000000          :
          :   Hlow (freq-cutoff)         0.1000000E-01      :
          :   Hmax (freq-cutoff)         5.0000000          :
          :   S6 in model hess.         20.0000000          :
          ...................................................

generating ANC from exact Hessian ...
Using Lindh-Hessian (1995)
 Shifting diagonal of input Hessian by   9.253541229001176E-003
 Lowest  eigenvalues of input Hessian
    0.000000    0.000000    0.000000    0.000000    0.000000    0.000000
    0.010000    0.010571    0.011042    0.013475    0.014864    0.016320
    0.017700    0.017748    0.017867    0.018204    0.018320    0.018810
 Highest eigenvalues
    1.176996    1.204346    1.236098    1.241026    1.253911    1.290882
 

........................................................................
.............................. CYCLE    1 ..............................
........................................................................

 iter      E             dE          RMSdq      gap      omega  full diag
   1    -29.9175205 -0.299175E+02  0.702E-05   12.29       0.0  T
   2    -29.9175205 -0.559908E-11  0.452E-05   12.29     411.0  T
   3    -29.9175205 -0.352074E-11  0.914E-06   12.29    2032.4  T
     SCC iter.                  ...        0 min,  0.002 sec
     gradient                   ...        0 min,  0.009 sec
 * total energy  :   -29.4913908 Eh     change       -0.6497203E-10 Eh
   gradient norm :     0.0270822 Eh/α   predicted     0.0000000E+00 (-100.00%)
   displ. norm   :     0.1187161 α      lambda       -0.1607838E-02
   maximum displ.:     0.0590978 α      in ANC's #17, #24, #54, ...

........................................................................
.............................. CYCLE    2 ..............................
........................................................................

 iter      E             dE          RMSdq      gap      omega  full diag
   1    -29.9344944 -0.299345E+02  0.870E-02   12.43       0.0  T
   2    -29.9345054 -0.109960E-04  0.482E-02   12.43       1.0  T
   3    -29.9345059 -0.451891E-06  0.981E-03   12.43       1.9  T
   4    -29.9345060 -0.909602E-07  0.184E-03   12.43      10.1  T
   5    -29.9345060 -0.273218E-08  0.964E-04   12.43      19.3  T
   6    -29.9345060 -0.150887E-08  0.124E-04   12.43     149.4  T
     SCC iter.                  ...        0 min,  0.004 sec
     gradient                   ...        0 min,  0.009 sec
 * total energy  :   -29.4923787 Eh     change       -0.9878660E-03 Eh
   gradient norm :     0.0083163 Eh/α   predicted    -0.8152519E-03 ( -17.47%)
   displ. norm   :     0.0589725 α      lambda       -0.1879242E-03
   maximum displ.:     0.0311774 α      in ANC's #5, #6, #10, ...

........................................................................
.............................. CYCLE    3 ..............................
........................................................................

 iter      E             dE          RMSdq      gap      omega  full diag
   1    -29.9405979 -0.299406E+02  0.296E-02   12.47       0.0  T
   2    -29.9405997 -0.175500E-05  0.164E-02   12.47       1.1  T
   3    -29.9405997 -0.637302E-07  0.389E-03   12.47       4.8  T
   4    -29.9405998 -0.156493E-07  0.687E-04   12.47      27.0  T
   5    -29.9405998 -0.177918E-08  0.391E-04   12.47      47.5  T
     SCC iter.                  ...        0 min,  0.004 sec
     gradient                   ...        0 min,  0.009 sec
 * total energy  :   -29.4924784 Eh     change       -0.9975279E-04 Eh
   gradient norm :     0.0015514 Eh/α   predicted    -0.9480422E-04 (  -4.96%)
   displ. norm   :     0.0490004 α      lambda       -0.1778609E-04
   maximum displ.:     0.0235249 α      in ANC's #5, #10, #9, ...

........................................................................
.............................. CYCLE    4 ..............................
........................................................................

 iter      E             dE          RMSdq      gap      omega  full diag
   1    -29.9406337 -0.299406E+02  0.115E-02   12.49       0.0  T
   2    -29.9406337 -0.404482E-07  0.680E-03   12.49       2.7  T
   3    -29.9406337  0.266621E-09  0.745E-04   12.49      24.9  T
   4    -29.9406337 -0.788233E-08  0.255E-04   12.49      72.9  T
     SCC iter.                  ...        0 min,  0.003 sec
     gradient                   ...        0 min,  0.009 sec
 * total energy  :   -29.4924976 Eh     change       -0.1916750E-04 Eh
   gradient norm :     0.0011568 Eh/α   predicted    -0.8903219E-05 ( -53.55%)
   displ. norm   :     0.0980905 α      lambda       -0.2217079E-04
   maximum displ.:     0.0492415 α      in ANC's #10, #4, #9, ...

........................................................................
.............................. CYCLE    5 ..............................
........................................................................

 iter      E             dE          RMSdq      gap      omega  full diag
   1    -29.9398911 -0.299399E+02  0.186E-02   12.49       0.0  T
   2    -29.9398912 -0.391671E-07  0.111E-02   12.49       1.7  T
   3    -29.9398912 -0.109854E-07  0.583E-04   12.49      31.8  T
   4    -29.9398912 -0.147706E-08  0.316E-04   12.49      58.7  T
     SCC iter.                  ...        0 min,  0.003 sec
     gradient                   ...        0 min,  0.009 sec
 * total energy  :   -29.4925183 Eh     change       -0.2072802E-04 Eh
   gradient norm :     0.0014035 Eh/α   predicted    -0.1113408E-04 ( -46.28%)
   displ. norm   :     0.0603713 α      lambda       -0.7416158E-05
   maximum displ.:     0.0357086 α      in ANC's #4, #10, #2, ...

........................................................................
.............................. CYCLE    6 ..............................
........................................................................

 iter      E             dE          RMSdq      gap      omega  full diag
   1    -29.9399658 -0.299400E+02  0.114E-02   12.50       0.0  T
   2    -29.9399659 -0.169340E-07  0.683E-03   12.50       2.7  T
   3    -29.9399659 -0.221973E-08  0.398E-04   12.50      46.6  T
   4    -29.9399659 -0.180126E-08  0.181E-04   12.50     102.6  T
     SCC iter.                  ...        0 min,  0.003 sec
     gradient                   ...        0 min,  0.009 sec
 * total energy  :   -29.4925251 Eh     change       -0.6785393E-05 Eh
   gradient norm :     0.0007818 Eh/α   predicted    -0.3723186E-05 ( -45.13%)
   displ. norm   :     0.0238640 α      lambda       -0.1952502E-05
   maximum displ.:     0.0174596 α      in ANC's #4, #2, #10, ...

........................................................................
.............................. CYCLE    7 ..............................
........................................................................

 iter      E             dE          RMSdq      gap      omega  full diag
   1    -29.9401091 -0.299401E+02  0.467E-03   12.49       0.0  T
   2    -29.9401091 -0.258840E-08  0.278E-03   12.49       6.7  T
   3    -29.9401091 -0.385967E-09  0.179E-04   12.49     103.7  T
   4    -29.9401091 -0.359915E-09  0.846E-05   12.49     219.5  T
     SCC iter.                  ...        0 min,  0.003 sec
     gradient                   ...        0 min,  0.009 sec
 * total energy  :   -29.4925269 Eh     change       -0.1789435E-05 Eh
   gradient norm :     0.0001535 Eh/α   predicted    -0.9784314E-06 ( -45.32%)
   displ. norm   :     0.0246094 α      lambda        0.9223183E-06
   maximum displ.:     0.0179980 α      in ANC's #4, #2, #10, ...

........................................................................
.............................. CYCLE    8 ..............................
........................................................................

 iter      E             dE          RMSdq      gap      omega  full diag
   1    -29.9402421 -0.299402E+02  0.475E-03   12.49       0.0  T
   2    -29.9402421 -0.253001E-08  0.283E-03   12.49       6.6  T
   3    -29.9402421 -0.442235E-09  0.176E-04   12.49     105.8  T
   4    -29.9402421 -0.320423E-09  0.852E-05   12.49     217.9  T
     SCC iter.                  ...        0 min,  0.003 sec
     gradient                   ...        0 min,  0.009 sec
 * total energy  :   -29.4925264 Eh     change        0.4756962E-06 Eh
   gradient norm :     0.0007958 Eh/α   predicted     0.4605594E-06 (  -3.18%)
   displ. norm   :     0.0139801 α      lambda       -0.1311834E-05
   maximum displ.:     0.0079217 α      in ANC's #10, #4, #9, ...

........................................................................
.............................. CYCLE    9 ..............................
........................................................................

 iter      E             dE          RMSdq      gap      omega  full diag
   1    -29.9400834 -0.299401E+02  0.366E-03   12.49       0.0  T
   2    -29.9400834 -0.209948E-08  0.218E-03   12.49       8.5  T
   3    -29.9400834 -0.124103E-09  0.136E-04   12.49     136.6  T
   4    -29.9400834 -0.253948E-09  0.547E-05   12.49     339.7  T
     SCC iter.                  ...        0 min,  0.003 sec
     gradient                   ...        0 min,  0.009 sec
 * total energy  :   -29.4925277 Eh     change       -0.1269393E-05 Eh
   gradient norm :     0.0002940 Eh/α   predicted    -0.6583781E-06 ( -48.13%)
   displ. norm   :     0.0116084 α      lambda       -0.6187161E-06
   maximum displ.:     0.0068868 α      in ANC's #9, #10, #12, ...

........................................................................
.............................. CYCLE   10 ..............................
........................................................................

 iter      E             dE          RMSdq      gap      omega  full diag
   1    -29.9400690 -0.299401E+02  0.237E-03   12.49       0.0  T
   2    -29.9400690 -0.628500E-09  0.143E-03   12.49      13.0  T
   3    -29.9400690 -0.100272E-09  0.783E-05   12.49     237.0  T
   4    -29.9400690 -0.624816E-10  0.361E-05   12.49     515.0  T
     SCC iter.                  ...        0 min,  0.003 sec
     gradient                   ...        0 min,  0.009 sec
 * total energy  :   -29.4925284 Eh     change       -0.7228466E-06 Eh
   gradient norm :     0.0001007 Eh/α   predicted    -0.3122225E-06 ( -56.81%)
   displ. norm   :     0.0301518 α      lambda       -0.1061977E-05
   maximum displ.:     0.0139867 α      in ANC's #9, #2, #4, ...

........................................................................
.............................. CYCLE   11 ..............................
........................................................................

 iter      E             dE          RMSdq      gap      omega  full diag
   1    -29.9400104 -0.299400E+02  0.540E-03   12.49       0.0  T
   2    -29.9400104 -0.151243E-08  0.324E-03   12.49       5.7  T
   3    -29.9400104 -0.529699E-09  0.124E-04   12.49     150.1  T
   4    -29.9400104 -0.962466E-10  0.675E-05   12.49     275.1  T
     SCC iter.                  ...        0 min,  0.003 sec
     gradient                   ...        0 min,  0.009 sec
 * total energy  :   -29.4925295 Eh     change       -0.1118368E-05 Eh
   gradient norm :     0.0002666 Eh/α   predicted    -0.5330636E-06 ( -52.34%)
   displ. norm   :     0.0318721 α      lambda       -0.7292725E-06
   maximum displ.:     0.0180049 α      in ANC's #4, #2, #7, ...

........................................................................
.............................. CYCLE   12 ..............................
........................................................................

 iter      E             dE          RMSdq      gap      omega  full diag
   1    -29.9400153 -0.299400E+02  0.556E-03   12.49       0.0  T
   2    -29.9400153 -0.112214E-08  0.332E-03   12.49       5.6  T
   3    -29.9400153 -0.534936E-09  0.103E-04   12.49     179.8  T
   4    -29.9400153 -0.162572E-10  0.565E-05   12.49     328.6  T
     SCC iter.                  ...        0 min,  0.003 sec
     gradient                   ...        0 min,  0.009 sec
 * total energy  :   -29.4925303 Eh     change       -0.7430261E-06 Eh
   gradient norm :     0.0002275 Eh/α   predicted    -0.3652309E-06 ( -50.85%)
   displ. norm   :     0.0189410 α      lambda       -0.3124405E-06
   maximum displ.:     0.0121842 α      in ANC's #4, #2, #7, ...

........................................................................
.............................. CYCLE   13 ..............................
........................................................................

 iter      E             dE          RMSdq      gap      omega  full diag
   1    -29.9400830 -0.299401E+02  0.336E-03   12.49       0.0  T
   2    -29.9400830 -0.537995E-09  0.200E-03   12.49       9.3  T
   3    -29.9400830 -0.187232E-09  0.715E-05   12.49     259.8  T
   4    -29.9400830 -0.292850E-10  0.404E-05   12.49     459.8  T
     SCC iter.                  ...        0 min,  0.003 sec
     gradient                   ...        0 min,  0.009 sec
 * total energy  :   -29.4925306 Eh     change       -0.2909660E-06 Eh
   gradient norm :     0.0000949 Eh/α   predicted    -0.1567342E-06 ( -46.13%)
   displ. norm   :     0.0074352 α      lambda       -0.6859705E-07
   maximum displ.:     0.0051333 α      in ANC's #4, #2, #7, ...

........................................................................
.............................. CYCLE   14 ..............................
........................................................................

 iter      E             dE          RMSdq      gap      omega  full diag
   1    -29.9400716 -0.299401E+02  0.146E-03   12.49       0.0  T
   2    -29.9400716 -0.220275E-09  0.867E-04   12.49      21.4  T
   3    -29.9400716 -0.187654E-10  0.453E-05   12.49     410.3  T
     SCC iter.                  ...        0 min,  0.002 sec
     gradient                   ...        0 min,  0.009 sec
 * total energy  :   -29.4925306 Eh     change       -0.5741961E-07 Eh
   gradient norm :     0.0000377 Eh/α   predicted    -0.3516240E-07 ( -38.76%)
   displ. norm   :     0.0087676 α      lambda        0.5643295E-07
   maximum displ.:     0.0060216 α      in ANC's #4, #2, #7, ...

   *** GEOMETRY OPTIMIZATION CONVERGED AFTER 14 ITERATIONS ***

------------------------------------------------------------------------
 total energy gain   :        -0.0011398 Eh       -0.7152 kcal/mol
 total RMSD          :         0.0699896 a0        0.0370 Å
 total power (kW/mol):        -0.2137561 (step)  -11.4500 (real)
------------------------------------------------------------------------

 ANCopt (total)                0 d,  0 h,  0 min,  0.261 sec
 optimizer setup                ...        0 min,  0.000 sec (  0.144%)
 model hessian                  ...        0 min,  0.022 sec (  8.399%)
 ANC generation                 ...        0 min,  0.001 sec (  0.295%)
 coordinate transformation      ...        0 min,  0.000 sec (  0.055%)
 single point calculation       ...        0 min,  0.229 sec ( 87.794%)
 optimization log               ...        0 min,  0.007 sec (  2.705%)
 hessian update                 ...        0 min,  0.000 sec (  0.057%)
 rational function              ...        0 min,  0.001 sec (  0.277%)

================
 final structure:
================
$coord
       -6.09243895528306        1.94607534553417        0.12194978337659      C
       -4.11702352465812        0.00006245280070       -0.68730604847290      C
       -4.91747777375457       -2.62848630505697        0.19557876833938      C
       -1.51871679067936        0.74818232020538        0.35720852996189      C
        0.62923910482124       -0.87860482335359       -0.68156550709281      C
        3.31943580749211        0.00724605749871       -0.00764769688094      C
        5.18287677684924       -1.95616141492563       -1.04218224246994      C
        3.90885531059345        2.56625844456522       -1.22105869653683      C
        3.65782350572747        0.19506110114134        2.85859826055732      C
       -6.23642147606285        2.00516208601676        2.17208579429297      H
       -7.93798437544313        1.46447100107580       -0.64333866548646      H
       -5.58421339793885        3.82190770822643       -0.54705446743865      H
       -4.01460637882334       -0.00381720728764       -2.75659050027328      H
       -6.80943049842299       -3.06083103234681       -0.48182152872789      H
       -3.64119390057873       -4.07056823701301       -0.51597396587771      H
       -4.92906705036110       -2.71783712348349        2.24970151427636      H
       -1.17919243247684        2.72115117616928       -0.13712017484786      H
       -1.57174671070348        0.60976069659466        2.41406505071519      H
        0.46832149594554       -0.94273580227276       -2.74057648222746      H
        0.40580681384305       -2.80697682328614        0.01700381339148      H
        4.97272197250646       -2.15049894702622       -3.07776736813105      H
        7.11913069588381       -1.39361029550428       -0.64346272456271      H
        4.85405723174554       -3.79276822673587       -0.17950791826636      H
        2.72386383466012        4.05079409752643       -0.44063893478492      H
        5.87037150185192        3.07576529012549       -0.87727569620605      H
        3.60667201128949        2.48912105319396       -3.25274855327064      H
        2.50794058406025        1.70703111808876        3.63827696659838      H
        5.62341126981848        0.58816437949339        3.31458814565414      H
        3.12434906054443       -1.57065299611813        3.76556645836813      H
$end
 
 Bond Distances (Angstroems)
 ---------------------------
C1-C2=1.5286         C1-H10=1.0880        C1-H11=1.0875        C1-H12=1.0877        C2-C1=1.5286         C2-C3=1.5273         
C2-C4=1.5339         C2-H13=1.0964        C3-C2=1.5273         C3-H14=1.0877        C3-H15=1.0864        C3-H16=1.0880        
C4-C2=1.5339         C4-C5=1.5281         C4-H17=1.0912        C4-H18=1.0913        C5-C4=1.5281         C5-C6=1.5406         
C5-H19=1.0934        C5-H20=1.0918        C6-C5=1.5406         C6-C7=1.5335         C6-C8=1.5308         C6-C9=1.5305         
C7-C6=1.5335         C7-H21=1.0878        C7-H22=1.0877        C7-H23=1.0878        C8-C6=1.5308         C8-H24=1.0867        
C8-H25=1.0878        C8-H26=1.0877        C9-C6=1.5305         C9-H27=1.0866        C9-H28=1.0878        C9-H29=1.0877        
H10-C1=1.0880        H11-C1=1.0875        H12-C1=1.0877        H13-C2=1.0964        H14-C3=1.0877        H15-C3=1.0864        
H16-C3=1.0880        H17-C4=1.0912        H18-C4=1.0913        H19-C5=1.0934        H20-C5=1.0918        H21-C7=1.0878        
H22-C7=1.0877        H23-C7=1.0878        H24-C8=1.0867        H25-C8=1.0878        H26-C8=1.0877        H27-C9=1.0866        
H28-C9=1.0878        H29-C9=1.0877        
 C  H  Rav=1.0888 sigma=0.0025  Rmin=1.0864  Rmax=1.0964    20
 C  C  Rav=1.5317 sigma=0.0041  Rmin=1.5273  Rmax=1.5406     8
 
 selected bond angles (degree)
 --------------------
H10-C1-C2=110.28               H11-C1-C2=110.60               H11-C1-H10=108.37              H12-C1-C2=110.77               
H12-C1-H10=108.40              H12-C1-H11=108.34              C3-C2-C1=109.77                C4-C2-C1=109.77                
C4-C2-C3=111.93                H13-C2-C1=108.35               H13-C2-C3=108.51               H13-C2-C4=108.43               
H14-C3-C2=110.24               H15-C3-C2=111.18               H15-C3-H14=108.07              H16-C3-C2=110.29               
H16-C3-H14=108.35              H16-C3-H15=108.62              C5-C4-C2=113.06                H17-C4-C2=107.95               
H17-C4-C5=109.29               H18-C4-C2=108.61               H18-C4-C5=109.88               H18-C4-H17=107.91              
C6-C5-C4=115.63                H19-C5-C4=108.54               H19-C5-C6=108.18               H20-C5-C4=108.92               
H20-C5-C6=107.82               H20-C5-H19=107.46              C7-C6-C5=107.78                C8-C6-C5=111.12                
C8-C6-C7=108.58                C9-C6-C5=110.93                C9-C6-C7=108.82                C9-C6-C8=109.54                
H21-C7-C6=110.60               H22-C7-C6=110.55               H22-C7-H21=108.32              H23-C7-C6=110.65               
H23-C7-H21=108.35              H23-C7-H22=108.29              H24-C8-C6=111.25               H25-C8-C6=110.09               
H25-C8-H24=107.93              H26-C8-C6=110.58               H26-C8-H24=108.54              H26-C8-H25=108.35              
H27-C9-C6=111.01               H28-C9-C6=110.13               H28-C9-H27=108.08              H29-C9-C6=110.56               
H29-C9-H27=108.64              H29-C9-H28=108.33              
 
 selected dihedral angles (degree)
 ---------------------------------
C3-C2-C1-H10= 61.92           C3-C2-C1-H11=302.06           C3-C2-C1-H12=181.92           C4-C2-C1-H10=298.50           
C4-C2-C1-H11=178.64           C4-C2-C1-H12= 58.50           H13-C2-C1-H10=180.26          H13-C2-C1-H11= 60.40          
H13-C2-C1-H12=300.26          H14-C3-C2-C1= 54.52           H14-C3-C2-C4=176.67           H14-C3-C2-H13=296.28          
H15-C3-C2-C1=174.36           H15-C3-C2-C4=296.50           H15-C3-C2-H13= 56.12          H16-C3-C2-C1=294.91           
H16-C3-C2-C4= 57.05           H16-C3-C2-H13=176.66          C5-C4-C2-C1=188.45            C5-C4-C2-C3= 66.30            
C5-C4-C2-H13=306.64           H17-C4-C2-C1=309.46           H17-C4-C2-C3=187.32           H17-C4-C2-H13= 67.65          
H18-C4-C2-C1= 66.22           H18-C4-C2-C3=304.07           H18-C4-C2-H13=184.41          C6-C5-C4-C2=171.67            
C6-C5-C4-H17= 51.42           C6-C5-C4-H18=293.19           H19-C5-C4-C2= 49.93           H19-C5-C4-H17=289.68          
H19-C5-C4-H18=171.45          H20-C5-C4-C2=293.23           H20-C5-C4-H17=172.98          H20-C5-C4-H18= 54.74          
C7-C6-C5-C4=175.87            C7-C6-C5-H19=297.80           C7-C6-C5-H20= 53.73           C8-C6-C5-C4=294.73            
C8-C6-C5-H19= 56.66           C8-C6-C5-H20=172.59           C9-C6-C5-C4= 56.84            C9-C6-C5-H19=178.77           
C9-C6-C5-H20=294.70           H21-C7-C6-C5= 58.94           H21-C7-C6-C8=298.47           H21-C7-C6-C9=179.31           
H22-C7-C6-C5=178.91           H22-C7-C6-C8= 58.44           H22-C7-C6-C9=299.28           H23-C7-C6-C5=298.87           
H23-C7-C6-C8=178.41           H23-C7-C6-C9= 59.25           H24-C8-C6-C5= 65.83           H24-C8-C6-C7=184.21           
H24-C8-C6-C9=302.91           H25-C8-C6-C5=185.44           H25-C8-C6-C7=303.82           H25-C8-C6-C9= 62.52           
H26-C8-C6-C5=305.14           H26-C8-C6-C7= 63.52           H26-C8-C6-C9=182.22           H27-C9-C6-C5=292.50           
H27-C9-C6-C7=174.09           H27-C9-C6-C8= 55.53           H28-C9-C6-C5=172.83           H28-C9-C6-C7= 54.42           
H28-C9-C6-C8=295.86           H29-C9-C6-C5= 53.15           H29-C9-C6-C7=294.74           H29-C9-C6-C8=176.18           
           -------------------------------------------------
          |                Final Singlepoint                |
           -------------------------------------------------

          ...................................................
          :                      SETUP                      :
          :.................................................:
          :  # basis functions                  56          :
          :  # atomic orbitals                  56          :
          :  # shells                           38          :
          :  # electrons                        56          :
          :  max. iterations                   250          :
          :  Hamiltonian                  GFN2-xTB          :
          :  restarted?                      false          :
          :  GBSA solvation                   true          :
          :  PC potential                    false          :
          :  electronic temp.          300.0000000     K    :
          :  accuracy                    1.0000000          :
          :  -> integral cutoff          0.2500000E+02      :
          :  -> integral neglect         0.1000000E-07      :
          :  -> SCF convergence          0.1000000E-05 Eh   :
          :  -> wf. convergence          0.1000000E-03 e    :
          :  Broyden damping             0.4000000          :
          :  net charge                          0          :
          :  unpaired electrons                  0          :
          ...................................................

 iter      E             dE          RMSdq      gap      omega  full diag
   1    -29.9400716 -0.299401E+02  0.185E-05   12.49       0.0  T
   2    -29.9400716 -0.742517E-12  0.108E-05   12.49    1718.0  T
   3    -29.9400716 -0.142109E-13  0.432E-06   12.49    4297.5  T

   *** convergence criteria satisfied after 3 iterations ***

         #    Occupation            Energy/Eh            Energy/eV
      -------------------------------------------------------------
         1        2.0000           -0.6258734             -17.0309
       ...           ...                  ...                  ...
        22        2.0000           -0.4354875             -11.8502
        23        2.0000           -0.4347097             -11.8291
        24        2.0000           -0.4285484             -11.6614
        25        2.0000           -0.4217583             -11.4766
        26        2.0000           -0.4140289             -11.2663
        27        2.0000           -0.4108379             -11.1795
        28        2.0000           -0.4090264             -11.1302 (HOMO)
        29                          0.0499265               1.3586 (LUMO)
        30                          0.0852383               2.3195
        31                          0.0927144               2.5229
        32                          0.0998135               2.7161
        33                          0.1069929               2.9114
       ...                                ...                  ...
        56                          0.3234146               8.8006
      -------------------------------------------------------------
                  HL-Gap            0.4589529 Eh           12.4887 eV
             Fermi-level           -0.1795499 Eh           -4.8858 eV

 SCC (total)                   0 d,  0 h,  0 min,  0.018 sec
 SCC setup                      ...        0 min,  0.002 sec ( 10.931%)
 Dispersion                     ...        0 min,  0.000 sec (  0.688%)
 classical contributions        ...        0 min,  0.000 sec (  0.226%)
 integral evaluation            ...        0 min,  0.003 sec ( 16.321%)
 iterations                     ...        0 min,  0.003 sec ( 14.918%)
 molecular gradient             ...        0 min,  0.010 sec ( 56.007%)
 printout                       ...        0 min,  0.000 sec (  0.812%)

         :::::::::::::::::::::::::::::::::::::::::::::::::::::
         ::                     SUMMARY                     ::
         :::::::::::::::::::::::::::::::::::::::::::::::::::::
         :: total energy             -29.492530638471 Eh    ::
         :: total w/o Gsasa/hb       -29.491885911808 Eh    ::
         :: gradient norm              0.000037718665 Eh/a0 ::
         :: HOMO-LUMO gap             12.488744775793 eV    ::
         ::.................................................::
         :: SCC energy               -29.939917331923 Eh    ::
         :: -> isotropic ES            0.007373163913 Eh    ::
         :: -> anisotropic ES          0.010148658927 Eh    ::
         :: -> anisotropic XC          0.017950370983 Eh    ::
         :: -> dispersion             -0.020169773122 Eh    ::
         :: -> Gsolv                  -0.000765559808 Eh    ::
         ::    -> Gelec               -0.000120833146 Eh    ::
         ::    -> Gsasa               -0.001108383050 Eh    ::
         ::    -> Ghb                 -0.000617103311 Eh    ::
         ::    -> Gshift               0.001080759698 Eh    ::
         :: repulsion energy           0.447386693453 Eh    ::
         :: add. restraining           0.000000000000 Eh    ::
         :: total charge               0.000000000000 e     ::
         :::::::::::::::::::::::::::::::::::::::::::::::::::::

           ------------------------------------------------- 
          |                Numerical Hessian                |
           ------------------------------------------------- 
step length          :   0.00500
SCC accuracy         :   0.30000
Hessian scale factor :   1.00000
frozen atoms in %    :   0.00000    0
RMS gradient         :   0.00004
estimated CPU  time      0.05 min
estimated wall time      0.05 min

writing file <hessian>.

 projected vibrational frequencies (cm⁻¹)
eigval :       -0.00    -0.00    -0.00    -0.00     0.00     0.00
eigval :       23.35    68.54    96.63   137.77   198.08   207.10
eigval :      230.89   232.87   244.76   254.11   293.43   326.56
eigval :      369.81   401.78   414.47   434.40   484.41   498.66
eigval :      787.02   803.47   880.52   946.46   950.29   954.73
eigval :      962.24   964.80   966.21   983.59   994.23  1036.28
eigval :     1041.88  1103.40  1107.27  1147.96  1185.38  1211.18
eigval :     1224.98  1263.80  1270.17  1287.57  1314.42  1334.37
eigval :     1342.83  1375.85  1404.33  1406.21  1406.49  1419.30
eigval :     1428.61  1481.55  1488.72  1491.99  1494.42  1497.47
eigval :     1498.88  1500.57  1504.66  1509.81  1510.79  1512.24
eigval :     1515.58  2913.19  2951.29  2972.62  2978.36  2986.97
eigval :     3020.74  3021.28  3021.37  3021.66  3022.31  3023.69
eigval :     3025.34  3028.31  3028.61  3029.36  3035.44  3036.17
eigval :     3041.53  3045.31  3046.16
           -------------------------------------------------
          |                Property Printout                |
           -------------------------------------------------

    * Orbital Energies and Occupations

         #    Occupation            Energy/Eh            Energy/eV
      -------------------------------------------------------------
         1        2.0000           -0.6258733             -17.0309
       ...           ...                  ...                  ...
        16        2.0000           -0.4700942             -12.7919
        17        2.0000           -0.4597473             -12.5104
        18        2.0000           -0.4559204             -12.4062
        19        2.0000           -0.4517453             -12.2926
        20        2.0000           -0.4449952             -12.1089
        21        2.0000           -0.4433507             -12.0642
        22        2.0000           -0.4354875             -11.8502
        23        2.0000           -0.4347097             -11.8291
        24        2.0000           -0.4285484             -11.6614
        25        2.0000           -0.4217583             -11.4766
        26        2.0000           -0.4140289             -11.2663
        27        2.0000           -0.4108379             -11.1795
        28        2.0000           -0.4090264             -11.1302 (HOMO)
        29                          0.0499265               1.3586 (LUMO)
        30                          0.0852383               2.3195
        31                          0.0927144               2.5229
        32                          0.0998135               2.7161
        33                          0.1069929               2.9114
        34                          0.1136303               3.0920
        35                          0.1360684               3.7026
        36                          0.1403284               3.8185
        37                          0.1471683               4.0047
        38                          0.1666505               4.5348
        39                          0.1727282               4.7002
       ...                                ...                  ...
        56                          0.3234146               8.8006
      -------------------------------------------------------------
                  HL-Gap            0.4589529 Eh           12.4887 eV
             Fermi-level           -0.1795499 Eh           -4.8858 eV

     #   Z          covCN         q      C6AA      α(0)
     1   6 C        3.757    -0.113    22.716     6.795
     2   6 C        3.849    -0.013    20.776     6.483
     3   6 C        3.756    -0.112    22.696     6.793
     4   6 C        3.804    -0.065    21.742     6.638
     5   6 C        3.808    -0.067    21.774     6.642
     6   6 C        3.898     0.025    20.093     6.372
     7   6 C        3.763    -0.115    22.745     6.798
     8   6 C        3.760    -0.113    22.718     6.795
     9   6 C        3.760    -0.114    22.733     6.797
    10   1 H        0.925     0.037     2.493     2.469
    11   1 H        0.925     0.036     2.505     2.475
    12   1 H        0.925     0.034     2.537     2.491
    13   1 H        0.924     0.025     2.663     2.552
    14   1 H        0.925     0.035     2.522     2.484
    15   1 H        0.925     0.036     2.507     2.476
    16   1 H        0.925     0.037     2.495     2.470
    17   1 H        0.924     0.032     2.554     2.499
    18   1 H        0.924     0.034     2.532     2.489
    19   1 H        0.924     0.029     2.607     2.525
    20   1 H        0.924     0.032     2.554     2.499
    21   1 H        0.925     0.034     2.524     2.484
    22   1 H        0.925     0.037     2.493     2.469
    23   1 H        0.925     0.035     2.521     2.483
    24   1 H        0.925     0.036     2.508     2.477
    25   1 H        0.925     0.036     2.496     2.471
    26   1 H        0.925     0.035     2.514     2.480
    27   1 H        0.925     0.038     2.480     2.463
    28   1 H        0.925     0.036     2.501     2.473
    29   1 H        0.925     0.036     2.508     2.476

 Mol. C6AA /au·bohr⁶  :       5457.205423
 Mol. C8AA /au·bohr⁸  :     113571.158654
 Mol. α(0) /au        :        109.819379


Wiberg/Mayer (AO) data.
largest (>0.10) Wiberg bond orders for each atom

 ---------------------------------------------------------------------------
     #   Z sym  total        # sym  WBO       # sym  WBO       # sym  WBO
 ---------------------------------------------------------------------------
     1   6 C    3.996 --     2 C    1.008    10 H    0.987    12 H    0.987
                            11 H    0.986
     2   6 C    3.996 --     3 C    1.010     1 C    1.008     4 C    0.995
                            13 H    0.969
     3   6 C    3.996 --     2 C    1.010    16 H    0.987    14 H    0.986
                            15 H    0.985
     4   6 C    3.997 --     5 C    1.008     2 C    0.995    18 H    0.975
                            17 H    0.972
     5   6 C    3.996 --     4 C    1.008     6 C    0.983    19 H    0.975
                            20 H    0.974
     6   6 C    3.992 --     8 C    0.999     9 C    0.999     7 C    0.997
                             5 C    0.983
     7   6 C    3.996 --     6 C    0.997    21 H    0.986    23 H    0.986
                            22 H    0.985
     8   6 C    3.996 --     6 C    0.999    26 H    0.986    25 H    0.985
                            24 H    0.982
     9   6 C    3.996 --     6 C    0.999    29 H    0.986    28 H    0.986
                            27 H    0.984
    10   1 H    0.999 --     1 C    0.987
    11   1 H    0.998 --     1 C    0.986
    12   1 H    0.999 --     1 C    0.987
    13   1 H    0.999 --     2 C    0.969
    14   1 H    0.999 --     3 C    0.986
    15   1 H    0.999 --     3 C    0.985
    16   1 H    0.999 --     3 C    0.987
    17   1 H    0.999 --     4 C    0.972
    18   1 H    0.999 --     4 C    0.975
    19   1 H    0.999 --     5 C    0.975
    20   1 H    0.999 --     5 C    0.974
    21   1 H    0.999 --     7 C    0.986
    22   1 H    0.998 --     7 C    0.985
    23   1 H    0.999 --     7 C    0.986
    24   1 H    0.999 --     8 C    0.982
    25   1 H    0.999 --     8 C    0.985
    26   1 H    0.999 --     8 C    0.986
    27   1 H    0.999 --     9 C    0.984
    28   1 H    0.999 --     9 C    0.986
    29   1 H    0.999 --     9 C    0.986
 ---------------------------------------------------------------------------

Topologies differ in total number of bonds
Writing topology from bond orders to xtbtopo.mol

molecular dipole:
                 x           y           z       tot (Debye)
 q only:        0.015       0.008       0.037
   full:        0.011       0.003       0.026       0.072
molecular quadrupole (traceless):
                xx          xy          yy          xz          yz          zz
 q only:        0.141       0.026       0.052      -0.102       0.047      -0.193
  q+dip:       -0.362       0.413      -0.382       0.120      -0.207       0.745
   full:       -0.056       0.218      -0.196       0.014      -0.083       0.252

           -------------------------------------------------
          |                Geometry Summary                 |
           -------------------------------------------------

      molecular mass/u    :      128.2554381
   center of mass at/Å    :       -0.0000031       0.0000776       0.0000384
  moments of inertia/u·Å² :        0.1779467E+03   0.6857715E+03   0.7320704E+03
rotational constants/cm⁻¹ :        0.9473417E-01   0.2458199E-01   0.2302734E-01

 * 27 selected distances

     #   Z          #   Z                                           value/Å
     1   6 C        2   6 C                                       1.5285922
     2   6 C        3   6 C                                       1.5272501
     2   6 C        4   6 C                                       1.5338741 (max)
     4   6 C        5   6 C                                       1.5281410
     6   6 C        7   6 C                                       1.5334862
     6   6 C        8   6 C                                       1.5308071
     6   6 C        9   6 C                                       1.5305163
     1   6 C       10   1 H                                       1.0880070
     1   6 C       11   1 H                                       1.0875394
     1   6 C       12   1 H                                       1.0876629
     2   6 C       13   1 H                                       1.0963606
     3   6 C       14   1 H                                       1.0877493
     3   6 C       15   1 H                                       1.0864008 (min)
     3   6 C       16   1 H                                       1.0880402
     4   6 C       17   1 H                                       1.0912148
     4   6 C       18   1 H                                       1.0912646
     5   6 C       19   1 H                                       1.0934310
     5   6 C       20   1 H                                       1.0917659
     7   6 C       21   1 H                                       1.0877829
     7   6 C       22   1 H                                       1.0876518
     7   6 C       23   1 H                                       1.0877719
     8   6 C       24   1 H                                       1.0866969
     8   6 C       25   1 H                                       1.0877560
     8   6 C       26   1 H                                       1.0877172
     9   6 C       27   1 H                                       1.0865780
     9   6 C       28   1 H                                       1.0878412
     9   6 C       29   1 H                                       1.0877048

 * 2 distinct bonds (by element types)

   Z      Z             #   av. dist./Å        max./Å        min./Å
   1 H    6 C          20     1.0888469     1.0963606     1.0864008
   6 C    6 C           7     1.5303810     1.5338741     1.5272501

           -------------------------------------------------
          |               Frequency Printout                |
           -------------------------------------------------
 projected vibrational frequencies (cm⁻¹)
eigval :       -0.00    -0.00    -0.00    -0.00     0.00     0.00
eigval :       23.35    68.54    96.63   137.77   198.08   207.10
eigval :      230.89   232.87   244.76   254.11   293.43   326.56
eigval :      369.81   401.78   414.47   434.40   484.41   498.66
eigval :      787.02   803.47   880.52   946.46   950.29   954.73
eigval :      962.24   964.80   966.21   983.59   994.23  1036.28
eigval :     1041.88  1103.40  1107.27  1147.96  1185.38  1211.18
eigval :     1224.98  1263.80  1270.17  1287.57  1314.42  1334.37
eigval :     1342.83  1375.85  1404.33  1406.21  1406.49  1419.30
eigval :     1428.61  1481.55  1488.72  1491.99  1494.42  1497.47
eigval :     1498.88  1500.57  1504.66  1509.81  1510.79  1512.24
eigval :     1515.58  2913.19  2951.29  2972.62  2978.36  2986.97
eigval :     3020.74  3021.28  3021.37  3021.66  3022.31  3023.69
eigval :     3025.34  3028.31  3028.61  3029.36  3035.44  3036.17
eigval :     3041.53  3045.31  3046.16
 reduced masses (amu)
   1:  9.58   2:  9.66   3:  9.83   4:  9.55   5: 10.03   6:  9.56   7:  8.13   8:  8.08
   9:  6.38  10:  8.09  11:  1.84  12:  2.01  13:  4.30  14:  2.00  15:  3.32  16:  4.46
  17:  8.09  18:  7.44  19:  8.06  20:  7.74  21:  7.50  22:  7.63  23:  8.09  24:  8.17
  25:  5.55  26:  7.32  27:  8.22  28:  2.78  29:  5.28  30:  5.83  31:  4.83  32:  3.09
  33:  5.22  34:  4.88  35:  5.67  36:  4.08  37:  4.08  38:  9.04  39:  3.97  40:  7.65
  41:  6.31  42:  6.39  43:  7.72  44:  5.41  45:  8.21  46:  4.72  47:  4.78  48:  4.57
  49:  4.60  50:  5.12  51:  3.28  52:  3.33  53:  3.25  54:  3.11  55:  3.02  56:  1.79
  57:  1.90  58:  1.65  59:  1.60  60:  1.62  61:  1.57  62:  1.59  63:  1.60  64:  1.60
  65:  1.56  66:  1.62  67:  1.59  68:  1.74  69:  1.88  70:  1.76  71:  1.80  72:  1.49
  73:  1.94  74:  1.93  75:  1.94  76:  1.95  77:  1.95  78:  1.93  79:  1.92  80:  1.81
  81:  1.74  82:  1.72  83:  1.29  84:  1.30  85:  1.37  86:  1.42  87:  1.44
 IR intensities (km·mol⁻¹)
   1:  0.00   2:  0.00   3:  0.00   4:  0.00   5:  0.00   6:  0.00   7:  0.01   8:  0.08
   9:  0.03  10:  0.17  11:  0.02  12:  0.03  13:  0.05  14:  0.01  15:  0.00  16:  0.03
  17:  0.02  18:  0.03  19:  0.21  20:  0.62  21:  0.01  22:  0.89  23:  0.72  24:  1.41
  25:  2.95  26:  2.05  27:  1.18  28:  1.94  29:  0.49  30:  5.34  31:  0.58  32:  0.18
  33:  0.62  34:  2.29  35:  0.79  36:  0.40  37:  0.99  38:  0.09  39:  5.78  40:  7.33
  41:  5.48  42:  2.49  43: 17.32  44: 10.70  45: 23.19  46:  4.47  47: 12.68  48:  8.45
  49: 11.00  50:  0.55  51:  1.05  52:  1.94  53:  0.19  54:  0.85  55:  1.12  56:  0.21
  57:  2.36  58:  0.40  59:  0.25  60:  0.53  61:  0.13  62:  0.47  63:  0.93  64:  0.51
  65:  0.71  66:  0.59  67:  1.67  68: 98.36  69: 72.84  70: 54.20  71:115.83  72: 69.41
  73: 22.83  74: 22.65  75: 17.65  76: 20.15  77: 98.62  78:164.65  79:173.79  80:148.51
  81: 42.26  82: 52.51  83:178.17  84:  4.66  85: 33.00  86:112.93  87:  4.05
 Raman intensities (Ä⁴*amu⁻¹)
   1:  0.00   2:  0.00   3:  0.00   4:  0.00   5:  0.00   6:  0.00   7:  0.00   8:  0.00
   9:  0.00  10:  0.00  11:  0.00  12:  0.00  13:  0.00  14:  0.00  15:  0.00  16:  0.00
  17:  0.00  18:  0.00  19:  0.00  20:  0.00  21:  0.00  22:  0.00  23:  0.00  24:  0.00
  25:  0.00  26:  0.00  27:  0.00  28:  0.00  29:  0.00  30:  0.00  31:  0.00  32:  0.00
  33:  0.00  34:  0.00  35:  0.00  36:  0.00  37:  0.00  38:  0.00  39:  0.00  40:  0.00
  41:  0.00  42:  0.00  43:  0.00  44:  0.00  45:  0.00  46:  0.00  47:  0.00  48:  0.00
  49:  0.00  50:  0.00  51:  0.00  52:  0.00  53:  0.00  54:  0.00  55:  0.00  56:  0.00
  57:  0.00  58:  0.00  59:  0.00  60:  0.00  61:  0.00  62:  0.00  63:  0.00  64:  0.00
  65:  0.00  66:  0.00  67:  0.00  68:  0.00  69:  0.00  70:  0.00  71:  0.00  72:  0.00
  73:  0.00  74:  0.00  75:  0.00  76:  0.00  77:  0.00  78:  0.00  79:  0.00  80:  0.00
  81:  0.00  82:  0.00  83:  0.00  84:  0.00  85:  0.00  86:  0.00  87:  0.00
 output can be read by thermo (or use thermo option).
 writing <g98.out> molden fake output.
 recommended (thermochemical) frequency scaling factor: 1.0
           -------------------------------------------------
          |             Thermodynamic Functions             |
           -------------------------------------------------

Molecule has no symmetry elements
It seems to be the C1 point group
c1  symmetry found (for desy threshold:  0.10E+00) used in thermo

          ...................................................
          :                      SETUP                      :
          :.................................................:
          :  # frequencies                          81      :
          :  # imaginary freq.                       0      :
          :  linear?                             false      :
          :  only rotor calc.                    false      :
          :  symmetry                               c1      :
          :  rotational number                       1      :
          :  scaling factor                  1.0000000      :
          :  rotor cutoff                    0.0000000 cm⁻¹ :
          :  imag. cutoff                 -100.0000000 cm⁻¹ :
          :.................................................:

    mode    ω/cm⁻¹     T·S(HO)/kcal·mol⁻¹    T·S(FR)/kcal·mol⁻¹   T·S(vib)
   ------------------------------------------------------------------------
       1     23.35    -1.88644 (100.00%)    -1.28178 (  0.00%)    -1.88644
       2     68.54    -1.25073 (100.00%)    -0.96300 (  0.00%)    -1.25073
       3     96.63    -1.04985 (100.00%)    -0.86128 (  0.00%)    -1.04985
       4    137.77    -0.84514 (100.00%)    -0.75622 (  0.00%)    -0.84514
       5    198.08    -0.64129 (100.00%)    -0.64869 (  0.00%)    -0.64129
       6    207.10    -0.61690 (100.00%)    -0.63549 (  0.00%)    -0.61690
       7    230.89    -0.55815 (100.00%)    -0.60329 (  0.00%)    -0.55815
       8    232.87    -0.55359 (100.00%)    -0.60076 (  0.00%)    -0.55359
       9    244.76    -0.52712 (100.00%)    -0.58600 (  0.00%)    -0.52712
      10    254.11    -0.50742 (100.00%)    -0.57490 (  0.00%)    -0.50742
      11    293.43    -0.43354 (100.00%)    -0.53228 (  0.00%)    -0.43354
   ------------------------------------------------------------------------

   temp. (K)  partition function   enthalpy   heat capacity  entropy
                                   cal/mol     cal/K/mol   cal/K/mol   J/K/mol
 298.15  VIB  0.973E+04             6031.639     39.944     38.480
         ROT  0.722E+06              888.752      2.981     29.789
         INT  0.703E+10             6920.392     42.925     68.268
         TR   0.141E+28             1481.254      4.968     40.441
         TOT                        8401.6454    47.8927   108.7097   454.8415

       T/K    H(0)-H(T)+PV         H(T)/Eh          T*S/Eh         G(T)/Eh
   ------------------------------------------------------------------------
    298.15    0.133889E-01    0.283761E+00    0.516515E-01    0.232110E+00
   ------------------------------------------------------------------------

         :::::::::::::::::::::::::::::::::::::::::::::::::::::
         ::                  THERMODYNAMIC                  ::
         :::::::::::::::::::::::::::::::::::::::::::::::::::::
         :: total free energy         -29.260420768096 Eh   ::
         ::.................................................::
         :: total energy              -29.492530638466 Eh   ::
         :: zero point energy           0.270372495357 Eh   ::
         :: G(RRHO) w/o ZPVE           -0.038262624988 Eh   ::
         :: G(RRHO) contrib.            0.232109870370 Eh   ::
         :::::::::::::::::::::::::::::::::::::::::::::::::::::

optimized geometry written to: xtbopt.coord


           -------------------------------------------------
          | TOTAL ENERGY              -29.492530638466 Eh   |
          | TOTAL ENTHALPY            -29.208769268870 Eh   |
          | TOTAL FREE ENERGY         -29.260420768096 Eh   |
          | GRADIENT NORM               0.000037720145 Eh/α |
          | HOMO-LUMO GAP              12.488744818216 eV   |
           -------------------------------------------------

------------------------------------------------------------------------
 * finished run on 2025/04/11 at 11:39:12.564     
------------------------------------------------------------------------
 total:
 * wall-time:     0 d,  0 h,  0 min,  3.410 sec
 *  cpu-time:     0 d,  0 h,  0 min,  3.312 sec
 * ratio c/w:     0.971 speedup
 SCF:
 * wall-time:     0 d,  0 h,  0 min,  0.039 sec
 *  cpu-time:     0 d,  0 h,  0 min,  0.027 sec
 * ratio c/w:     0.691 speedup
 ANC optimizer:
 * wall-time:     0 d,  0 h,  0 min,  0.291 sec
 *  cpu-time:     0 d,  0 h,  0 min,  0.275 sec
 * ratio c/w:     0.944 speedup
 analytical hessian:
 * wall-time:     0 d,  0 h,  0 min,  3.001 sec
 *  cpu-time:     0 d,  0 h,  0 min,  2.983 sec
 * ratio c/w:     0.994 speedup

