
                                 *****************
                                 * O   R   C   A *
                                 *****************

                                            #,                                       
                                            ###                                      
                                            ####                                     
                                            #####                                    
                                            ######                                   
                                           ########,                                 
                                     ,,################,,,,,                         
                               ,,#################################,,                 
                          ,,##########################################,,             
                       ,#########################################, ''#####,          
                    ,#############################################,,   '####,        
                  ,##################################################,,,,####,       
                ,###########''''           ''''###############################       
              ,#####''   ,,,,##########,,,,          '''####'''          '####       
            ,##' ,,,,###########################,,,                        '##       
           ' ,,###''''                  '''############,,,                           
         ,,##''                                '''############,,,,        ,,,,,,###''
      ,#''                                            '''#######################'''  
     '                                                          ''''####''''         
             ,#######,   #######,   ,#######,      ##                                
            ,#'     '#,  ##    ##  ,#'     '#,    #''#        ,####,   ,####,        
            ##       ##  ##   ,#'  ##            #'  '#       #'       #'  '#        
            ##       ##  #######   ##           ,######,      #####,   #    #        
            '#,     ,#'  ##    ##  '#,     ,#' ,#      #,     #,   #   #,  ,#        
             '#######'   ##     ##  '#######'  #'      '#     '####' # '####'        



                #########################################################
                #                        -***-                          #
                #          Department of theory and spectroscopy        #
                #                                                       #
                #                      Frank Neese                      #
                #                                                       #
                #     Directorship, Architecture, Infrastructure        #
                #                    SHARK, DRIVERS                     #
                #        Core code/Algorithms in most modules           #
                #                                                       #
                #        Max Planck Institute fuer Kohlenforschung      #
                #                Kaiser Wilhelm Platz 1                 #
                #                 D-45470 Muelheim/Ruhr                 #
                #                      Germany                          #
                #                                                       #
                #                  All rights reserved                  #
                #                        -***-                          #
                #########################################################


                         Program Version 6.0.0  -   RELEASE  -


 With contributions from (in alphabetic order):
   Daniel Aravena         : Magnetic Suceptibility
   Michael Atanasov       : Ab Initio Ligand Field Theory (pilot matlab implementation)
   Alexander A. Auer      : GIAO ZORA, VPT2 properties, NMR spectrum
   Ute Becker             : All parallelization in ORCA, NUMFREQ, NUMCALC
   Giovanni Bistoni       : ED, misc. LED, open-shell LED, HFLD
   Martin Brehm           : Molecular dynamics
   Dmytro Bykov           : pre 5.0 version of the SCF Hessian
   Marcos Casanova-Páez   : Triplet and SCS-CIS(D). UHF-(DLPNO)-IP/EA/STEOM-CCSD. UHF-CVS-IP/STEOM-CCSD
   Vijay G. Chilkuri      : MRCI spin determinant printing, contributions to CSF-ICE
   Pauline Colinet        : FMM embedding
   Dipayan Datta          : RHF DLPNO-CCSD density
   Achintya Kumar Dutta   : EOM-CC, STEOM-CC
   Nicolas Foglia         : Exact transition moments, OPA infrastructure, MCD improvements
   Dmitry Ganyushin       : Spin-Orbit,Spin-Spin,Magnetic field MRCI
   Miquel Garcia          : C-PCM and meta-GGA Hessian, CCSD/C-PCM, Gaussian charge scheme
   Tiago L. C. Gouveia    : GS-ROHF, GS-ROCIS
   Yang Guo               : DLPNO-NEVPT2, F12-NEVPT2, CIM, IAO-localization
   Andreas Hansen         : Spin unrestricted coupled pair/coupled cluster methods
   Ingolf Harden          : AUTO-CI MPn and infrastructure 
   Benjamin Helmich-Paris : MC-RPA, TRAH-(SCF,CASSCF), AVAS, COSX integrals, SCF dyn. polar.
   Lee Huntington         : MR-EOM, pCC
   Robert Izsak           : Overlap fitted RIJCOSX, COSX-SCS-MP3, EOM
   Riya Kayal             : Wick's Theorem for AUTO-CI, AUTO-CI UHF-CCSDT
   Emily Kempfer          : AUTO-CI, RHF CISDT and CCSDT
   Christian Kollmar      : KDIIS, OOCD, Brueckner-CCSD(T), CCSD density, CASPT2, CASPT2-K, improved NEVPT2
   Axel Koslowski         : Symmetry handling
   Simone Kossmann        : Meta GGA functionals, TD-DFT gradient, OOMP2, (MP2 Hessian; deprecated post 5.0)
   Lucas Lang             : DCDCAS
   Marvin Lechner         : AUTO-CI (C++ implementation), FIC-MRCC
   Spencer Leger          : CASSCF response
   Dagmar Lenk            : GEPOL surface, SMD, ORCA-2-JSON
   Dimitrios Liakos       : Extrapolation schemes; Compound Job, initial MDCI parallelization
   Dimitrios Manganas     : Further ROCIS development; embedding schemes. LFT, Crystal Embedding
   Dimitrios Pantazis     : SARC Basis sets
   Anastasios Papadopoulos: AUTO-CI, single reference methods and gradients
   Taras Petrenko         : pre 6.0 DFT Hessian and TD-DFT gradient, (ASA, deprecated), ECA, 1-Electron XAS/XES, NRVS
   Peter Pinski           : DLPNO-MP2, DLPNO-MP2 Gradient
   Christoph Reimann      : Effective Core Potentials
   Marius Retegan         : Local ZFS, SOC
   Christoph Riplinger    : Optimizer, TS searches, QM/MM, DLPNO-CCSD(T), (RO)-DLPNO pert. Triples
   Michael Roemelt        : Original ROCIS implementation
   Masaaki Saitow         : Open-shell DLPNO-CCSD energy and density
   Barbara Sandhoefer     : DKH picture change effects
   Kantharuban Sivalingam : CASSCF convergence/infrastructure, NEVPT2 and variants, FIC-MRCI
   Bernardo de Souza      : ESD, SOC TD-DFT
   Georgi Stoychev        : AutoAux, RI-MP2 NMR, DLPNO-MP2 response, X2C
   Van Anh Tran           : RI-MP2 g-tensors
   Willem Van den Heuvel  : Paramagnetic NMR
   Zikuan Wang            : NOTCH, Electric field optimization 
   Frank Wennmohs         : Technical directorship and infrastructure
   Hang Xu                : AUTO-CI-Response properties 


 We gratefully acknowledge several colleagues who have allowed us to
 interface, adapt or use parts of their codes:
   Stefan Grimme, W. Hujo, H. Kruse, P. Pracht,  : VdW corrections, initial TS optimization,
                  C. Bannwarth, S. Ehlert,         DFT functionals, gCP, sTDA/sTD-DF
                  L. Wittmann, M. Mueller
   Ed Valeev, F. Pavosevic, A. Kumar             : LibInt (2-el integral package), F12 methods
   Garnet Chan, S. Sharma, J. Yang, R. Olivares  : DMRG
   Ulf Ekstrom                                   : XCFun DFT Library
   Mihaly Kallay                                 : mrcc  (arbitrary order and MRCC methods)
   Frank Weinhold                                : gennbo (NPA and NBO analysis)
   Simon Mueller                                 : openCOSMO-RS
   Christopher J. Cramer and Donald G. Truhlar   : smd solvation model
   Lars Goerigk                                  : TD-DFT with DH, B97 family of functionals
   V. Asgeirsson, H. Jonsson                     : NEB implementation
   FAccTs GmbH                                   : IRC, NEB, NEB-TS, DLPNO-Multilevel, CI-OPT
                                                   MM, QMMM, 2- and 3-layer-ONIOM, Crystal-QMMM,
                                                   LR-CPCM, SF, NACMEs, symmetry and pop. for TD-DFT,
                                                   nearIR, NL-DFT gradient (VV10), updates on ESD,
                                                   ML-optimized integration grids, MBIS, APM,
                                                   GOAT, DOCKER, SOLVATOR, interface openCOSMO-RS
   S Lehtola, MJT Oliveira, MAL Marques          : LibXC Library
   Liviu Ungur et al                             : ANISO software


 Your calculation uses the libint2 library for the computation of 2-el integrals
 For citations please refer to: http://libint.valeyev.net

 Your ORCA version has been built with support for libXC version: 6.2.2
 For citations please refer to: https://libxc.gitlab.io

 This ORCA versions uses:
   CBLAS   interface :  Fast vector & matrix operations
   LAPACKE interface :  Fast linear algebra routines
   SCALAPACK package :  Parallel linear algebra routines
   Shared memory     :  Shared parallel matrices
   BLAS/LAPACK       :  OpenBLAS 0.3.27  USE64BITINT DYNAMIC_ARCH NO_AFFINITY SkylakeX SINGLE_THREADED
        Core in use  :  SkylakeX
   Copyright (c) 2011-2014, The OpenBLAS Project


Your calculation utilizes the geometrical counterpoise correction gCP
Please cite in your paper:
H.Kruse, S. Grimme J.Chem.Phys., 136, (2012), 154101 
   

Your calculation utilizes the atom-pairwise dispersion correction
based on EEQ partial charges (D4)


================================================================================

----- Orbital basis set information -----
Your calculation utilizes the basis: def2-SV(P)
   F. Weigend and R. Ahlrichs, Phys. Chem. Chem. Phys. 7, 3297 (2005).

----- AuxJ basis set information -----
Your calculation utilizes the auxiliary basis: def2/J
   F. Weigend, Phys. Chem. Chem. Phys. 8, 1057 (2006).

================================================================================
                                        WARNINGS
                       Please study these warnings very carefully!
================================================================================


================================================================================
                                       INPUT FILE
================================================================================
NAME = sp.inp
|  1> ! pbe def2-sv(p) def2/J RI DEFGRID1 loosescf d4 GCP(DFT/SV(P)) printgap
|  2> %output
|  3>     printlevel normal
|  4> end
|  5> * xyz 0 1
|  6> C -1.1631079708 0.1575787881 -0.4866264202
|  7> C -0.033261744 0.5375490475 0.4922247539
|  8> C 0.9951257401 -0.5920833699 0.6445643285
|  9> O 1.5310328718 -0.8823607268 -0.6310932304
| 10> O 0.5966359678 1.7276639403 0.0776870093
| 11> O -2.0437564056 -0.8110855339 0.0313515392
| 12> H -0.7227687118 -0.1736433202 -1.4342520054
| 13> H -1.7664006671 1.0501244116 -0.6692347583
| 14> H -0.472430156 0.7529060207 1.471906862
| 15> H 0.5090641539 -1.473716239 1.0788517001
| 16> H 1.7814764656 -0.2488300251 1.3273924459
| 17> H 2.2376979027 -1.5350257722 -0.5428169922
| 18> H 1.1073963746 1.5311390725 -0.7226353893
| 19> H -1.6079615673 -1.6739931459 0.0301375172
| 20> *
| 21> 
| 22>                          ****END OF INPUT****
================================================================================

                       ****************************
                       * Single Point Calculation *
                       ****************************

---------------------------------
CARTESIAN COORDINATES (ANGSTROEM)
---------------------------------
  C     -1.163108    0.157579   -0.486626
  C     -0.033262    0.537549    0.492225
  C      0.995126   -0.592083    0.644564
  O      1.531033   -0.882361   -0.631093
  O      0.596636    1.727664    0.077687
  O     -2.043756   -0.811086    0.031352
  H     -0.722769   -0.173643   -1.434252
  H     -1.766401    1.050124   -0.669235
  H     -0.472430    0.752906    1.471907
  H      0.509064   -1.473716    1.078852
  H      1.781476   -0.248830    1.327392
  H      2.237698   -1.535026   -0.542817
  H      1.107396    1.531139   -0.722635
  H     -1.607962   -1.673993    0.030138

----------------------------
CARTESIAN COORDINATES (A.U.)
----------------------------
  NO LB      ZA    FRAG     MASS         X           Y           Z
   0 C     6.0000    0    12.011   -2.197956    0.297781   -0.919591
   1 C     6.0000    0    12.011   -0.062856    1.015820    0.930170
   2 C     6.0000    0    12.011    1.880515   -1.118875    1.218050
   3 O     8.0000    0    15.999    2.893233   -1.667420   -1.192593
   4 O     8.0000    0    15.999    1.127479    3.264812    0.146807
   5 O     8.0000    0    15.999   -3.862140   -1.532730    0.059246
   6 H     1.0000    0     1.008   -1.365835   -0.328138   -2.710343
   7 H     1.0000    0     1.008   -3.338014    1.984448   -1.264670
   8 H     1.0000    0     1.008   -0.892764    1.422786    2.781501
   9 H     1.0000    0     1.008    0.961992   -2.784920    2.038734
  10 H     1.0000    0     1.008    3.366503   -0.470221    2.508408
  11 H     1.0000    0     1.008    4.228636   -2.900778   -1.025775
  12 H     1.0000    0     1.008    2.092676    2.893434   -1.365583
  13 H     1.0000    0     1.008   -3.038607   -3.163389    0.056952

--------------------------------
INTERNAL COORDINATES (ANGSTROEM)
--------------------------------
 C      0   0   0     0.000000000000     0.00000000     0.00000000
 C      1   0   0     1.542426502391     0.00000000     0.00000000
 C      2   1   0     1.535206032389   111.86342083     0.00000000
 O      3   2   1     1.413774948609   108.38881065    58.28204303
 O      2   1   3     1.408895357042   110.41792068   123.58879559
 O      1   2   3     1.407889697688   113.21626582    71.50542841
 H      1   2   3     1.096175623597   109.19588592   307.05002218
 H      1   2   3     1.092678165144   108.01515020   188.74678687
 H      2   1   3     1.094999795861   108.81098923   239.59067951
 H      3   2   1     1.096420495334   109.51250904   296.90435979
 H      3   2   1     1.096551211810   108.16955919   178.41957072
 H      4   3   2     0.965991626058   109.48541077   174.88674251
 H      5   2   1     0.969543273155   107.88937512   289.31957645
 H      6   1   2     0.966709967770   109.37227093   286.09013566

---------------------------
INTERNAL COORDINATES (A.U.)
---------------------------
 C      0   0   0     0.000000000000     0.00000000     0.00000000
 C      1   0   0     2.914763671222     0.00000000     0.00000000
 C      2   1   0     2.901118960359   111.86342083     0.00000000
 O      3   2   1     2.671647467870   108.38881065    58.28204303
 O      2   1   3     2.662426376162   110.41792068   123.58879559
 O      1   2   3     2.660525955399   113.21626582    71.50542841
 H      1   2   3     2.071471723279   109.19588592   307.05002218
 H      1   2   3     2.064862484637   108.01515020   188.74678687
 H      2   1   3     2.069249730877   108.81098923   239.59067951
 H      3   2   1     2.071934463799   109.51250904   296.90435979
 H      3   2   1     2.072181482141   108.16955919   178.41957072
 H      4   3   2     1.825459620911   109.48541077   174.88674251
 H      5   2   1     1.832171261248   107.88937512   289.31957645
 H      6   1   2     1.826817090017   109.37227093   286.09013566

---------------------
BASIS SET INFORMATION
---------------------
There are 3 groups of distinct atoms

 Group   1 Type C   : 7s4p1d contracted to 3s2p1d pattern {511/31/1}
 Group   2 Type O   : 7s4p1d contracted to 3s2p1d pattern {511/31/1}
 Group   3 Type H   : 4s contracted to 2s pattern {31}

Atom   0C    basis set group =>   1
Atom   1C    basis set group =>   1
Atom   2C    basis set group =>   1
Atom   3O    basis set group =>   2
Atom   4O    basis set group =>   2
Atom   5O    basis set group =>   2
Atom   6H    basis set group =>   3
Atom   7H    basis set group =>   3
Atom   8H    basis set group =>   3
Atom   9H    basis set group =>   3
Atom  10H    basis set group =>   3
Atom  11H    basis set group =>   3
Atom  12H    basis set group =>   3
Atom  13H    basis set group =>   3
---------------------------------
AUXILIARY/J BASIS SET INFORMATION
---------------------------------
There are 3 groups of distinct atoms

 Group   1 Type C   : 12s5p4d2f1g contracted to 6s4p3d1f1g pattern {711111/2111/211/2/1}
 Group   2 Type O   : 12s5p4d2f1g contracted to 6s4p3d1f1g pattern {711111/2111/211/2/1}
 Group   3 Type H   : 5s2p1d contracted to 3s1p1d pattern {311/2/1}

Atom   0C    basis set group =>   1
Atom   1C    basis set group =>   1
Atom   2C    basis set group =>   1
Atom   3O    basis set group =>   2
Atom   4O    basis set group =>   2
Atom   5O    basis set group =>   2
Atom   6H    basis set group =>   3
Atom   7H    basis set group =>   3
Atom   8H    basis set group =>   3
Atom   9H    basis set group =>   3
Atom  10H    basis set group =>   3
Atom  11H    basis set group =>   3
Atom  12H    basis set group =>   3
Atom  13H    basis set group =>   3
------------------------------------------------------------------------------
                             ORCA STARTUP CALCULATIONS
                           -- RI-GTO INTEGRALS CHOSEN --
------------------------------------------------------------------------------
------------------------------------------------------------------------------
                   ___                                                        
                  /   \      - P O W E R E D   B Y -                         
                 /     \                                                     
                 |  |  |   _    _      __       _____    __    __             
                 |  |  |  | |  | |    /  \     |  _  \  |  |  /  |          
                  \  \/   | |  | |   /    \    | | | |  |  | /  /          
                 / \  \   | |__| |  /  /\  \   | |_| |  |  |/  /          
                |  |  |   |  __  | /  /__\  \  |    /   |      \           
                |  |  |   | |  | | |   __   |  |    \   |  |\   \          
                \     /   | |  | | |  |  |  |  | |\  \  |  | \   \       
                 \___/    |_|  |_| |__|  |__|  |_| \__\ |__|  \__/        
                                                                              
                      - O R C A' S   B I G   F R I E N D -                    
                                      &                                       
                       - I N T E G R A L  F E E D E R -                       
                                                                              
 v1 FN, 2020, v2 2021, v3 2022-2024                                           
------------------------------------------------------------------------------


----------------------
SHARK INTEGRAL PACKAGE
----------------------

Number of atoms                             ...     14
Number of basis functions                   ...    100
Number of shells                            ...     52
Maximum angular momentum                    ...      2
Integral batch strategy                     ... SHARK/LIBINT Hybrid
RI-J (if used) integral strategy            ... SPLIT-RIJ (Revised 2003 algorithm where possible)
Printlevel                                  ...      1
Contraction scheme used                     ... SEGMENTED contraction
Prescreening option                         ... SCHWARTZ
   Thresh                                   ... 1.000e-09
   Tcut                                     ... 1.000e-10
   Tpresel                                  ... 1.000e-10 
Coulomb Range Separation                    ... NOT USED
Exchange Range Separation                   ... NOT USED
Multipole approximations                    ... NOT USED
Finite Nucleus Model                        ... NOT USED
CABS basis                                  ... NOT available
Auxiliary Coulomb fitting basis             ... AVAILABLE
   # of basis functions in Aux-J            ...    382
   # of shells in Aux-J                     ...    130
   Maximum angular momentum in Aux-J        ...      4
Auxiliary J/K fitting basis                 ... NOT available
Auxiliary Correlation fitting basis         ... NOT available
Auxiliary 'external' fitting basis          ... NOT available

Checking pre-screening integrals            ... done (  0.0 sec) Dimension = 52
Check shell pair data                       ... done (  0.0 sec)
Shell pair information
Shell pair cut-off parameter TPreSel        ...   1.0e-10
Total number of shell pairs                 ...      1378
Shell pairs after pre-screening             ...      1342
Total number of primitive shell pairs       ...      5562
Primitive shell pairs kept                  ...      4004
          la=0 lb=0:    575 shell pairs
          la=1 lb=0:    400 shell pairs
          la=1 lb=1:     78 shell pairs
          la=2 lb=0:    196 shell pairs
          la=2 lb=1:     72 shell pairs
          la=2 lb=2:     21 shell pairs

Calculating one electron integrals          ... done (  0.0 sec)
Calculating RI/J V-Matrix + Cholesky decomp.... done (  0.1 sec)
Calculating Nuclear repulsion               ... done (  0.0 sec) ENN=    264.412816318343 Eh

Diagonalization of the overlap matrix:
Smallest eigenvalue                        ... 2.307e-03
Time for diagonalization                   ...    0.001 sec
Threshold for overlap eigenvalues          ... 1.000e-07
Number of eigenvalues below threshold      ... 0
Time for construction of square roots      ...    0.015 sec
Total time needed                          ...    0.025 sec

-------------------
DFT GRID GENERATION
-------------------

General Integration Accuracy     IntAcc      ... 4.159
Radial Grid Type                 RadialGrid  ... OptM3 with GC (2021)
Angular Grid (max. ang.)         AngularGrid ... 3 (Lebedev-194)
Angular grid pruning method      GridPruning ... 4 (adaptive)
Weight generation scheme         WeightScheme... mBecke (2022)
Basis function cutoff            BFCut       ... 1.0000e-10
Integration weight cutoff        WCut        ... 1.0000e-14
Partially contracted basis set               ... off
Rotationally invariant grid construction     ... off
Angular grids for H and He will be reduced by one unit

Total number of grid points                  ...    31057
Total number of batches                      ...      493
Average number of points per batch           ...       62
Average number of grid points per atom       ...     2218
Initializing property integral containers    ... done (  0.0 sec)

SHARK setup successfully completed in   0.5 seconds

Maximum memory used throughout the entire STARTUP-calculation: 15.2 MB
-------------------------------------------------------------------------------
                                 ORCA GUESS
                   Start orbitals & Density for SCF / CASSCF
-------------------------------------------------------------------------------

------------
SCF SETTINGS
------------
Hamiltonian:
 Density Functional     Method          .... DFT(GTOs)
 Exchange Functional    Exchange        .... PBE
   PBE kappa parameter   XKappa         ....  0.804000
   PBE mue parameter    XMuePBE         ....  0.219520
 Correlation Functional Correlation     .... PBE
   PBE beta parameter  CBetaPBE         ....  0.066725
 LDA part of GGA corr.  LDAOpt          .... PW91-LDA
 Gradients option       PostSCFGGA      .... off
   NL short-range parameter             ....  6.400000
 RI-approximation to the Coulomb term is turned on
   Number of AuxJ basis functions       .... 382


General Settings:
 Integral files         IntName         .... sp
 Hartree-Fock type      HFTyp           .... RHF
 Total Charge           Charge          ....    0
 Multiplicity           Mult            ....    1
 Number of Electrons    NEL             ....   50
 Basis Dimension        Dim             ....  100
 Nuclear Repulsion      ENuc            ....    264.4128163183 Eh

Convergence Acceleration:
 AO-DIIS                CNVDIIS         .... on
   Start iteration      DIISMaxIt       ....    12
   Startup error        DIISStart       ....  0.200000
   # of expansion vecs  DIISMaxEq       ....     5
   Bias factor          DIISBfac        ....   1.050
   Max. coefficient     DIISMaxC        ....  10.000
 MO-DIIS                CNVKDIIS        .... off
 Trust-Rad. Augm. Hess. CNVTRAH         .... auto
   Auto Start mean grad. ratio tolernc. ....  1.125000
   Auto Start start iteration           ....    50
   Auto Start num. interpolation iter.  ....    10
   Max. Number of Micro iterations      ....    24
   Max. Number of Macro iterations      .... Maxiter - #DIIS iter
   Number of Davidson start vectors     ....     2
   Converg. threshold    (grad. norm)   ....   1.000e-04
   Grad. Scal. Fac. for Micro threshold ....   0.100
   Minimum threshold for Micro iter.    ....   1.000e-02
   NR start threshold (gradient norm)   ....   1.000e-04
   Initial trust radius                 ....   0.400
   Minimum AH scaling param. (alpha)    ....   1.000
   Maximum AH scaling param. (alpha)    .... 1000.000
   Quad. conv. algorithm                .... NR
   White noise on init. David. guess    .... on
   Maximum white noise                  ....   0.010
   Pseudo random numbers                .... off
   Inactive MOs                         .... canonical
   Orbital update algorithm             .... Taylor
   Preconditioner                       .... Diag
   Full preconditioner red. dimension   ....   250
 SOSCF                  CNVSOSCF        .... on
   Start iteration      SOSCFMaxIt      ....   150
   Startup grad/error   SOSCFStart      ....  0.003300
   Hessian update       SOSCFHessUp     .... L-BFGS
 Level Shifting         CNVShift        .... on
   Level shift para.    LevelShift      ....    0.2500
   Turn off err/grad.   ShiftErr        ....    0.0010
 Zerner damping         CNVZerner       .... off
 Static damping         CNVDamp         .... on
   Fraction old density DampFac         ....    0.7000
   Max. Damping (<1)    DampMax         ....    0.9800
   Min. Damping (>=0)   DampMin         ....    0.0000
   Turn off err/grad.   DampErr         ....    0.1000

SCF Procedure:
 Maximum # iterations   MaxIter         ....   125
 SCF integral mode      SCFMode         .... Direct
   Integral package                     .... SHARK and LIBINT hybrid scheme
 Reset frequency        DirectResetFreq ....    20
 Integral Threshold     Thresh          ....  1.000e-09 Eh
 Primitive CutOff       TCut            ....  1.000e-10 Eh

Convergence Tolerance:
 Convergence Check Mode ConvCheckMode   .... Total+1el-Energy
 Convergence forced     ConvForced      .... 0
 Energy Change          TolE            ....  1.000e-05 Eh
 1-El. energy change                    ....  1.000e-02 Eh
 Orbital Gradient       TolG            ....  1.000e-04
 Orbital Rotation angle TolX            ....  1.000e-04
 DIIS Error             TolErr          ....  5.000e-04

------------------------------
INITIAL GUESS: MODEL POTENTIAL
------------------------------
Loading Hartree-Fock densities                     ... done
Calculating cut-offs                               ... done
Initializing the effective Hamiltonian             ... done
Setting up the integral package (SHARK)            ... done
Starting the Coulomb interaction                   ... done (   0.1 sec)
Making the grid                                    ... done (   0.1 sec)
Mapping shells                                     ... done
Starting the XC term evaluation                    ... done (   0.1 sec)
  promolecular density results
     # of electrons  =     49.997419514
     EX              =    -42.173008995
     EC              =     -1.665284721
     EX+EC           =    -43.838293716
Transforming the Hamiltonian                       ... done (   0.0 sec)
Diagonalizing the Hamiltonian                      ... done (   0.0 sec)
Back transforming the eigenvectors                 ... done (   0.0 sec)
Now organizing SCF variables                       ... done
                      ------------------
                      INITIAL GUESS DONE (   0.4 sec)
                      ------------------
             **** ENERGY FILE WAS UPDATED (sp.en.tmp) ****
Finished Guess after   0.5 sec
Maximum memory used throughout the entire GUESS-calculation: 11.8 MB

-------------------------------------------------------------------------------------------
                                      ORCA LEAN-SCF
                              memory conserving SCF solver
-------------------------------------------------------------------------------------------

----------------------------------------D-I-I-S--------------------------------------------
Iteration    Energy (Eh)           Delta-E    RMSDP     MaxDP     DIISErr   Damp  Time(sec)
-------------------------------------------------------------------------------------------
               ***  Starting incremental Fock matrix formation  ***
    1    -343.8993607081105779     0.00e+00  6.03e-03  7.82e-02  2.22e-01  0.700   0.5
    2    -343.9897007474764337    -9.03e-02  3.88e-03  5.68e-02  9.03e-02  0.700   0.6
                               ***Turning on AO-DIIS***
    3    -344.0186296675828430    -2.89e-02  1.42e-03  1.63e-02  1.80e-02  0.700   0.6
    4    -344.0375109563273668    -1.89e-02  1.87e-03  2.17e-02  1.06e-02  0.000   0.5
    5    -344.0812066758152810    -4.37e-02  5.64e-04  9.24e-03  6.04e-03  0.000   0.5
                              *** Initializing SOSCF ***
---------------------------------------S-O-S-C-F--------------------------------------
Iteration    Energy (Eh)           Delta-E    RMSDP     MaxDP     MaxGrad    Time(sec)
--------------------------------------------------------------------------------------
    6    -344.0814306450203617    -2.24e-04  1.97e-04  2.83e-03  1.11e-03     0.5
               *** Restarting incremental Fock matrix formation ***
    7    -344.0814496852443085    -1.90e-05  1.25e-04  1.60e-03  1.54e-04     0.5
    8    -344.0814504371653015    -7.52e-07  3.92e-05  6.30e-04  2.12e-04     0.5
                 **** Energy Check signals convergence ****

               *****************************************************
               *                     SUCCESS                       *
               *           SCF CONVERGED AFTER   8 CYCLES          *
               *****************************************************

             **** ENERGY FILE WAS UPDATED (sp.en.tmp) ****

----------------
TOTAL SCF ENERGY
----------------

Total Energy       :       -344.08145043716530 Eh           -9362.93227 eV

Components:
Nuclear Repulsion  :        264.41281631834300 Eh            7195.03852 eV
Electronic Energy  :       -608.49426675550831 Eh          -16557.97079 eV
One Electron Energy:       -994.94932550787860 Eh          -27073.94756 eV
Two Electron Energy:        386.45505875237029 Eh           10515.97677 eV

Virial components:
Potential Energy   :       -685.81414294363208 Eh          -18661.95158 eV
Kinetic Energy     :        341.73269250646678 Eh            9299.01932 eV
Virial Ratio       :          2.00687308525699

DFT components:
N(Alpha)           :       25.000041293266 electrons
N(Beta)            :       25.000041293266 electrons
N(Total)           :       50.000082586533 electrons
E(X)               :      -42.972445299392 Eh       
E(C)               :       -1.681959992970 Eh       
E(XC)              :      -44.654405292363 Eh       

---------------
SCF CONVERGENCE
---------------

  Last Energy change         ...    7.5192e-07  Tolerance :   1.0000e-05
  Last MAX-Density change    ...    6.3039e-04  Tolerance :   1.0000e-03
  Last RMS-Density change    ...    3.9247e-05  Tolerance :   1.0000e-04
  Last DIIS Error            ...    1.1113e-03  Tolerance :   5.0000e-04
  Last Orbital Gradient      ...    2.1210e-04  Tolerance :   1.0000e-04
  Last Orbital Rotation      ...    1.5527e-04  Tolerance :   1.0000e-04


----------------
ORBITAL ENERGIES
----------------

  NO   OCC          E(Eh)            E(eV) 
   0   2.0000     -18.765229      -510.6278 
   1   2.0000     -18.744334      -510.0593 
   2   2.0000     -18.741862      -509.9920 
   3   2.0000      -9.939295      -270.4620 
   4   2.0000      -9.933824      -270.3131 
   5   2.0000      -9.920670      -269.9552 
   6   2.0000      -0.943988       -25.6872 
   7   2.0000      -0.920635       -25.0518 
   8   2.0000      -0.912381       -24.8272 
   9   2.0000      -0.675597       -18.3839 
  10   2.0000      -0.609226       -16.5779 
  11   2.0000      -0.540864       -14.7177 
  12   2.0000      -0.488178       -13.2840 
  13   2.0000      -0.459431       -12.5018 
  14   2.0000      -0.436637       -11.8815 
  15   2.0000      -0.416357       -11.3296 
  16   2.0000      -0.387931       -10.5562 
  17   2.0000      -0.357932        -9.7398 
  18   2.0000      -0.353877        -9.6295 
  19   2.0000      -0.307316        -8.3625 
  20   2.0000      -0.277027        -7.5383 
  21   2.0000      -0.274745        -7.4762 
  22   2.0000      -0.241404        -6.5689 
  23   2.0000      -0.232183        -6.3180 
  24   2.0000      -0.197467        -5.3734 
  25   0.0000       0.005732         0.1560 
  26   0.0000       0.032264         0.8779 
  27   0.0000       0.066054         1.7974 
  28   0.0000       0.071601         1.9484 
  29   0.0000       0.087330         2.3764 
  30   0.0000       0.102860         2.7990 
  31   0.0000       0.128551         3.4981 
  32   0.0000       0.132947         3.6177 
  33   0.0000       0.155274         4.2252 
  34   0.0000       0.177723         4.8361 
  35   0.0000       0.189396         5.1537 
*Only the first 10 virtual orbitals were printed.

                    ********************************
                    * MULLIKEN POPULATION ANALYSIS *
                    ********************************

-----------------------
MULLIKEN ATOMIC CHARGES
-----------------------
   0 C :    0.010060
   1 C :    0.019513
   2 C :   -0.019461
   3 O :   -0.447392
   4 O :   -0.433082
   5 O :   -0.436578
   6 H :    0.076965
   7 H :    0.095113
   8 H :    0.078974
   9 H :    0.061094
  10 H :    0.088642
  11 H :    0.308596
  12 H :    0.299417
  13 H :    0.298138
Sum of atomic charges:    0.0000000

--------------------------------
MULLIKEN REDUCED ORBITAL CHARGES
--------------------------------
  0 C s       :     3.056634  s :     3.056634
      pz      :     1.015214  p :     2.871363
      px      :     0.921506
      py      :     0.934644
      dz2     :     0.011587  d :     0.061942
      dxz     :     0.013112
      dyz     :     0.009725
      dx2y2   :     0.009730
      dxy     :     0.017788

  1 C s       :     3.066815  s :     3.066815
      pz      :     1.057575  p :     2.845451
      px      :     0.957314
      py      :     0.830562
      dz2     :     0.012215  d :     0.068221
      dxz     :     0.010952
      dyz     :     0.011248
      dx2y2   :     0.014973
      dxy     :     0.018832

  2 C s       :     3.052894  s :     3.052894
      pz      :     0.814904  p :     2.904908
      px      :     1.037240
      py      :     1.052764
      dz2     :     0.013916  d :     0.061660
      dxz     :     0.018631
      dyz     :     0.013887
      dx2y2   :     0.005604
      dxy     :     0.009622

  3 O s       :     3.790374  s :     3.790374
      pz      :     1.466687  p :     4.641923
      px      :     1.541453
      py      :     1.633784
      dz2     :     0.005571  d :     0.015094
      dxz     :     0.002278
      dyz     :     0.002038
      dx2y2   :     0.000411
      dxy     :     0.004796

  4 O s       :     3.796693  s :     3.796693
      pz      :     1.476433  p :     4.620801
      px      :     1.637040
      py      :     1.507328
      dz2     :     0.003265  d :     0.015589
      dxz     :     0.003550
      dyz     :     0.002809
      dx2y2   :     0.003013
      dxy     :     0.002952

  5 O s       :     3.788830  s :     3.788830
      pz      :     1.826985  p :     4.632086
      px      :     1.596590
      py      :     1.208511
      dz2     :     0.002828  d :     0.015661
      dxz     :     0.002426
      dyz     :     0.000999
      dx2y2   :     0.002812
      dxy     :     0.006596

  6 H s       :     0.923035  s :     0.923035

  7 H s       :     0.904887  s :     0.904887

  8 H s       :     0.921026  s :     0.921026

  9 H s       :     0.938906  s :     0.938906

 10 H s       :     0.911358  s :     0.911358

 11 H s       :     0.691404  s :     0.691404

 12 H s       :     0.700583  s :     0.700583

 13 H s       :     0.701862  s :     0.701862


------------------------
MULLIKEN OVERLAP CHARGES
------------------------
B(  0-C ,  1-C ) :   0.5938 B(  0-C ,  2-C ) :  -0.0893 B(  0-C ,  4-O ) :  -0.0866 
B(  0-C ,  5-O ) :   0.6198 B(  0-C ,  6-H ) :   0.6855 B(  0-C ,  7-H ) :   0.6933 
B(  0-C ,  8-H ) :  -0.0600 B(  0-C , 13-H ) :  -0.0821 B(  1-C ,  2-C ) :   0.5738 
B(  1-C ,  3-O ) :  -0.1344 B(  1-C ,  4-O ) :   0.5531 B(  1-C ,  5-O ) :  -0.1083 
B(  1-C ,  6-H ) :  -0.0663 B(  1-C ,  7-H ) :  -0.0669 B(  1-C ,  8-H ) :   0.6410 
B(  1-C ,  9-H ) :  -0.0510 B(  1-C , 12-H ) :  -0.1262 B(  2-C ,  3-O ) :   0.6523 
B(  2-C ,  4-O ) :  -0.0631 B(  2-C ,  6-H ) :  -0.0647 B(  2-C ,  8-H ) :  -0.0777 
B(  2-C ,  9-H ) :   0.6398 B(  2-C , 10-H ) :   0.7055 B(  2-C , 11-H ) :  -0.0515 
B(  3-O ,  9-H ) :  -0.0753 B(  3-O , 10-H ) :  -0.0638 B(  3-O , 11-H ) :   0.5232 
B(  4-O ,  8-H ) :  -0.0529 B(  4-O , 12-H ) :   0.5459 B(  5-O , 13-H ) :   0.5345 
B(  6-H ,  7-H ) :  -0.0795 B(  9-H , 10-H ) :  -0.0927 


                     *******************************
                     * LOEWDIN POPULATION ANALYSIS *
                     *******************************

----------------------
LOEWDIN ATOMIC CHARGES
----------------------
   0 C :   -0.142142
   1 C :   -0.089647
   2 C :   -0.144184
   3 O :   -0.348428
   4 O :   -0.320978
   5 O :   -0.336859
   6 H :    0.098137
   7 H :    0.115558
   8 H :    0.118259
   9 H :    0.090531
  10 H :    0.104616
  11 H :    0.291706
  12 H :    0.282059
  13 H :    0.281372

-------------------------------
LOEWDIN REDUCED ORBITAL CHARGES
-------------------------------
  0 C s       :     2.927485  s :     2.927485
      pz      :     1.071147  p :     3.072053
      px      :     1.003522
      py      :     0.997385
      dz2     :     0.025369  d :     0.142604
      dxz     :     0.034701
      dyz     :     0.022063
      dx2y2   :     0.019792
      dxy     :     0.040679

  1 C s       :     2.901321  s :     2.901321
      pz      :     1.081182  p :     3.031461
      px      :     1.025629
      py      :     0.924650
      dz2     :     0.028011  d :     0.156865
      dxz     :     0.027336
      dyz     :     0.023861
      dx2y2   :     0.031409
      dxy     :     0.046247

  2 C s       :     2.929332  s :     2.929332
      pz      :     0.903052  p :     3.073363
      px      :     1.074485
      py      :     1.095826
      dz2     :     0.032473  d :     0.141489
      dxz     :     0.041716
      dyz     :     0.030576
      dx2y2   :     0.011200
      dxy     :     0.025524

  3 O s       :     3.539415  s :     3.539415
      pz      :     1.539724  p :     4.782707
      px      :     1.578947
      py      :     1.664035
      dz2     :     0.009818  d :     0.026307
      dxz     :     0.004290
      dyz     :     0.003220
      dx2y2   :     0.000709
      dxy     :     0.008269

  4 O s       :     3.539670  s :     3.539670
      pz      :     1.529365  p :     4.754211
      px      :     1.659224
      py      :     1.565622
      dz2     :     0.005907  d :     0.027097
      dxz     :     0.006221
      dyz     :     0.004612
      dx2y2   :     0.004982
      dxy     :     0.005375

  5 O s       :     3.542009  s :     3.542009
      pz      :     1.843148  p :     4.767675
      px      :     1.638917
      py      :     1.285609
      dz2     :     0.004431  d :     0.027174
      dxz     :     0.003285
      dyz     :     0.002251
      dx2y2   :     0.005026
      dxy     :     0.012181

  6 H s       :     0.901863  s :     0.901863

  7 H s       :     0.884442  s :     0.884442

  8 H s       :     0.881741  s :     0.881741

  9 H s       :     0.909469  s :     0.909469

 10 H s       :     0.895384  s :     0.895384

 11 H s       :     0.708294  s :     0.708294

 12 H s       :     0.717941  s :     0.717941

 13 H s       :     0.718628  s :     0.718628


---------------------------------
LOEWDIN BOND ORDERS (THRESH 0.050000)
---------------------------------
B(  0-C ,  1-C ) :   1.0511 B(  0-C ,  2-C ) :   0.0538 B(  0-C ,  4-O ) :   0.0893 
B(  0-C ,  5-O ) :   1.2404 B(  0-C ,  6-H ) :   0.9078 B(  0-C ,  7-H ) :   0.9108 
B(  1-C ,  2-C ) :   1.0723 B(  1-C ,  3-O ) :   0.0573 B(  1-C ,  4-O ) :   1.2204 
B(  1-C ,  5-O ) :   0.0858 B(  1-C ,  8-H ) :   0.8775 B(  2-C ,  3-O ) :   1.2172 
B(  2-C ,  4-O ) :   0.0766 B(  2-C ,  9-H ) :   0.9030 B(  2-C , 10-H ) :   0.9086 
B(  3-O , 11-H ) :   0.8874 B(  4-O , 12-H ) :   0.8811 B(  5-O , 13-H ) :   0.8917 


------------------------------------------
LOEWDIN REDUCED ORBITAL POPULATIONS PER MO
-------------------------------------------
THRESHOLD FOR PRINTING IS 0.1%%
                      0         1         2         3         4         5   
                 -18.76523 -18.74433 -18.74186  -9.93930  -9.93382  -9.92067
                   2.00000   2.00000   2.00000   2.00000   2.00000   2.00000
                  --------  --------  --------  --------  --------  --------
 0 C  s               0.0       0.0       0.0       0.0       0.0      99.6
 1 C  s               0.0       0.0       0.0       0.0      99.6       0.0
 2 C  s               0.0       0.0       0.0      99.6       0.0       0.0
 3 O  s              99.9       0.0       0.0       0.0       0.0       0.0
 4 O  s               0.0       0.0      99.9       0.0       0.0       0.0
 5 O  s               0.0      99.9       0.0       0.0       0.0       0.0

                      6         7         8         9        10        11   
                  -0.94399  -0.92063  -0.91238  -0.67560  -0.60923  -0.54086
                   2.00000   2.00000   2.00000   2.00000   2.00000   2.00000
                  --------  --------  --------  --------  --------  --------
 0 C  s               1.2       8.1       1.5       7.3      19.6       4.3
 0 C  pz              0.2       1.2       0.1       0.7       0.3       3.6
 0 C  px              0.2       1.2       2.4       2.8       0.0       0.9
 0 C  py              0.0       2.3       2.9       0.6       2.0       0.2
 0 C  dyz             0.0       0.1       0.1       0.0       0.0       0.0
 0 C  dxy             0.0       0.3       0.1       0.0       0.0       0.0
 1 C  s               4.7       3.1       3.9      18.3       0.5       9.4
 1 C  pz              0.5       0.6       0.3       0.1       2.9       5.4
 1 C  px              1.2       0.2       2.0       0.1       9.4       0.3
 1 C  py              0.1       0.9       5.8       5.5       1.1       3.8
 1 C  dyz             0.0       0.0       0.2       0.0       0.0       0.0
 1 C  dx2y2           0.0       0.0       0.1       0.0       0.0       0.0
 1 C  dxy             0.0       0.1       0.2       0.2       0.1       0.0
 2 C  s               9.7       0.6       0.1      15.2      12.8       2.9
 2 C  pz              5.5       1.0       0.4       0.6       1.2       0.4
 2 C  px              0.6       1.0       0.4       3.2       0.0       0.7
 2 C  py              0.1       0.7       1.0       1.4       0.0       1.6
 2 C  dz2             0.2       0.1       0.1       0.1       0.0       0.1
 2 C  dxz             0.2       0.1       0.0       0.0       0.0       0.0
 2 C  dxy             0.0       0.0       0.0       0.0       0.0       0.1
 3 O  s              44.1      10.8       5.2       2.6       1.5       0.4
 3 O  pz              2.1       0.4       0.1       1.7       3.3       3.2
 3 O  px              0.1       0.1       0.1       2.9       2.3       5.0
 3 O  py              0.3       0.1       0.1       1.5       1.6       2.8
 4 O  s              10.2      10.9      36.9       5.5       0.1       0.2
 4 O  pz              0.1       0.1       0.4       1.8       0.0      11.6
 4 O  px              0.0       0.0       0.0       1.5       0.9       7.4
 4 O  py              0.8       0.6       1.7       1.5       0.0       2.5
 5 O  s               1.9      38.1      19.4       2.5       2.1       0.3
 5 O  pz              0.0       0.2       0.1       0.0       0.8       1.2
 5 O  px              0.1       2.1       0.9       0.2       0.4       0.1
 5 O  py              0.0       0.0       0.0       1.8       9.9       5.4
 5 O  dxy             0.0       0.0       0.0       0.0       0.2       0.1
 6 H  s               0.4       0.8       0.2       1.5       4.9       3.0
 7 H  s               0.2       1.1       0.1       1.4       6.8       1.8
 8 H  s               0.6       0.5       0.4       4.2       0.1       7.6
 9 H  s               1.2       0.0       0.0       3.6       4.1       1.1
10 H  s               1.2       0.1       0.0       3.0       4.4       0.7
11 H  s               8.9       2.4       1.2       2.5       2.2       3.4
12 H  s               2.6       2.0       7.2       2.7       0.2       6.2
13 H  s               0.4       7.9       4.0       1.1       3.9       1.7

                     12        13        14        15        16        17   
                  -0.48818  -0.45943  -0.43664  -0.41636  -0.38793  -0.35793
                   2.00000   2.00000   2.00000   2.00000   2.00000   2.00000
                  --------  --------  --------  --------  --------  --------
 0 C  s               0.1       0.5       1.6       0.1       0.1       0.2
 0 C  pz              0.4       0.4      16.3       3.6       5.4       9.3
 0 C  px              8.6      11.9       0.5       0.1       0.3       2.9
 0 C  py              0.2       0.2       2.2       2.1      20.1       1.3
 0 C  dxz             0.0       0.1       0.0       0.0       0.2       0.0
 0 C  dyz             0.0       0.0       0.1       0.0       0.0       0.0
 0 C  dxy             0.0       0.1       0.1       0.0       0.1       0.4
 1 C  s               0.5       0.3       1.3       0.3       0.2       0.3
 1 C  pz              5.7       0.7       3.1       0.0       0.2      24.4
 1 C  px              0.0       2.1       0.8       9.5       7.9       0.4
 1 C  py              0.2       6.6       8.0       2.5       0.2       0.5
 1 C  dz2             0.0       0.1       0.0       0.0       0.1       0.2
 1 C  dx2y2           0.0       0.0       0.1       0.2       0.4       0.0
 1 C  dxy             0.0       0.0       0.0       0.0       0.1       0.2
 2 C  s               2.6       0.1       0.6       0.0       0.0       0.1
 2 C  pz             18.8       4.2       1.8       1.5       0.1       0.0
 2 C  px              1.6       6.4       7.9       2.0      10.0       0.6
 2 C  py              1.6       2.2       1.4      31.3       1.8       0.3
 2 C  dz2             0.3       0.3       0.0       0.1       0.0       0.1
 2 C  dxz             0.0       0.0       0.0       0.2       0.0       0.1
 2 C  dx2y2           0.0       0.0       0.0       0.0       0.2       0.0
 2 C  dxy             0.1       0.0       0.1       0.1       0.0       0.0
 3 O  s               1.6       0.4       1.0       0.1       0.1       2.2
 3 O  pz              0.2       3.7       2.5       5.0       3.0       3.0
 3 O  px             11.7       3.8       0.5       8.2       2.1       2.8
 3 O  py              8.3       8.1       0.3       2.5       3.0       1.9
 4 O  s               0.8       0.1       0.1       1.9       1.2       0.8
 4 O  pz              0.1       8.7       5.0       0.2       8.8       1.1
 4 O  px              0.3       2.2       7.0       4.5       0.2       3.4
 4 O  py              1.3       1.0       1.0       3.6       0.3      13.7
 5 O  s               0.1       1.6       0.2       0.0       0.4       0.2
 5 O  pz              0.3       0.4       1.0       1.4       7.7       1.4
 5 O  px              0.1       1.7       0.2       0.0       2.7       1.3
 5 O  py             11.5      13.1      10.9       0.0       3.3       3.4
 6 H  s               1.0       2.4       6.7       2.3       3.9       3.2
 7 H  s               0.7       0.3       3.0       0.3       5.4       4.4
 8 H  s               0.5       0.0       2.7       0.3       0.9      12.4
 9 H  s               4.6       4.5       0.4       9.1       2.8       0.0
10 H  s               7.3       0.1       4.1       5.0       3.4       0.1
11 H  s               5.1       4.0       0.0       1.0       0.1       1.2
12 H  s               0.1       3.1       3.9       0.5       2.1       0.6
13 H  s               3.2       4.1       3.0       0.1       1.0       0.8

                     18        19        20        21        22        23   
                  -0.35388  -0.30732  -0.27703  -0.27475  -0.24140  -0.23218
                   2.00000   2.00000   2.00000   2.00000   2.00000   2.00000
                  --------  --------  --------  --------  --------  --------
 0 C  s               0.4       0.0       0.6       0.1       0.4       0.1
 0 C  pz              1.0       2.6       1.6       0.6       0.0       0.8
 0 C  px              4.5       0.5       0.8       9.3       0.8       0.3
 0 C  py             10.9       0.0       2.9       1.3       0.1       0.1
 0 C  dz2             0.1       0.0       0.1       0.2       0.2       0.2
 0 C  dxz             0.0       0.0       0.0       0.1       0.3       0.1
 0 C  dyz             0.0       0.0       0.2       0.1       0.0       0.0
 0 C  dx2y2           0.1       0.0       0.0       0.5       0.0       0.0
 0 C  dxy             0.1       0.0       0.4       0.0       0.1       0.0
 1 C  s               0.0       1.2       0.1       0.2       0.4       0.3
 1 C  pz              1.6       2.4       1.4       1.0       0.2       0.2
 1 C  px              7.1       1.2       3.2       0.5       0.0       0.0
 1 C  py              0.4       0.5       6.1       2.2       1.0       0.7
 1 C  dz2             0.0       0.1       0.7       0.0       0.0       0.0
 1 C  dxz             0.0       0.2       0.4       0.1       0.0       0.0
 1 C  dyz             0.2       0.0       0.0       0.1       0.1       0.0
 1 C  dx2y2           0.0       0.0       0.0       0.1       0.3       0.0
 1 C  dxy             0.1       0.0       0.0       0.0       0.4       0.3
 2 C  s               0.2       0.3       0.4       0.1       0.5       0.3
 2 C  pz              0.3       7.5       1.3       0.0       0.2       0.0
 2 C  px             10.9       0.5       3.0       0.0       3.4       0.4
 2 C  py              0.0       0.0       4.3       0.6       0.1       4.6
 2 C  dz2             0.0       0.1       0.1       0.0       0.0       0.1
 2 C  dxz             0.0       0.3       0.0       0.0       0.3       0.7
 2 C  dyz             0.1       0.2       0.0       0.0       0.3       0.7
 2 C  dx2y2           0.2       0.0       0.0       0.1       0.0       0.0
 2 C  dxy             0.0       0.6       0.1       0.0       0.0       0.1
 3 O  s               0.5       6.0       0.5       0.2       0.0       0.0
 3 O  pz              9.0      36.4       0.7       0.3       0.8       0.8
 3 O  px              0.9       1.3       1.3       0.2      15.1      20.5
 3 O  py              0.7      11.0       0.4       0.2      13.2      27.0
 4 O  s               1.1       0.6       4.3       2.0       0.2       0.0
 4 O  pz              0.5       0.3      15.3       0.9       4.9       4.9
 4 O  px              0.0       5.2       2.4       1.5      16.8       6.7
 4 O  py              7.8       2.9      13.9      16.9       5.2       3.3
 5 O  s               3.1       0.1       1.0       6.0       0.1       0.1
 5 O  pz              0.6       2.0       3.0       4.9      27.1      12.2
 5 O  px             22.3       2.7       6.2      32.6       0.6       0.0
 5 O  py              0.0       0.3       0.5       1.5       0.7       0.5
 6 H  s               0.8       0.4       2.8       4.4       2.2       1.9
 7 H  s               6.6       0.1       5.9       5.4       0.1       0.1
 8 H  s               2.6       2.1       8.2       0.2       0.2       0.2
 9 H  s               2.6       1.8       0.6       1.0       0.8       6.9
10 H  s               2.0       5.5       0.4       0.2       2.6       4.3
11 H  s               0.1       2.4       0.6       0.2       0.1       0.0
12 H  s               0.0       0.7       2.9       0.9       0.1       0.2
13 H  s               0.2       0.0       1.0       3.2       0.0       0.1

                     24        25        26        27        28        29   
                  -0.19747   0.00573   0.03226   0.06605   0.07160   0.08733
                   2.00000   0.00000   0.00000   0.00000   0.00000   0.00000
                  --------  --------  --------  --------  --------  --------
 0 C  s               0.6       1.1       0.1       1.0       0.5       7.1
 0 C  pz              5.3       0.6       0.6       1.9       2.0       1.8
 0 C  px              2.2       0.4       2.0       0.4       2.9       0.8
 0 C  py              0.5       0.4       2.1       0.7       0.6       7.8
 0 C  dz2             0.1       0.0       0.1       0.0       0.6       0.0
 0 C  dxz             0.5       0.0       0.1       0.2       0.1       0.1
 0 C  dyz             0.3       0.0       0.2       0.0       0.4       0.0
 0 C  dx2y2           0.1       0.1       0.1       0.0       0.0       0.0
 0 C  dxy             0.1       0.1       0.4       0.2       0.2       0.9
 1 C  s               0.5       0.2       0.2       0.1       2.8       1.1
 1 C  pz              3.3       0.4       0.2       0.1       5.3       0.5
 1 C  px              5.0       0.1       0.6       0.3       2.8       0.5
 1 C  py              0.1       0.3       1.1       2.7       0.5       1.9
 1 C  dz2             0.0       0.0       0.1       0.1       0.7       0.2
 1 C  dxz             0.1       0.2       0.0       0.3       0.0       0.4
 1 C  dyz             0.3       0.2       0.2       0.1       0.2       0.0
 1 C  dx2y2           0.3       0.0       0.0       0.1       0.0       0.9
 1 C  dxy             0.3       0.0       0.3       0.3       0.0       0.4
 2 C  s               0.3       2.1       1.1       0.4       8.5       0.1
 2 C  pz              0.2       6.9       0.0       0.8       2.6       0.5
 2 C  px              1.0       0.5       1.1       0.3       1.3       2.8
 2 C  py              1.8       1.1       1.9       0.9       0.8       4.8
 2 C  dz2             0.0       0.1       0.0       0.0       0.2       0.0
 2 C  dxz             0.1       0.4       0.0       0.1       0.0       0.3
 2 C  dyz             0.0       0.1       0.1       0.0       0.0       0.0
 2 C  dx2y2           0.0       0.0       0.1       0.1       0.0       0.5
 2 C  dxy             0.0       0.2       0.0       0.0       0.1       0.0
 3 O  s               0.0       8.7       2.3       0.4       1.4       0.0
 3 O  pz              0.7       0.5       0.3       0.4       0.8       0.0
 3 O  px              0.1       2.0       1.1       1.4       0.2       1.3
 3 O  py              0.1       1.6       0.5       3.9       0.8       0.1
 3 O  dz2             0.0       0.0       0.0       0.0       0.1       0.0
 4 O  s               0.0       0.7       2.7       7.2       0.8       0.2
 4 O  pz             11.8       0.2       1.4       4.6       0.1       0.4
 4 O  px             22.9       0.5       0.0       1.0       0.1       0.2
 4 O  py              0.4       0.3       0.9       1.1       0.5       2.1
 4 O  dxz             0.0       0.0       0.0       0.1       0.0       0.0
 5 O  s               0.0       1.7       7.4       0.2       1.0       0.3
 5 O  pz             27.7       0.0       0.0       0.2       0.5       0.0
 5 O  px              7.6       0.5       4.1       0.0       0.3       0.2
 5 O  py              1.5       1.6       2.5       1.8       0.1       0.6
 6 H  s               2.2       2.0       0.2       5.4       8.6       4.0
 7 H  s               0.6       0.6       0.0       0.5       0.0      31.6
 8 H  s               0.4       1.2       0.2       1.7      21.5       2.2
 9 H  s               0.3       7.6       5.1       0.6       9.2      10.8
10 H  s               0.6       4.6       0.4       2.6      12.7       9.6
11 H  s               0.1      35.9      11.6      10.9       5.9       1.7
12 H  s               0.0       3.3      11.2      40.4       1.0       0.3
13 H  s               0.0      10.8      35.0       4.5       0.9       0.5

                     30        31        32        33        34        35   
                   0.10286   0.12855   0.13295   0.15527   0.17772   0.18940
                   0.00000   0.00000   0.00000   0.00000   0.00000   0.00000
                  --------  --------  --------  --------  --------  --------
 0 C  s               2.0       2.8       3.8       1.7       0.7       1.3
 0 C  pz              0.6       0.6       6.3       0.3       0.2       4.6
 0 C  px              1.4       2.0       1.6       2.3      15.3       0.5
 0 C  py              0.6       2.3       9.3       1.3       2.5       3.0
 0 C  dz2             0.3       0.0       0.1       0.0       0.8       0.1
 0 C  dxz             0.2       0.1       0.4       0.1       1.9       0.1
 0 C  dyz             0.0       0.1       0.0       0.0       0.2       1.6
 0 C  dx2y2           0.0       0.1       0.0       0.1       0.3       0.8
 0 C  dxy             0.0       0.0       0.5       0.2       0.6       0.7
 1 C  s               1.5       3.3       0.9       4.4       0.0       7.0
 1 C  pz              5.3       3.2       0.9       0.9       1.7       0.3
 1 C  px              2.2       0.2       0.3       0.2       4.4       4.4
 1 C  py              0.7       0.6       0.1       0.9      13.4      15.3
 1 C  dz2             0.2       0.0       0.1       0.0       0.7       2.3
 1 C  dxz             0.1       0.0       0.0       0.9       1.4       0.2
 1 C  dyz             0.2       0.0       0.6       0.5       0.4       0.1
 1 C  dx2y2           0.4       0.1       0.1       0.2       0.2       0.1
 1 C  dxy             0.2       0.4       0.0       0.6       0.8       1.8
 2 C  s               4.6       6.6       1.3       0.3       0.1       3.2
 2 C  pz              0.9       0.8       5.6      22.3       0.2       4.8
 2 C  px              8.0       2.8       2.6       4.6       3.2       6.1
 2 C  py              1.2       4.0       1.2       1.9       0.5      14.3
 2 C  dz2             0.0       0.0       1.1       4.0       0.1       0.1
 2 C  dxz             0.0       0.4       0.6       1.5       0.0       0.0
 2 C  dyz             0.6       0.0       0.0       0.5       0.2       0.2
 2 C  dx2y2           0.3       0.0       0.0       0.1       0.3       0.0
 2 C  dxy             0.0       0.2       0.0       0.0       0.1       6.2
 3 O  s               0.6       0.6       0.4       1.2       0.0       0.4
 3 O  pz              1.0       0.5       4.3       8.0       0.3       0.0
 3 O  px              0.1       0.4       0.3       5.8       0.1       0.3
 3 O  py              0.1       0.0       0.2       2.0       1.0       0.4
 3 O  dz2             0.1       0.0       0.1       0.4       0.0       0.1
 3 O  dxz             0.0       0.2       0.1       0.2       0.0       0.1
 3 O  dyz             0.1       0.0       0.0       0.1       0.0       0.3
 4 O  s               0.0       0.2       0.8       0.2       0.6       0.2
 4 O  pz              0.2       0.1       0.0       1.5       3.8       0.8
 4 O  px              1.4       0.1       0.3       0.7       4.7       0.1
 4 O  py              0.5       0.0       0.1       2.3       1.4       0.2
 4 O  dxz             0.0       0.0       0.1       0.0       0.0       0.1
 4 O  dyz             0.0       0.0       0.0       0.0       0.2       0.0
 4 O  dx2y2           0.1       0.0       0.0       0.1       0.0       0.2
 4 O  dxy             0.0       0.0       0.0       0.0       0.1       0.0
 5 O  s               0.1       1.4       0.8       0.6       0.8       0.1
 5 O  pz              0.3       0.1       1.1       0.0       0.5       0.2
 5 O  px              0.3       0.1       1.2       0.9       0.4       0.7
 5 O  py              0.0       0.9       0.1       0.0       8.4       4.0
 5 O  dxz             0.0       0.0       0.1       0.0       0.0       0.1
 5 O  dyz             0.0       0.0       0.1       0.0       0.1       0.0
 5 O  dx2y2           0.0       0.2       0.1       0.0       0.0       0.0
 5 O  dxy             0.0       0.0       0.0       0.0       0.3       0.1
 6 H  s               0.8       0.5      38.2       4.1       0.0       1.5
 7 H  s               7.3      15.8       5.5       1.6       4.7       0.0
 8 H  s              20.6      14.3       2.6       1.9       4.2       0.8
 9 H  s               0.6      25.7       0.1       1.4       3.4       3.9
10 H  s              30.7       0.4       1.0       4.2       2.0       0.6
11 H  s               0.2       0.1       0.4       8.2       0.2       0.1
12 H  s               3.3       0.3       2.6       3.0       7.2       0.8
13 H  s               0.1       7.5       1.8       1.4       5.2       4.9

                     36        37        38        39        40        41   
                   0.22744   0.24362   0.41782   0.43224   0.45741   0.47220
                   0.00000   0.00000   0.00000   0.00000   0.00000   0.00000
                  --------  --------  --------  --------  --------  --------
 0 C  s               8.9       0.0       6.8       0.7       0.7       6.9
 0 C  pz             19.0       0.3       4.2      10.2       4.4       3.6
 0 C  px              0.5      14.0       4.3       0.7       1.3       8.6
 0 C  py              2.2       7.0       9.3       1.5       0.8      15.7
 0 C  dz2             0.1       0.0       1.9       0.4       0.9       0.0
 0 C  dxz             0.8       1.8       0.1       1.9       0.4       0.0
 0 C  dyz             0.2       1.9       0.0       1.3       0.3       0.2
 0 C  dx2y2           0.1       0.7       0.0       0.0       0.0       0.0
 0 C  dxy             3.7       0.0       1.3       0.0       0.0       0.2
 1 C  s               0.2      14.3       0.1       0.8       5.7       4.8
 1 C  pz              4.1       9.3       1.4       5.7       1.2       1.2
 1 C  px             21.5       0.3       0.1       1.5      11.6       0.2
 1 C  py              0.8       8.3       0.5      10.1       0.4       1.4
 1 C  dz2             0.3       0.2       0.4       1.4       0.5       0.0
 1 C  dxz             1.9       0.0       0.9       0.0       0.0       0.5
 1 C  dyz             0.7       0.5       0.4       0.0       1.0       0.0
 1 C  dx2y2           0.6       0.2       0.6       0.1       0.5       0.1
 1 C  dxy             1.3       1.5       0.0       1.1       0.0       0.3
 2 C  s               1.7       0.7      13.7       0.9       3.8       0.9
 2 C  pz              0.1       7.2      17.1       1.1      16.1       7.5
 2 C  px              2.2       0.7       1.4      10.3       5.1      17.2
 2 C  py              3.8       0.0       2.1      13.8       2.0       3.1
 2 C  dz2             0.3       1.1       0.1       0.0       1.3       0.1
 2 C  dxz             0.0       0.0       1.4       0.2       1.2       0.0
 2 C  dyz             0.0       0.4       0.2       0.1       0.0       0.7
 2 C  dx2y2           1.0       0.4       0.5       0.0       0.1       0.1
 2 C  dxy             1.1       0.6       0.1       2.6       0.0       0.1
 3 O  s               0.0       1.0       0.0       0.2       0.7       0.2
 3 O  pz              0.0       1.3       3.6       0.5       1.3       1.1
 3 O  px              0.4       0.8       1.4       0.4       2.5       1.6
 3 O  py              0.2       0.4       1.1       0.3       0.5       0.5
 3 O  dz2             0.0       0.1       1.2       0.0       0.0       0.7
 3 O  dxz             0.0       0.1       0.5       0.0       0.4       0.5
 3 O  dyz             0.1       0.1       0.3       0.1       0.0       0.1
 3 O  dxy             0.0       0.1       0.0       0.1       1.5       0.3
 4 O  s               0.4       3.7       0.1       0.3       0.3       0.1
 4 O  pz              1.5       0.8       0.2       1.5       2.0       0.2
 4 O  px              1.6       1.9       0.0       0.4       1.1       0.2
 4 O  py              0.4       5.4       0.2       1.7       0.4       0.4
 4 O  dz2             0.2       0.2       0.0       0.3       0.8       0.0
 4 O  dxz             0.0       0.2       0.0       0.2       0.2       0.1
 4 O  dyz             0.2       0.0       0.0       0.3       0.4       0.2
 4 O  dx2y2           0.2       0.2       0.0       0.2       0.1       0.0
 4 O  dxy             0.0       0.6       0.0       0.1       0.1       0.1
 5 O  s               1.2       2.2       0.5       0.2       0.1       0.1
 5 O  pz              0.1       3.9       0.2       0.4       1.1       0.4
 5 O  px              2.7       0.5       0.2       0.5       0.1       0.5
 5 O  py              4.6       0.8       0.7       1.3       0.2       2.8
 5 O  dz2             0.3       0.0       0.0       0.1       0.0       0.0
 5 O  dxz             0.1       0.1       0.0       0.0       0.0       0.1
 5 O  dyz             0.0       0.3       0.1       0.1       0.1       0.3
 5 O  dx2y2           0.0       0.1       0.0       0.2       0.0       0.0
 5 O  dxy             0.4       0.0       0.4       0.5       0.1       1.7
 6 H  s               1.9       0.1       0.7       7.8       4.3       0.5
 7 H  s               2.6       1.2       7.2       1.6       1.2       0.6
 8 H  s               0.5       0.2       1.8       2.0       1.0       4.2
 9 H  s               0.0       0.5       0.1       2.7       1.7       2.5
10 H  s               1.8       0.5       8.0       0.5       1.0       0.0
11 H  s               0.2       0.5       1.4       0.6       8.8       3.8
12 H  s               0.1       0.4       0.4       4.9       8.3       0.4
13 H  s               1.0       0.2       0.9       3.7       0.2       2.7

                     42        43        44        45        46        47   
                   0.48192   0.50718   0.52625   0.56904   0.59457   0.60331
                   0.00000   0.00000   0.00000   0.00000   0.00000   0.00000
                  --------  --------  --------  --------  --------  --------
 0 C  s               0.3       2.1       0.2       3.0       0.7       8.7
 0 C  pz              6.6       1.7       3.2       8.2       7.5       0.3
 0 C  px             16.9       4.7      18.6       0.4       2.2       1.5
 0 C  py              6.3       0.8       4.3       0.3       2.9       0.5
 0 C  dz2             0.0       0.2       0.0       0.2       2.3       0.2
 0 C  dxz             1.4       1.0       0.1       0.1       0.0       0.2
 0 C  dyz             0.1       0.1       0.5       0.0       0.0       0.0
 0 C  dx2y2           0.2       0.6       0.6       0.6       0.3       0.5
 0 C  dxy             0.3       0.2       0.0       0.0       1.1       0.0
 1 C  s               2.7       1.8       0.1       0.7       0.9       1.3
 1 C  pz              1.8       2.3       0.8       5.4       1.7       2.2
 1 C  px              7.5       0.6       9.3       9.2       2.0       8.3
 1 C  py             13.5       8.2      21.0       6.3       0.6       0.3
 1 C  dz2             0.0       0.6       0.2       0.0       0.2       1.0
 1 C  dxz             1.2       1.0       0.3       0.5       1.1       0.9
 1 C  dyz             0.2       0.0       0.0       0.0       0.0       0.7
 1 C  dx2y2           0.1       0.7       0.0       0.0       0.0       0.0
 1 C  dxy             0.2       0.5       0.0       0.0       0.4       0.1
 2 C  s               0.8       1.2       0.2       0.7       2.3       1.3
 2 C  pz              6.8       2.1       0.2       1.1       2.1       0.6
 2 C  px              0.7       0.7       8.8       2.8       1.1       1.9
 2 C  py              1.6       4.0       6.7      13.9       7.7       0.8
 2 C  dz2             0.6       0.1       0.0       0.0       0.1       0.3
 2 C  dxz             0.9       0.0       0.2       0.0       1.7       0.2
 2 C  dyz             0.0       2.1       0.0       0.5       1.6       0.0
 2 C  dx2y2           0.8       0.4       0.2       0.0       0.3       0.2
 2 C  dxy             0.4       1.3       0.0       0.0       0.1       0.1
 3 O  s               0.1       0.5       0.1       0.1       0.1       0.9
 3 O  pz              0.2       0.9       0.7       0.7       0.6       3.7
 3 O  px              0.7       3.3       0.0       0.3       0.4       1.5
 3 O  py              0.1       1.6       0.2       0.6       4.1       2.1
 3 O  dz2             0.0       0.5       0.0       0.0       0.2       0.2
 3 O  dxz             0.0       0.0       0.0       0.0       0.0       0.1
 3 O  dxy             0.1       2.3       0.0       0.1       0.1       0.5
 4 O  s               0.1       0.4       0.1       0.7       0.9       0.5
 4 O  pz              1.5       0.2       0.3       0.8       0.0       1.6
 4 O  px              3.5       1.6       0.0       0.4       0.3       0.2
 4 O  py              0.9       1.2       0.9       0.9       0.1       0.1
 4 O  dz2             0.4       0.1       0.0       0.0       0.1       0.0
 4 O  dxz             0.1       0.2       0.5       0.4       0.2       0.1
 4 O  dyz             0.2       0.0       0.1       0.2       0.0       0.1
 4 O  dx2y2           0.1       0.1       0.0       0.0       0.0       0.0
 4 O  dxy             1.0       0.0       0.1       0.2       0.0       0.0
 5 O  s               0.1       1.0       0.1       0.8       0.0       0.4
 5 O  pz              1.5       0.6       0.2       0.5       0.2       0.7
 5 O  px              1.4       0.2       1.0       2.4       0.2       0.9
 5 O  py              0.6       1.3       0.5       1.8       0.6       0.7
 5 O  dz2             0.1       0.2       0.5       0.6       0.0       0.5
 5 O  dxz             0.0       0.2       0.1       0.0       0.0       0.0
 5 O  dyz             0.0       0.1       0.1       0.0       0.1       0.0
 5 O  dx2y2           0.0       0.2       0.6       0.4       0.1       0.3
 5 O  dxy             0.3       0.6       0.1       0.8       0.0       0.3
 6 H  s               2.3       2.9       2.6       0.3       2.7       1.0
 7 H  s               0.7       0.1       0.5       2.0      16.0       1.9
 8 H  s               0.1       3.2       0.3       1.2       5.3      18.2
 9 H  s               5.2       8.6       1.9       3.0       2.1       0.4
10 H  s               2.5       0.0       0.6       1.1      19.0       7.3
11 H  s               0.8      22.1       0.4       0.4       3.4      11.5
12 H  s               3.3       0.9       2.1       6.8       1.8       1.5
13 H  s               0.0       6.1       9.7      18.3       0.3      10.8

                     48        49        50        51        52        53   
                   0.61755   0.62881   0.64863   0.65114   0.66146   0.67079
                   0.00000   0.00000   0.00000   0.00000   0.00000   0.00000
                  --------  --------  --------  --------  --------  --------
 0 C  s               4.8      14.6       8.0       0.1       0.5      12.6
 0 C  pz              0.1       6.1       4.5       5.0       3.2       0.5
 0 C  px              0.6       0.4       2.0       0.1       0.6       9.4
 0 C  py              3.2       1.7       1.0       0.1       0.1      25.7
 0 C  dz2             0.0       0.3       0.2       0.1       0.3       0.1
 0 C  dxz             0.0       0.4       0.0       0.0       0.2       0.1
 0 C  dyz             0.1       0.0       0.0       0.2       0.2       0.3
 0 C  dx2y2           0.5       0.0       0.2       0.0       0.0       0.0
 0 C  dxy             0.2       0.3       0.0       0.0       0.1       0.0
 1 C  s              10.3      11.9       4.5       2.2       5.4       0.4
 1 C  pz              0.0       4.3       0.0       1.4       7.2       8.3
 1 C  px              7.1       0.6       1.6      15.1       2.0       0.1
 1 C  py              8.6       0.2       0.7       0.3       2.0       1.7
 1 C  dz2             0.1       0.2       0.0       0.3       0.0       0.0
 1 C  dxz             0.2       0.4       0.0       0.0       0.0       0.1
 1 C  dx2y2           0.1       0.0       0.0       0.1       0.0       0.0
 2 C  s               2.1       8.0      25.5       8.8       2.3       1.5
 2 C  pz              4.0       5.3       9.4       5.1       4.5       0.6
 2 C  px              1.3       0.4       0.6      22.3       0.8       0.8
 2 C  py              0.7       6.2       3.0       9.1       6.7       0.1
 2 C  dz2             0.2       0.0       0.0       0.1       0.0       0.0
 2 C  dxz             0.1       0.0       0.4       0.1       0.5       0.5
 2 C  dyz             0.0       0.2       0.2       0.3       0.0       0.3
 2 C  dxy             0.2       0.1       0.0       0.0       0.2       0.1
 3 O  s               0.1       0.9       0.3       1.0       2.6       0.3
 3 O  pz              0.0       0.4       0.3       0.0       0.0       0.8
 3 O  px              0.1       0.1       0.5       0.8       0.0       0.1
 3 O  py              0.2       0.1       1.9       1.6       1.4       0.2
 3 O  dz2             0.0       0.0       0.1       0.0       0.0       0.0
 3 O  dxz             0.0       0.0       0.0       0.0       0.1       0.1
 3 O  dxy             0.0       0.0       0.6       0.1       0.0       0.0
 4 O  s               0.2       1.4       1.3       0.1       0.9       0.0
 4 O  pz              1.9       0.3       1.5       0.8       0.0       0.2
 4 O  px              1.9       0.1       1.1       1.2       0.4       1.2
 4 O  py              7.1       0.3       2.4       1.0       2.9       0.1
 4 O  dz2             0.4       0.1       0.1       0.0       0.0       0.0
 4 O  dxz             1.7       0.0       0.2       0.2       0.0       0.3
 4 O  dx2y2           0.0       0.0       0.2       0.0       0.1       0.0
 4 O  dxy             0.0       0.0       0.0       0.2       0.1       0.0
 5 O  s               0.5       0.5       0.8       0.0       1.0       1.8
 5 O  pz              1.2       0.7       0.0       0.0       0.0       0.0
 5 O  px              0.4       0.1       1.2       2.3       4.7       0.3
 5 O  py              0.5       0.4       0.5       0.1       0.2       0.9
 5 O  dz2             0.3       0.0       0.0       0.0       0.0       0.0
 5 O  dxz             0.0       0.1       0.0       0.0       0.0       0.0
 5 O  dx2y2           0.2       0.0       0.0       0.0       0.0       0.2
 5 O  dxy             0.0       0.0       0.0       0.0       0.2       0.2
 6 H  s               1.8       9.7       1.4       0.2      14.4       6.8
 7 H  s               4.7       3.2       0.0       0.3       5.6       7.0
 8 H  s               4.6       6.1       1.3       0.1       2.9       4.3
 9 H  s               0.1       9.7       7.5       7.4       9.5       0.5
10 H  s               0.2       1.4       0.1       7.0      10.3       6.5
11 H  s               0.3       0.7       8.5       2.3       0.5       0.2
12 H  s              23.2       1.3       5.4       1.0       0.9       1.7
13 H  s               3.5       0.4       0.6       1.2       4.1       3.2

                     54        55        56        57        58        59   
                   0.68629   0.70350   0.81767   0.88527   0.94185   0.97498
                   0.00000   0.00000   0.00000   0.00000   0.00000   0.00000
                  --------  --------  --------  --------  --------  --------
 0 C  s               1.4       2.0       6.8       8.6       0.9       0.9
 0 C  pz             17.6       4.8       0.0       1.9       0.1       0.6
 0 C  px              0.9       2.9       0.0       9.2       0.2       1.0
 0 C  py              3.8       5.3       1.0       6.6       0.5       1.9
 0 C  dz2             0.5       0.0       0.1       0.4       0.0       0.4
 0 C  dxz             0.3       0.5       0.1       0.3       0.0       0.1
 0 C  dyz             0.0       0.0       0.4       0.0       0.0       1.1
 0 C  dx2y2           1.0       0.3       0.3       2.2       0.1       0.3
 0 C  dxy             0.5       0.0       0.5       0.0       0.0       0.1
 1 C  s               5.4       0.8      18.9       0.4       0.0       0.5
 1 C  pz              4.5      29.4       0.9       1.6       3.5       0.1
 1 C  px              3.0       5.2       0.1       0.0       0.1       0.9
 1 C  py              4.3       1.1       2.0       0.0       0.2       0.1
 1 C  dz2             0.4       0.5       0.3       0.2       0.0       0.0
 1 C  dxz             0.0       0.3       0.2       0.2       0.9       0.0
 1 C  dyz             0.0       0.0       0.1       0.0       0.3       0.0
 1 C  dx2y2           0.0       0.0       0.3       0.0       0.4       0.2
 1 C  dxy             0.3       0.0       0.6       0.1       0.1       0.0
 2 C  s               3.2       1.8       3.3      14.6       0.8       0.2
 2 C  pz              1.6       1.5       0.5       1.2       0.4       0.0
 2 C  px              3.5       0.2       0.0       9.3       0.2       1.3
 2 C  py              6.1       0.0       0.6       2.1       1.3       1.4
 2 C  dz2             0.1       0.2       0.0       0.6       0.0       0.0
 2 C  dxz             0.1       0.1       0.1       0.1       0.0       0.3
 2 C  dyz             0.4       0.3       0.2       0.5       0.1       0.1
 2 C  dx2y2           0.1       0.0       0.3       0.0       0.2       0.0
 2 C  dxy             0.5       0.0       0.1       0.0       0.3       0.0
 3 O  s               0.5       0.0       0.8      10.8       8.0       1.0
 3 O  pz              0.5       1.9       1.2       3.3      23.5       2.1
 3 O  px              2.1       4.1       0.1       1.7      14.3       1.3
 3 O  py              1.0       5.2       5.4       1.5       8.5       6.1
 3 O  dz2             0.0       0.0       0.0       0.2       0.3       0.1
 3 O  dxz             0.0       0.0       0.0       0.1       0.2       0.1
 3 O  dyz             0.0       0.0       0.0       0.1       0.1       0.3
 3 O  dxy             0.0       0.0       0.1       0.1       0.0       0.0
 4 O  s               0.2       0.4       4.6       0.1       7.6       3.2
 4 O  pz              0.6       0.6      14.4       1.3       2.7       0.1
 4 O  px              0.1       0.1       0.1       0.6       9.9       1.5
 4 O  py              0.5       0.3       9.5       0.0       6.8       6.5
 4 O  dz2             0.3       0.0       0.0       0.3       0.5       0.0
 4 O  dxz             0.0       0.4       0.0       0.0       0.2       0.1
 4 O  dx2y2           0.0       0.1       0.2       0.0       0.1       0.0
[...]
 0 C  dyz             0.0       0.1       2.7       0.4       0.0       0.4
 0 C  dx2y2           0.0       0.4       2.0       0.9       0.1       0.0
 0 C  dxy             0.0       0.1       1.5       0.1       0.0       0.5
 1 C  s               0.0       0.0       0.2       0.1       0.2       0.0
 1 C  pz              0.8       0.2       0.2       0.0       0.1       0.1
 1 C  px              0.2       0.0       0.0       0.1       0.0       0.2
 1 C  py              0.0       0.1       0.2       0.0       0.1       0.1
 1 C  dz2             1.4       1.2       0.3       0.0       0.0       0.0
 1 C  dxz             2.4       1.9       1.0       0.6       0.5       0.4
 1 C  dyz             3.2       0.1       1.3       0.8       0.0       0.0
 1 C  dx2y2           1.4       0.6       0.9       2.4       0.1       5.1
 1 C  dxy             0.1       0.5       1.7       1.3       0.1       0.6
 2 C  pz              0.0       0.0       0.0       0.0       0.2       0.0
 2 C  px              0.0       0.2       0.0       0.1       0.0       0.1
 2 C  py              0.2       0.2       0.1       0.0       0.1       0.0
 2 C  dz2             0.3       0.2       0.7       0.5       1.8       0.0
 2 C  dxz             0.2       1.4       0.7       0.1       0.2       0.1
 2 C  dyz             1.0       6.4       0.4       0.2       1.3       0.0
 2 C  dx2y2           1.0       0.7       0.5       0.7       0.0       0.9
 2 C  dxy             0.1       2.2       0.4       0.8       0.0       0.2
 3 O  s               0.0       0.1       0.0       0.0       3.0       0.2
 3 O  pz              0.0       0.0       0.0       0.0       0.2       0.0
 3 O  px              0.0       0.1       0.0       0.1       0.3       0.0
 3 O  py              0.4       0.6       0.1       0.0       0.2       0.0
 3 O  dz2             0.0       0.0       2.1       0.6       7.8       0.2
 3 O  dxz             5.9       9.1       5.2       1.2       1.3       0.0
 3 O  dyz            11.0      41.5       1.9       0.4       1.6       0.0
 3 O  dx2y2           2.5       6.8       1.3       0.2       0.4       0.0
 3 O  dxy             0.4       0.0       0.4       0.0      64.4       2.3
 4 O  s               0.6       0.0       0.3       0.0       0.4       1.3
 4 O  pz              1.0       0.3       0.0       0.0       0.1       0.7
 4 O  px              0.2       0.1       0.1       0.1       0.2       0.0
 4 O  py              0.3       0.0       0.2       0.0       0.1       0.1
 4 O  dz2             4.0       0.1       1.8       0.0       0.8       6.5
 4 O  dxz             0.2       0.8       6.1       2.8       4.3      46.5
 4 O  dyz            39.1       9.9       2.8       0.9       0.5       3.4
 4 O  dx2y2          14.0       8.7       7.9       7.1       0.4       4.4
 4 O  dxy             0.1       0.0       0.5       8.0       1.4       5.2
 5 O  s               0.1       0.0       0.0       1.9       0.0       0.4
 5 O  pz              0.1       0.0       0.4       0.0       0.0       0.0
 5 O  px              0.0       0.1       0.1       0.7       0.0       0.1
 5 O  py              0.0       0.0       0.0       0.2       0.0       0.1
 5 O  dz2             0.4       3.1      14.9      39.3       0.0       8.0
 5 O  dxz             2.3       0.0       7.2       0.0       0.2       0.0
 5 O  dyz             2.4       0.6      18.4       0.1       0.0       0.0
 5 O  dx2y2           0.0       0.7       3.7      17.2       0.0       2.6
 5 O  dxy             0.6       0.0       2.8       3.0       0.0       1.9
 9 H  s               0.0       0.1       0.0       0.0       0.0       0.0
11 H  s               0.2       0.1       0.1       0.0       6.0       0.2
12 H  s               0.4       0.2       0.4       0.2       0.7       5.0
13 H  s               0.1       0.0       0.0       4.4       0.0       1.0

                     96        97        98        99   
                   2.94837   3.24818   3.27938   3.31151
                   0.00000   0.00000   0.00000   0.00000
                  --------  --------  --------  --------
 0 C  s               0.0       0.4       2.0       0.3
 0 C  pz              0.3       0.0       0.3       0.1
 0 C  px              0.1       0.2       1.1       0.4
 0 C  py              0.1       0.2       1.1       0.4
 0 C  dz2             3.0       0.2       1.3       0.0
 0 C  dxz             0.0       0.3       1.2       0.6
 0 C  dyz             1.7       0.4       0.8       1.1
 0 C  dx2y2           0.3       0.0       0.0       0.1
 0 C  dxy             0.9       0.5       5.9       0.4
 1 C  s               0.1       0.2       0.6       1.6
 1 C  pz              0.4       0.2       0.0       0.2
 1 C  px              0.1       0.2       0.1       0.6
 1 C  py              0.0       0.1       0.3       2.7
 1 C  dz2             1.3       0.1       1.3       0.9
 1 C  dxz             0.4       0.1       0.1       0.6
 1 C  dyz             3.7       0.0       0.0       2.6
 1 C  dx2y2           1.1       0.0       0.1       2.2
 1 C  dxy             3.9       0.3       1.7       4.3
 2 C  s               0.1       1.8       0.2       0.1
 2 C  pz              0.0       2.6       0.3       0.0
 2 C  px              0.0       0.7       0.0       0.1
 2 C  py              0.0       0.3       0.0       0.1
 2 C  dz2             0.6       5.6       0.6       0.1
 2 C  dxz             0.2       3.4       0.5       0.3
 2 C  dyz             0.2       1.1       0.1       0.1
 2 C  dx2y2           0.2       0.1       0.0       0.1
 2 C  dxy             1.0       0.0       0.1       0.0
 3 O  s               0.0       3.3       0.5       0.0
 3 O  pz              0.0       2.3       0.3       0.1
 3 O  px              0.1       1.4       0.1       0.0
 3 O  py              0.0       0.8       0.0       0.0
 3 O  dz2             0.7      33.7       3.2       1.4
 3 O  dxz             1.2      21.8       2.4       0.2
 3 O  dyz             0.6       7.0       0.6       0.1
 3 O  dx2y2           0.0       0.3       0.0       0.1
 3 O  dxy             0.4       0.2       0.1       0.2
 4 O  s               0.1       0.1       0.6       3.9
 4 O  pz              0.0       0.0       0.3       0.8
 4 O  px              0.6       0.0       0.1       1.1
 4 O  py              0.0       0.0       0.4       1.9
 4 O  dz2             8.5       0.1       1.3      10.8
 4 O  dxz             8.4       0.0       0.4       1.0
 4 O  dyz             5.1       0.1       4.9       8.5
 4 O  dx2y2           4.7       0.1       4.8      11.2
 4 O  dxy            11.4       0.0       1.9      24.9
 5 O  s               0.1       0.3       2.6       0.9
 5 O  pz              0.1       0.0       0.4       0.0
 5 O  px              0.0       0.1       0.6       0.2
 5 O  py              0.4       0.4       2.3       0.5
 5 O  dz2             0.0       0.5       1.7       2.1
 5 O  dxz             3.3       1.2       9.1       0.7
 5 O  dyz             5.0       1.2      11.0       0.6
 5 O  dx2y2          10.4       0.0       0.1       0.1
 5 O  dxy            16.1       5.6      29.4       7.9
11 H  s               0.0       0.8       0.0       0.1
12 H  s               1.0       0.0       0.1       0.6
13 H  s               1.8       0.1       0.6       0.1


                      *****************************
                      * MAYER POPULATION ANALYSIS *
                      *****************************

  NA   - Mulliken gross atomic population
  ZA   - Total nuclear charge
  QA   - Mulliken gross atomic charge
  VA   - Mayer's total valence
  BVA  - Mayer's bonded valence
  FA   - Mayer's free valence

  ATOM       NA         ZA         QA         VA         BVA        FA
  0 C      5.9899     6.0000     0.0101     3.9722     3.9722     0.0000
  1 C      5.9805     6.0000     0.0195     4.0537     4.0537     0.0000
  2 C      6.0195     6.0000    -0.0195     3.9896     3.9896    -0.0000
  3 O      8.4474     8.0000    -0.4474     1.9995     1.9995    -0.0000
  4 O      8.4331     8.0000    -0.4331     1.9936     1.9936     0.0000
  5 O      8.4366     8.0000    -0.4366     2.0059     2.0059    -0.0000
  6 H      0.9230     1.0000     0.0770     0.9786     0.9786     0.0000
  7 H      0.9049     1.0000     0.0951     0.9638     0.9638     0.0000
  8 H      0.9210     1.0000     0.0790     0.9612     0.9612     0.0000
  9 H      0.9389     1.0000     0.0611     0.9619     0.9619    -0.0000
 10 H      0.9114     1.0000     0.0886     0.9574     0.9574     0.0000
 11 H      0.6914     1.0000     0.3086     0.8753     0.8753     0.0000
 12 H      0.7006     1.0000     0.2994     0.8977     0.8977     0.0000
 13 H      0.7019     1.0000     0.2981     0.8848     0.8848    -0.0000

  Mayer bond orders larger than 0.100000
B(  0-C ,  1-C ) :   1.0230 B(  0-C ,  5-O ) :   1.0653 B(  0-C ,  6-H ) :   0.9155 
B(  0-C ,  7-H ) :   0.9274 B(  1-C ,  2-C ) :   1.0572 B(  1-C ,  4-O ) :   1.0267 
B(  1-C ,  8-H ) :   0.8968 B(  2-C ,  3-O ) :   1.0571 B(  2-C ,  9-H ) :   0.9065 
B(  2-C , 10-H ) :   0.9177 B(  3-O , 11-H ) :   0.8486 B(  4-O , 12-H ) :   0.8448 
B(  5-O , 13-H ) :   0.8521 

-------
TIMINGS
-------

Total SCF time: 0 days 0 hours 0 min 4 sec 

Total time                  ....       4.631 sec
Sum of individual times     ....       4.213 sec  ( 91.0%)

SCF preparation             ....       0.150 sec  (  3.2%)
Fock matrix formation       ....       3.495 sec  ( 75.5%)
  Startup                   ....       0.046 sec  (  1.3% of F)
  Split-RI-J                ....       0.975 sec  ( 27.9% of F)
  XC integration            ....       2.014 sec  ( 57.6% of F)
    Basis function eval.    ....       0.694 sec  ( 34.5% of XC)
    Density eval.           ....       0.222 sec  ( 11.0% of XC)
    XC-Functional eval.     ....       0.215 sec  ( 10.7% of XC)
    XC-Potential eval.      ....       0.390 sec  ( 19.4% of XC)
Diagonalization             ....       0.000 sec  (  0.0%)
Density matrix formation    ....       0.142 sec  (  3.1%)
Total Energy calculation    ....       0.026 sec  (  0.6%)
Population analysis         ....       0.053 sec  (  1.1%)
Orbital Transformation      ....       0.049 sec  (  1.1%)
Orbital Orthonormalization  ....       0.000 sec  (  0.0%)
DIIS solution               ....       0.235 sec  (  5.1%)
  MO trafo                  ....       0.000 sec  (  0.0 % of DIIS)
  Orb grad                  ....       0.000 sec  (  0.0 % of DIIS)
  Energy W gradient         ....       0.000 sec  (  0.0 % of DIIS)
  DIIS error                ....       0.001 sec  (  0.6 % of DIIS)
  DIIS work                 ....       0.189 sec  ( 80.5 % of DIIS)
  Form Q                    ....       0.000 sec  (  0.0 % of DIIS)
  Form QpQm                 ....       0.000 sec  (  0.0 % of DIIS)
  Exp/Cayley                ....       0.000 sec  (  0.0 % of DIIS)
  Orb update                ....       0.000 sec  (  0.0 % of DIIS)
  Wake-sleep                ....       0.015 sec  (  6.3 % of DIIS)
SOSCF solution              ....       0.062 sec  (  1.3%)
  MO trafo                  ....       0.033 sec  ( 52.4 % of SOSCF)
  Orb grad                  ....       0.002 sec  (  3.3 % of SOSCF)
  Rot update                ....       0.011 sec  ( 17.5 % of SOSCF)
  Step                      ....       0.017 sec  ( 26.7 % of SOSCF)
Finished LeanSCF after   4.7 sec

Maximum memory used throughout the entire LEANSCF-calculation: 9.4 MB


-------------------------------------------------------------------------------
                          DFT DISPERSION CORRECTION                            
                                                                               
                                DFTD4 V3.4.0                                   
-------------------------------------------------------------------------------
The PBE functional is recognized
Active option DFTDOPT                   ...         5   

-------------------------   ----------------
Dispersion correction           -0.009286146
-------------------------   ----------------

------------------   -----------------
gCP correction             0.082797268
------------------   -----------------

-------------------------   --------------------
FINAL SINGLE POINT ENERGY      -344.007939315155
-------------------------   --------------------


------------------------------------------------------------------------------
                              ORCA PROPERTY CALCULATIONS
------------------------------------------------------------------------------

GBWName                                 ... sp.gbw
Number of atoms                         ...     14
Number of basis functions               ...    100
Max core memory                         ...   1024 MB

Electric properties:
Dipole moment                           ... YES
Quadrupole moment                       ...  NO
Static polarizability (Dipole/Dipole)   ...  NO
Static polarizability (Dipole/Quad.)    ...  NO
Static polarizability (Quad./Quad.)     ...  NO
Static polarizability (Velocity)        ...  NO

Atomic electric properties:
Dipole moment                           ...  NO
Quadrupole moment                       ...  NO
Static polarizability                   ...  NO

Choice of electric origin               ... Center of mass
Position of electric origin             ...    -0.000000    -0.000002     0.000009

General magnetic properties:
Magnetizability                         ...  NO

EPR properties:
g-Tensor (aka g-matrix)                 ...  NO
Zero-Field splitting spin-orbit         ...  NO
Zero-field splitting spin-spin          ...  NO
Hyperfine couplings                     ...  NO (   0 nuclei)
Quadrupole couplings                    ...  NO (   0 nuclei)
Contact density                         ...  NO (   0 nuclei)

NMR properties:
Chemical shifts                         ...  NO (   0 nuclei)
Spin-rotation constants                 ...  NO (   0 nuclei)
Spin-spin couplings                     ...  NO (   0 nuclei,    0 pairs)

Choice of magnetic origin               ... GIAO
Position of magnetic origin             ...     0.000000     0.000000     0.000000

Properties with geometric perturbations:
SCF Hessian                             ...  NO
IR spectrum                             ...  NO
VCD spectrum                            ...  NO
X-ray spectroscopy properties:
SCF XES/XAS/RIXS spectra                ...  NO


-------------
DIPOLE MOMENT
-------------

Method             : SCF
Type of density    : Electron Density
Multiplicity       :   1
Irrep              :   0
Energy             :  -344.0814504371653015 Eh
Relativity type    : 
Basis              : AO
                                X                 Y                 Z
Electronic contribution:     -0.026795669       0.641562507      -0.555947377
Nuclear contribution   :      1.001408263      -1.661033457       0.498250020
                        -----------------------------------------
Total Dipole Moment    :      0.974612594      -1.019470950      -0.057697357
                        -----------------------------------------
Magnitude (a.u.)       :      1.411566403
Magnitude (Debye)      :      3.587916661



--------------------
Rotational spectrum 
--------------------
 
Rotational constants in cm-1:             0.147187             0.093204             0.068705 
Rotational constants in MHz :          4412.565198          2794.178365          2059.720889 

Dipole components along the rotational axes: 
x,y,z [a.u.] :     0.814739    -1.151729     0.047350 
x,y,z [Debye]:     2.070901    -2.927461     0.120353 

 

Dipole moment calculation done in   0.0 sec 

Maximum memory used throughout the entire PROP-calculation: 6.1 MB

--------------------------------
SUGGESTED CITATIONS FOR THIS RUN
--------------------------------

Below you find a list of papers that are relevant to this ORCA run
We neither can nor want to force you to cite these papers, but we appreciate if you do
You receive ORCA, which is the product of decades of hard work by many enthusiastic individuals, for free
The only thing we kindly ask in return is that you cite our papers,
We deeply appreciate it, if you show your appreciation for ORCA by not just citing the generic ORCA reference.

Please note that relegating all ORCA citations to the supporting information does *not* help us.
SI sections are not indexed - citations you put there will not count into any citation statistics
But we need these citations in order to attract the funding resources that allow us to do what we are doing

Therefore, if you are a happy ORCA user, please consider citing a few of the papers listed below in the main body of your paper

In addition to the list printed below, the program has created the file sp.bibtex that contains the list in bibtex format
You can import this file easily into all common literature databanks and citation aid programs


List of essential papers. We consider these as the minimum necessary citations

  1. Neese,F.
     Software update: the ORCA program system, version 5.0
     WIRES Comput. Molec. Sci., 2022 12(1)e1606
     doi.org/10.1002/wcms.1606

List of papers to cite with high priority. The work reported in these papers was absolutely
necessary for this run to complete.
Our perspective: the developers of density functionals and basis sets usually get cited in chemistry papers
Good! But without the algorithms to do something with them, the functionals or basis sets would not do anything.
Hence, in our opinion, the algorithm design and method developments papers are equally worthy of getting cited

  1. Neese,F.
     An improvement of the resolution of the identity approximation for the formation of the Coulomb matrix
     J. Comp. Chem., 2003 24(14)1740-1747
     doi.org/10.1002/jcc.10318
  2. Neese,F.
     The SHARK Integral Generation and Digestion System
     J. Comp. Chem., 2022  1-16
     doi.org/10.1002/jcc.26942
  3. Caldeweyher,E.; Bannwarth,C.; Grimme,S.
     Extension of the D3 dispersion coefficient model
     J. Chem. Phys., 2017 147 034112-XXXX
     doi.org/10.1063/1.4993215
  4. Caldeweyher,E.; Ehlert,S.; Hansen,A.; Neugebauer,H.; Spicher,S.; Bannwarth,C.; Grimme,S.
     A generally applicable atomic-charge dependent London dispersion correction
     J. Chem. Phys., 2019 150 154122-XXXX
     doi.org/10.1063/1.5090222
  5. Caldeweyher,E.; Mewes,J.; Ehlert,S.; Grimme,S.
     Extension and evaluation of the D4 London-dispersion model for periodic systems
     Phys. Chem. Chem. Phys., 2020 22(16)8499-8512
     doi.org/10.1039/D0CP00502A

List of suggested additional citations. These are papers that are important in the 'surrounding' of 
of this run, or papers that preceded the highly important papers. If you like your results we are grateful for a citation.

  1. Neese,F.
     The ORCA program system
     WIRES Comput. Molec. Sci., 2012 2(1)73-78
     doi.org/10.1002/wcms.81
  2. Neese,F.
     Software update: the ORCA program system, version 4.0
     WIRES Comput. Molec. Sci., 2018 8(1)1-6
     doi.org/10.1002/wcms.1327
  3. Neese,F.; Wennmohs,F.; Becker,U.; Riplinger,C.
     The ORCA quantum chemistry program package
     J. Chem. Phys., 2020 152 Art. No. L224108
     doi.org/10.1063/5.0004608

List of optional additional citations

  1. Neese,F.
     Approximate second-order SCF convergence for spin unrestricted wavefunctions
     Chem. Phys. Lett., 2000 325(1-3)93-98
     doi.org/10.1016/s0009-2614(00)00662-x

Timings for individual modules:

Sum of individual times          ...        5.938 sec (=   0.099 min)
Startup calculation              ...        0.565 sec (=   0.009 min)   9.5 %
SCF iterations                   ...        5.275 sec (=   0.088 min)  88.8 %
Property calculations            ...        0.097 sec (=   0.002 min)   1.6 %
                             ****ORCA TERMINATED NORMALLY****
TOTAL RUN TIME: 0 days 0 hours 0 minutes 6 seconds 630 msec
