 Entering Gaussian System
 *********************************************
 Gaussian 98:
 frequency output generated by the xtb code
 *********************************************
                         Standard orientation:
 --------------------------------------------------------------------
  Center     Atomic     Atomic              Coordinates (Angstroms)
  Number     Number      Type              X           Y           Z
 --------------------------------------------------------------------
    1          6             0       -2.135271    0.472791    0.637118
    2          6             0       -1.514077    0.172182   -0.722177
    3          6             0       -0.265387   -0.701573   -0.609885
    4          6             0        0.943722   -0.071004    0.032173
    5          6             0        1.129887    1.230098    0.184715
    6          6             0        1.978975   -1.066232    0.469658
    7          1             0       -3.013087    1.104623    0.523444
    8          1             0       -1.422416    0.981973    1.280536
    9          1             0       -2.438333   -0.450153    1.126796
   10          1             0       -2.246986   -0.354908   -1.337576
   11          1             0       -1.270564    1.103752   -1.234959
   12          1             0       -0.519935   -1.604188   -0.047271
   13          1             0        0.029025   -1.026446   -1.613518
   14          1             0        2.029568    1.616627    0.634550
   15          1             0        0.410591    1.967504   -0.123848
   16          1             0        1.584462   -1.691485    1.269739
   17          1             0        2.246356   -1.719257   -0.359840
   18          1             0        2.875609   -0.568005    0.827849
 --------------------------------------------------------------------
     1 basis functions        1 primitive gaussians
     1 alpha electrons        1 beta electrons
 
 Harmonic frequencies (cm**-1), IR intensities (km*mol⁻¹),
 Raman scattering activities (A**4/amu), Raman depolarization ratios,
 reduced masses (AMU), force constants (mDyne/A) and normal coordinates:
                      1                      2                      3
                        a                      a                      a 
 Frequencies --    51.5096               132.5265               145.8952
 Red. masses --     8.2294                 6.9201                 2.6175
 Frc consts  --     0.0000                 0.0000                 0.0000
 IR Inten    --     0.0379                 0.4542                 0.3237
 Raman Activ --     0.0000                 0.0000                 0.0000
 Depolar     --     0.0000                 0.0000                 0.0000
 Atom AN      X      Y      Z        X      Y      Z        X      Y      Z
   1   6     0.20  -0.27   0.22    -0.44  -0.29  -0.05     0.18   0.08  -0.01
   2   6    -0.04   0.06   0.04     0.03   0.17   0.06     0.00  -0.07  -0.06
   3   6     0.06   0.15  -0.35    -0.02   0.11   0.20     0.04  -0.02  -0.12
   4   6    -0.03   0.05  -0.09     0.12   0.05  -0.00    -0.03   0.00  -0.03
   5   6     0.11   0.06  -0.27     0.34   0.04  -0.19    -0.17  -0.01   0.23
   6   6    -0.30  -0.02   0.39     0.03  -0.05  -0.01    -0.02   0.01  -0.03
   7   1     0.03  -0.11   0.15    -0.10  -0.05  -0.04     0.03  -0.00   0.01
   8   1     0.08  -0.08   0.04    -0.18  -0.17   0.11     0.06   0.07  -0.05
   9   1     0.13  -0.11   0.04    -0.20  -0.13  -0.15     0.09   0.03   0.05
  10   1    -0.03   0.03   0.02     0.07   0.11  -0.10    -0.02  -0.04   0.03
  11   1    -0.06   0.05   0.05     0.06   0.10   0.13    -0.02  -0.03  -0.06
  12   1     0.05  -0.03  -0.20    -0.02   0.06   0.10     0.03  -0.02  -0.06
  13   1     0.02   0.17  -0.14    -0.02  -0.03   0.07     0.02   0.03  -0.04
  14   1     0.01   0.01  -0.02     0.13  -0.01  -0.11    -0.06  -0.00   0.09
  15   1     0.08   0.03  -0.18     0.11   0.03  -0.03    -0.07  -0.01   0.09
  16   1    -0.18   0.07   0.13     0.06   0.15   0.16     0.16   0.35   0.35
  17   1    -0.06  -0.07   0.17    -0.18  -0.17   0.06    -0.37  -0.34   0.14
  18   1    -0.09  -0.03   0.14     0.11  -0.04  -0.21     0.18  -0.00  -0.46
                      4                      5                      6
                        a                      a                      a 
 Frequencies --   189.7624               290.4493               328.9348
 Red. masses --     2.4627                 6.8240                 7.7374
 Frc consts  --     0.0000                 0.0000                 0.0000
 IR Inten    --     0.2421                 0.1633                 0.5919
 Raman Activ --     0.0000                 0.0000                 0.0000
 Depolar     --     0.0000                 0.0000                 0.0000
 Atom AN      X      Y      Z        X      Y      Z        X      Y      Z
   1   6     0.17  -0.04   0.03     0.10  -0.07   0.03    -0.35   0.23   0.08
   2   6     0.10   0.07  -0.02     0.26   0.41  -0.00    -0.09   0.00   0.22
   3   6    -0.05  -0.12  -0.00    -0.13  -0.14   0.03     0.08   0.03  -0.30
   4   6    -0.07  -0.04  -0.04    -0.08  -0.20  -0.05     0.13  -0.23  -0.09
   5   6    -0.21  -0.01  -0.05    -0.32  -0.16  -0.14    -0.05  -0.21  -0.04
   6   6     0.02   0.11   0.05     0.15   0.09   0.09     0.34   0.06   0.16
   7   1     0.34   0.41   0.09    -0.13  -0.23   0.03    -0.05   0.12  -0.10
   8   1     0.23  -0.48   0.18    -0.09   0.14   0.01    -0.14   0.06   0.07
   9   1    -0.40   0.01  -0.22     0.26  -0.10  -0.00    -0.21   0.11   0.04
  10   1     0.00   0.10  -0.04     0.06   0.29  -0.12    -0.02  -0.02   0.07
  11   1     0.09   0.03   0.04     0.21   0.16   0.13    -0.06   0.00   0.04
  12   1    -0.03  -0.01   0.03    -0.13   0.02   0.06     0.07  -0.11  -0.26
  13   1    -0.02  -0.07   0.01    -0.06  -0.12   0.03    -0.02   0.23  -0.17
  14   1    -0.07   0.02  -0.01    -0.11   0.01  -0.05    -0.05  -0.02   0.02
  15   1    -0.07  -0.02  -0.01    -0.12  -0.08  -0.04    -0.04  -0.09  -0.04
  16   1     0.03   0.05   0.04     0.09   0.04   0.06     0.14   0.04   0.09
  17   1     0.02   0.01   0.04     0.09   0.01   0.06     0.17  -0.02   0.10
  18   1    -0.01   0.07  -0.00     0.00   0.12  -0.00     0.05   0.12   0.03
                      7                      8                      9
                        a                      a                      a 
 Frequencies --   414.5685               423.3266               500.7419
 Red. masses --     7.9112                 8.2001                 7.7659
 Frc consts  --     0.0000                 0.0000                 0.0000
 IR Inten    --     0.0937                 1.9694                 0.9086
 Raman Activ --     0.0000                 0.0000                 0.0000
 Depolar     --     0.0000                 0.0000                 0.0000
 Atom AN      X      Y      Z        X      Y      Z        X      Y      Z
   1   6     0.10  -0.08  -0.04    -0.07   0.02   0.05    -0.05   0.07   0.03
   2   6    -0.31   0.03  -0.23     0.03  -0.03   0.08     0.30  -0.14   0.22
   3   6    -0.30   0.01  -0.04    -0.01  -0.11  -0.03     0.05  -0.37  -0.12
   4   6    -0.19  -0.10   0.00     0.25   0.08  -0.69    -0.34   0.08   0.03
   5   6     0.37  -0.20   0.14     0.01   0.00   0.26     0.17   0.02   0.02
   6   6     0.18   0.30   0.09    -0.09   0.07   0.06    -0.25   0.26  -0.11
   7   1     0.02  -0.01   0.12    -0.03  -0.01  -0.03    -0.01   0.00  -0.15
   8   1     0.11  -0.05  -0.08    -0.05   0.03   0.02    -0.09   0.09   0.04
   9   1     0.09  -0.04  -0.01    -0.03   0.01   0.02    -0.07   0.06   0.05
  10   1    -0.10  -0.00  -0.04    -0.01   0.01   0.02     0.04   0.13  -0.03
  11   1    -0.09   0.01  -0.07     0.02  -0.01   0.03     0.25  -0.03   0.16
  12   1    -0.12   0.03   0.02     0.04   0.09   0.21     0.09  -0.19  -0.13
  13   1    -0.06  -0.06   0.01    -0.16  -0.25   0.02     0.05   0.05  -0.07
  14   1     0.18  -0.22   0.04    -0.01  -0.07   0.16     0.12  -0.19   0.03
  15   1     0.21   0.07   0.10     0.03   0.05   0.14     0.18   0.16   0.06
  16   1     0.17   0.07   0.07    -0.23   0.13   0.01    -0.01   0.04  -0.03
  17   1     0.15   0.08   0.06     0.11  -0.09   0.15    -0.09   0.10  -0.06
  18   1    -0.02   0.25  -0.02    -0.08   0.01   0.16    -0.07   0.09  -0.06
                     10                     11                     12
                        a                      a                      a 
 Frequencies --   678.5386               782.6078               862.2339
 Red. masses --     1.2148                 5.1888                 6.6827
 Frc consts  --     0.0000                 0.0000                 0.0000
 IR Inten    --     0.0377                12.6148                 8.1100
 Raman Activ --     0.0000                 0.0000                 0.0000
 Depolar     --     0.0000                 0.0000                 0.0000
 Atom AN      X      Y      Z        X      Y      Z        X      Y      Z
   1   6     0.04   0.00  -0.04    -0.08  -0.01  -0.00     0.03  -0.11  -0.16
   2   6    -0.00  -0.02  -0.02    -0.29  -0.12  -0.09     0.02  -0.13   0.10
   3   6    -0.04   0.01   0.10    -0.15  -0.26  -0.05     0.04   0.35   0.36
   4   6     0.02  -0.01  -0.04     0.15   0.14   0.02     0.03  -0.13  -0.17
   5   6    -0.03  -0.01   0.01     0.02   0.25   0.05    -0.10  -0.26   0.11
   6   6    -0.01   0.00  -0.01     0.20  -0.15   0.08    -0.18   0.13  -0.11
   7   1     0.01  -0.00   0.01     0.02   0.08   0.11     0.08   0.07  -0.02
   8   1     0.02  -0.00  -0.02     0.18   0.03  -0.24     0.17   0.01  -0.25
   9   1     0.03  -0.00  -0.01     0.02   0.10   0.21    -0.00   0.09   0.16
  10   1     0.01   0.00  -0.02    -0.07   0.32  -0.33     0.17   0.00  -0.19
  11   1     0.04  -0.02  -0.00     0.22   0.07   0.30     0.06   0.05   0.20
  12   1    -0.00  -0.11  -0.15     0.05  -0.13  -0.07     0.10  -0.02  -0.06
  13   1     0.08   0.19  -0.01    -0.02   0.04  -0.04     0.01   0.28   0.03
  14   1     0.28   0.02  -0.58    -0.02   0.13   0.02    -0.00  -0.05  -0.05
  15   1    -0.27  -0.02   0.57     0.02   0.06  -0.05     0.09  -0.09  -0.28
  16   1    -0.16   0.11   0.01    -0.01  -0.04  -0.01    -0.03   0.06   0.00
  17   1     0.09  -0.10   0.11    -0.01  -0.04  -0.00     0.04   0.01   0.02
  18   1    -0.04  -0.01   0.11     0.11  -0.15   0.04    -0.11   0.15  -0.04
                     13                     14                     15
                        a                      a                      a 
 Frequencies --   887.9846               900.2104               948.2794
 Red. masses --     4.0184                 4.0199                 7.1519
 Frc consts  --     0.0000                 0.0000                 0.0000
 IR Inten    --    21.0454                 3.3664                 6.2090
 Raman Activ --     0.0000                 0.0000                 0.0000
 Depolar     --     0.0000                 0.0000                 0.0000
 Atom AN      X      Y      Z        X      Y      Z        X      Y      Z
   1   6    -0.04  -0.07   0.06     0.06   0.07  -0.17     0.26  -0.19  -0.20
   2   6    -0.01  -0.09  -0.02    -0.03   0.04   0.07     0.09  -0.09   0.24
   3   6     0.15   0.18  -0.10    -0.18  -0.08   0.34    -0.30   0.22  -0.02
   4   6    -0.08  -0.06   0.13     0.04   0.02  -0.07    -0.14   0.08  -0.06
   5   6     0.15  -0.09  -0.36     0.09   0.05  -0.22    -0.14   0.18  -0.07
   6   6    -0.07   0.02  -0.04     0.05  -0.00  -0.05     0.23  -0.24   0.11
   7   1     0.06   0.07  -0.06    -0.06  -0.05   0.13     0.13  -0.03  -0.42
   8   1     0.07   0.06  -0.12     0.01  -0.08   0.04    -0.07   0.08  -0.01
   9   1    -0.07   0.12   0.23     0.13  -0.12  -0.24    -0.11   0.07   0.05
  10   1     0.07   0.04  -0.14    -0.02  -0.03   0.07    -0.01  -0.02   0.09
  11   1    -0.04   0.09   0.18     0.14  -0.12  -0.14    -0.06   0.02   0.11
  12   1    -0.00   0.15   0.13     0.10  -0.23  -0.19    -0.11   0.07   0.00
  13   1     0.06  -0.15   0.05    -0.10   0.35  -0.05    -0.17   0.05  -0.03
  14   1    -0.19  -0.02   0.37    -0.21  -0.04   0.46     0.04  -0.16   0.02
  15   1    -0.25  -0.07   0.48    -0.06   0.03   0.17     0.12   0.24   0.08
  16   1    -0.01   0.03   0.01    -0.09   0.06  -0.01     0.10  -0.08   0.04
  17   1     0.04  -0.02   0.03     0.04  -0.06   0.04     0.08  -0.06   0.03
  18   1    -0.06   0.08  -0.00     0.01  -0.04   0.04     0.06  -0.06   0.02
                     16                     17                     18
                        a                      a                      a 
 Frequencies --   967.3650              1015.9555              1030.0055
 Red. masses --     4.8551                 4.4105                 3.9432
 Frc consts  --     0.0000                 0.0000                 0.0000
 IR Inten    --     1.8315                 5.2536                 2.1015
 Raman Activ --     0.0000                 0.0000                 0.0000
 Depolar     --     0.0000                 0.0000                 0.0000
 Atom AN      X      Y      Z        X      Y      Z        X      Y      Z
   1   6    -0.19   0.07   0.10    -0.07   0.09   0.06     0.01  -0.03   0.14
   2   6     0.01   0.06  -0.12     0.03  -0.07  -0.04     0.03   0.02  -0.13
   3   6     0.28   0.04   0.09     0.08   0.05   0.01    -0.02  -0.04   0.02
   4   6    -0.12  -0.00  -0.07    -0.15   0.09  -0.09    -0.13   0.02   0.20
   5   6    -0.35  -0.00  -0.15     0.00   0.19   0.02     0.00   0.06   0.03
   6   6     0.15  -0.07   0.06    -0.13  -0.43  -0.02     0.16  -0.06  -0.37
   7   1    -0.06   0.05   0.27    -0.05  -0.01   0.14     0.02  -0.00  -0.10
   8   1     0.10  -0.05  -0.08     0.00  -0.04   0.04    -0.07   0.05   0.07
   9   1     0.06  -0.01   0.04     0.06  -0.04  -0.06    -0.08   0.04   0.07
  10   1     0.12  -0.10  -0.07     0.00   0.02  -0.04    -0.02   0.01   0.00
  11   1    -0.04   0.02  -0.04     0.14  -0.07  -0.04    -0.06   0.03  -0.01
  12   1     0.05   0.01   0.01     0.18   0.00   0.06    -0.14  -0.02  -0.06
  13   1     0.12  -0.01   0.04     0.05  -0.00   0.02     0.23  -0.01   0.07
  14   1     0.10  -0.49   0.01     0.01   0.08  -0.03    -0.03   0.02   0.08
  15   1     0.24   0.37   0.10     0.01   0.07   0.02     0.11   0.03  -0.22
  16   1    -0.03  -0.02  -0.02     0.36  -0.12   0.17    -0.33   0.33   0.00
  17   1    -0.03  -0.02  -0.01     0.35  -0.09   0.11     0.30  -0.35   0.27
  18   1     0.10  -0.15   0.04    -0.27   0.41  -0.13    -0.09   0.03   0.18
                     19                     20                     21
                        a                      a                      a 
 Frequencies --  1092.0882              1103.7645              1128.2804
 Red. masses --     4.8628                 6.6202                 7.2995
 Frc consts  --     0.0000                 0.0000                 0.0000
 IR Inten    --     1.6696                 3.0440                 0.1777
 Raman Activ --     0.0000                 0.0000                 0.0000
 Depolar     --     0.0000                 0.0000                 0.0000
 Atom AN      X      Y      Z        X      Y      Z        X      Y      Z
   1   6     0.22   0.04   0.18     0.07   0.11  -0.34     0.09  -0.12  -0.23
   2   6    -0.30  -0.11  -0.25    -0.24  -0.06   0.37    -0.25   0.37   0.15
   3   6     0.12   0.13   0.15     0.21   0.10  -0.19     0.26  -0.37   0.14
   4   6     0.08  -0.02  -0.08    -0.10  -0.03   0.22     0.14  -0.00  -0.03
   5   6    -0.09  -0.12  -0.05    -0.05  -0.08  -0.01    -0.03   0.07  -0.02
   6   6    -0.04   0.04   0.05     0.06   0.03  -0.12    -0.15  -0.04  -0.02
   7   1     0.02  -0.10  -0.28    -0.05  -0.04   0.10     0.06   0.02  -0.14
   8   1    -0.24   0.09   0.31     0.06  -0.09  -0.05     0.04   0.03  -0.12
   9   1    -0.11  -0.01  -0.09     0.15  -0.11  -0.26    -0.03   0.04   0.03
  10   1    -0.31   0.29  -0.05    -0.16   0.16   0.07    -0.11   0.01   0.17
  11   1     0.17  -0.03   0.05     0.09  -0.02   0.15    -0.41   0.22   0.10
  12   1     0.22  -0.01   0.04     0.30   0.12   0.22    -0.03  -0.14  -0.08
  13   1     0.26   0.05   0.10    -0.15  -0.16  -0.04     0.20  -0.01   0.04
  14   1     0.00  -0.14   0.02     0.04  -0.06  -0.08     0.00  -0.04   0.03
  15   1     0.02   0.02   0.01     0.02  -0.00  -0.03     0.02   0.07   0.04
  16   1     0.03  -0.04  -0.01    -0.14   0.12  -0.01     0.09  -0.03   0.03
  17   1    -0.06   0.06  -0.05     0.05  -0.10   0.07     0.05   0.02  -0.01
  18   1     0.02  -0.01  -0.03    -0.01  -0.03   0.08    -0.09   0.13  -0.06
                     22                     23                     24
                        a                      a                      a 
 Frequencies --  1224.9597              1233.3809              1257.1759
 Red. masses --     3.9148                 7.4061                 2.7835
 Frc consts  --     0.0000                 0.0000                 0.0000
 IR Inten    --     2.9401                24.6590                 0.9079
 Raman Activ --     0.0000                 0.0000                 0.0000
 Depolar     --     0.0000                 0.0000                 0.0000
 Atom AN      X      Y      Z        X      Y      Z        X      Y      Z
   1   6    -0.02  -0.23   0.12     0.01  -0.02   0.06     0.19   0.21   0.08
   2   6    -0.02   0.32  -0.19    -0.02  -0.07  -0.08    -0.12  -0.09  -0.14
   3   6     0.10  -0.08   0.07    -0.01  -0.01  -0.05     0.08  -0.11   0.07
   4   6    -0.16   0.02   0.07     0.57  -0.14   0.33    -0.09   0.01   0.02
   5   6     0.02  -0.03   0.02    -0.17   0.08  -0.07     0.03   0.03   0.02
   6   6     0.05  -0.01  -0.03    -0.22   0.05  -0.13     0.02  -0.01  -0.01
   7   1     0.09   0.06  -0.14     0.00  -0.01  -0.02    -0.05  -0.08  -0.04
   8   1     0.00   0.09  -0.10    -0.02   0.01   0.02    -0.14   0.01   0.26
   9   1    -0.13   0.10   0.24    -0.03   0.01   0.03     0.00  -0.05  -0.20
  10   1    -0.02  -0.03   0.06    -0.05   0.03  -0.02     0.37  -0.19  -0.37
  11   1     0.06  -0.06  -0.27     0.11  -0.07  -0.06    -0.33   0.23   0.29
  12   1     0.52  -0.08   0.14    -0.20   0.03  -0.05     0.09  -0.06  -0.00
  13   1    -0.43   0.07  -0.14    -0.38  -0.01  -0.12    -0.34   0.03  -0.11
  14   1     0.02   0.02  -0.05     0.05  -0.17  -0.01     0.01   0.03  -0.02
  15   1    -0.02  -0.04  -0.02     0.12   0.21   0.06    -0.01  -0.01  -0.00
  16   1    -0.02   0.03   0.01    -0.02   0.07   0.03    -0.00   0.01   0.01
  17   1     0.01  -0.04   0.02     0.02   0.02  -0.01     0.01  -0.02   0.01
  18   1     0.01  -0.04   0.05    -0.17   0.23  -0.05    -0.00  -0.01   0.02
                     25                     26                     27
                        a                      a                      a 
 Frequencies --  1341.9977              1362.6273              1396.3251
 Red. masses --     4.5359                 6.0522                 3.0410
 Frc consts  --     0.0000                 0.0000                 0.0000
 IR Inten    --     5.4057                 2.4748                 2.5700
 Raman Activ --     0.0000                 0.0000                 0.0000
 Depolar     --     0.0000                 0.0000                 0.0000
 Atom AN      X      Y      Z        X      Y      Z        X      Y      Z
   1   6     0.10  -0.05   0.09    -0.04   0.04   0.00     0.01  -0.00  -0.01
   2   6    -0.38   0.24   0.27     0.19   0.01  -0.03    -0.00  -0.01   0.02
   3   6    -0.05  -0.04  -0.13    -0.53  -0.03  -0.16    -0.02  -0.02  -0.02
   4   6     0.06  -0.02   0.02     0.28  -0.04   0.13     0.09   0.08   0.05
   5   6    -0.01   0.01  -0.01    -0.07  -0.02  -0.04    -0.01   0.06  -0.00
   6   6    -0.02   0.01  -0.00    -0.06   0.03  -0.03    -0.27   0.27  -0.12
   7   1     0.05  -0.03  -0.22    -0.00   0.02   0.02     0.00   0.00   0.01
   8   1     0.03   0.05  -0.05     0.02  -0.02  -0.00    -0.01  -0.01   0.02
   9   1    -0.03  -0.05  -0.09     0.04  -0.01  -0.01     0.00   0.01   0.02
  10   1     0.43  -0.28  -0.27     0.09  -0.08   0.01     0.01   0.03  -0.04
  11   1     0.34  -0.21  -0.21    -0.22   0.12   0.08    -0.01  -0.02  -0.03
  12   1    -0.00   0.01   0.01     0.55  -0.06   0.18    -0.03   0.01   0.00
  13   1     0.23  -0.10   0.07     0.31   0.00   0.09    -0.02   0.02  -0.01
  14   1    -0.01   0.02  -0.00     0.01  -0.08   0.00     0.08  -0.24   0.03
  15   1     0.02   0.03   0.01     0.04   0.05   0.02    -0.14  -0.16  -0.07
  16   1    -0.00  -0.00  -0.00    -0.01   0.04   0.02     0.42  -0.27  -0.02
  17   1    -0.00   0.01  -0.00     0.00   0.03  -0.02     0.28  -0.27   0.32
  18   1    -0.01   0.02  -0.01    -0.03   0.03   0.01     0.17  -0.39   0.08
                     28                     29                     30
                        a                      a                      a 
 Frequencies --  1410.6976              1422.3532              1461.5470
 Red. masses --     3.2083                 2.4595                 1.8825
 Frc consts  --     0.0000                 0.0000                 0.0000
 IR Inten    --     1.7962                20.0540                 0.7176
 Raman Activ --     0.0000                 0.0000                 0.0000
 Depolar     --     0.0000                 0.0000                 0.0000
 Atom AN      X      Y      Z        X      Y      Z        X      Y      Z
   1   6    -0.19   0.11   0.37    -0.00  -0.00   0.00     0.01   0.01   0.04
   2   6     0.08  -0.05  -0.05     0.01  -0.01   0.06    -0.00  -0.02   0.01
   3   6     0.03   0.02   0.04    -0.02  -0.05  -0.02     0.03  -0.25  -0.08
   4   6    -0.02  -0.01  -0.00     0.03   0.26   0.03    -0.00   0.02  -0.02
   5   6     0.00   0.00  -0.00     0.01   0.10   0.01    -0.01  -0.04  -0.00
   6   6    -0.01   0.01  -0.00     0.08  -0.19   0.04     0.04   0.00  -0.03
   7   1     0.03  -0.01  -0.50     0.01   0.01  -0.02    -0.03  -0.05  -0.01
   8   1     0.38  -0.06  -0.35     0.01  -0.01  -0.00     0.04   0.01  -0.04
   9   1     0.18  -0.27  -0.37     0.02  -0.00   0.01    -0.05  -0.01  -0.05
  10   1    -0.08   0.10   0.01     0.03   0.08  -0.10     0.00   0.03  -0.04
  11   1    -0.11   0.03  -0.01    -0.06  -0.04  -0.09    -0.02  -0.01  -0.03
  12   1    -0.00  -0.03  -0.04    -0.05   0.01   0.00    -0.16   0.37   0.52
  13   1    -0.06  -0.02  -0.00    -0.01   0.02  -0.01     0.11   0.62  -0.17
  14   1    -0.00   0.01  -0.00     0.20  -0.56   0.07    -0.01   0.02  -0.00
  15   1    -0.00   0.00   0.01    -0.35  -0.43  -0.18     0.02   0.02   0.01
  16   1     0.02  -0.01  -0.00    -0.12   0.18   0.10     0.06  -0.03   0.00
  17   1     0.01  -0.02   0.02     0.01   0.18  -0.15    -0.13  -0.06   0.00
  18   1     0.01  -0.02   0.01    -0.05   0.12  -0.04    -0.07   0.05   0.12
                     31                     32                     33
                        a                      a                      a 
 Frequencies --  1478.8011              1482.3612              1499.0230
 Red. masses --     1.5754                 1.6629                 1.5619
 Frc consts  --     0.0000                 0.0000                 0.0000
 IR Inten    --     3.3244                 2.1043                 0.5691
 Raman Activ --     0.0000                 0.0000                 0.0000
 Depolar     --     0.0000                 0.0000                 0.0000
 Atom AN      X      Y      Z        X      Y      Z        X      Y      Z
   1   6    -0.01  -0.00  -0.01     0.01  -0.00   0.01    -0.12  -0.16  -0.01
   2   6    -0.01   0.00  -0.00    -0.02   0.00  -0.04     0.00  -0.06   0.07
   3   6    -0.00   0.05   0.03     0.02  -0.02  -0.01     0.01  -0.01   0.00
   4   6     0.01   0.01  -0.04    -0.00  -0.01  -0.00    -0.00  -0.02  -0.01
   5   6     0.01   0.01   0.00    -0.01  -0.08  -0.01    -0.00  -0.02  -0.00
   6   6     0.09  -0.01  -0.20    -0.18  -0.10  -0.08    -0.01   0.00  -0.00
   7   1     0.01   0.02  -0.01    -0.01  -0.01   0.01     0.39   0.55   0.04
   8   1    -0.01  -0.01   0.02     0.01   0.03  -0.03    -0.30   0.28   0.10
   9   1     0.03  -0.00   0.02    -0.03  -0.01  -0.03     0.42  -0.18  -0.06
  10   1     0.00  -0.01   0.01    -0.01  -0.07   0.06     0.02   0.15  -0.17
  11   1     0.02   0.00   0.01     0.07   0.02   0.07    -0.14  -0.05  -0.14
  12   1     0.01  -0.07  -0.11    -0.05   0.04   0.04    -0.03   0.02   0.03
  13   1     0.00  -0.12   0.04    -0.00   0.06  -0.02     0.00   0.04  -0.01
  14   1     0.01  -0.02   0.01    -0.05   0.11  -0.02    -0.02   0.05  -0.01
  15   1    -0.02  -0.02  -0.00     0.07   0.07   0.03     0.04   0.04   0.02
  16   1     0.38   0.09   0.24     0.14   0.43   0.40     0.00   0.01   0.01
  17   1    -0.44  -0.07  -0.10     0.37   0.42  -0.21     0.02   0.02  -0.01
  18   1    -0.27   0.01   0.65     0.15  -0.37   0.08     0.01  -0.02  -0.00
                     34                     35                     36
                        a                      a                      a 
 Frequencies --  1500.6981              1505.9383              1732.6877
 Red. masses --     1.8490                 1.6059                11.2518
 Frc consts  --     0.0000                 0.0000                 0.0000
 IR Inten    --     1.7092                 0.4805                42.5596
 Raman Activ --     0.0000                 0.0000                 0.0000
 Depolar     --     0.0000                 0.0000                 0.0000
 Atom AN      X      Y      Z        X      Y      Z        X      Y      Z
   1   6    -0.05  -0.05   0.04    -0.14   0.12  -0.10    -0.00  -0.00  -0.00
   2   6    -0.09   0.06  -0.23    -0.07   0.05  -0.04    -0.01  -0.01  -0.01
   3   6    -0.00  -0.03  -0.02     0.02  -0.03  -0.00     0.04   0.05   0.02
   4   6     0.01   0.05   0.01    -0.00  -0.00   0.00    -0.10  -0.73  -0.09
   5   6     0.00   0.03   0.00    -0.00  -0.01   0.00     0.09   0.60   0.07
   6   6     0.02  -0.00   0.01    -0.01  -0.00   0.00    -0.02   0.07  -0.01
   7   1     0.13   0.19   0.01     0.03   0.00  -0.33     0.00   0.00   0.00
   8   1    -0.07   0.16  -0.05     0.07  -0.54   0.34    -0.00   0.00   0.00
   9   1     0.10  -0.10  -0.12     0.48   0.06   0.40     0.00  -0.00   0.00
  10   1    -0.02  -0.45   0.40     0.02  -0.08   0.03    -0.01   0.01   0.00
  11   1     0.38   0.16   0.47     0.08   0.01   0.04     0.01  -0.00   0.00
  12   1    -0.03   0.03   0.03    -0.01   0.03   0.05     0.05   0.03   0.06
  13   1    -0.01   0.04  -0.02    -0.00   0.05  -0.02     0.05   0.04   0.00
  14   1     0.04  -0.11   0.01    -0.01   0.01  -0.00     0.12  -0.07   0.05
  15   1    -0.08  -0.10  -0.05     0.01   0.01  -0.00    -0.14  -0.01  -0.07
  16   1    -0.02  -0.05  -0.05    -0.01   0.02   0.01    -0.04   0.05   0.02
  17   1    -0.03  -0.05   0.03     0.03   0.02  -0.01    -0.02   0.05  -0.04
  18   1    -0.02   0.05  -0.02     0.01  -0.01  -0.02     0.02  -0.05   0.01
                     37                     38                     39
                        a                      a                      a 
 Frequencies --  2926.4595              2955.6886              2963.8047
 Red. masses --     1.8824                 1.7022                 1.7623
 Frc consts  --     0.0000                 0.0000                 0.0000
 IR Inten    --    64.1686                20.3052               138.5051
 Raman Activ --     0.0000                 0.0000                 0.0000
 Depolar     --     0.0000                 0.0000                 0.0000
 Atom AN      X      Y      Z        X      Y      Z        X      Y      Z
   1   6     0.00  -0.00   0.00     0.01   0.00   0.00    -0.01  -0.01   0.00
   2   6     0.01   0.00   0.01    -0.12  -0.14  -0.05     0.13   0.15   0.06
   3   6     0.09   0.01  -0.27     0.02   0.16  -0.04     0.02   0.15  -0.02
   4   6    -0.00  -0.00  -0.01     0.00   0.01   0.00     0.00   0.01   0.00
   5   6    -0.00   0.00  -0.00     0.00  -0.00  -0.00     0.00  -0.00   0.00
   6   6    -0.00   0.00   0.00    -0.00  -0.01  -0.00    -0.00  -0.01  -0.00
   7   1    -0.01   0.00  -0.00    -0.01   0.01  -0.00     0.01  -0.01   0.00
   8   1    -0.00  -0.00  -0.00    -0.02  -0.02  -0.02     0.02   0.02   0.02
   9   1     0.00   0.01  -0.00    -0.01  -0.02   0.01     0.01   0.04  -0.02
  10   1    -0.04  -0.03  -0.03     0.39   0.28   0.32    -0.45  -0.32  -0.37
  11   1     0.01   0.03  -0.01     0.05   0.23  -0.14    -0.05  -0.21   0.14
  12   1    -0.07  -0.30   0.15    -0.16  -0.55   0.37    -0.14  -0.47   0.32
  13   1    -0.24   0.26   0.82     0.07  -0.04  -0.23     0.08  -0.05  -0.26
  14   1     0.00   0.00   0.00    -0.01  -0.00  -0.00    -0.01  -0.00  -0.00
  15   1    -0.00   0.00  -0.00     0.00  -0.00   0.00    -0.00  -0.00   0.00
  16   1     0.00   0.00  -0.00     0.01   0.01  -0.02     0.01   0.01  -0.02
  17   1     0.00  -0.01  -0.01    -0.00   0.01   0.01    -0.01   0.01   0.02
  18   1     0.00   0.00   0.00     0.01   0.00   0.00     0.01   0.00   0.00
                     40                     41                     42
                        a                      a                      a 
 Frequencies --  2988.2990              2999.7212              3015.6619
 Red. masses --     1.5543                 1.9203                 1.5688
 Frc consts  --     0.0000                 0.0000                 0.0000
 IR Inten    --    69.7223                47.6506                71.4943
 Raman Activ --     0.0000                 0.0000                 0.0000
 Depolar     --     0.0000                 0.0000                 0.0000
 Atom AN      X      Y      Z        X      Y      Z        X      Y      Z
   1   6     0.02  -0.03   0.01    -0.00   0.00  -0.00     0.00  -0.00   0.00
   2   6    -0.01   0.15  -0.16    -0.00   0.00  -0.00     0.00  -0.00   0.00
   3   6     0.00   0.01  -0.02    -0.00  -0.00   0.00     0.00   0.01   0.00
   4   6     0.00   0.00   0.00    -0.00  -0.00   0.01    -0.00   0.01   0.00
   5   6     0.00  -0.00   0.00    -0.00   0.00   0.00    -0.00  -0.00  -0.00
   6   6    -0.00   0.00   0.00    -0.12  -0.04   0.26     0.03   0.21   0.07
   7   1    -0.07   0.05  -0.01     0.00  -0.00   0.00    -0.00   0.00   0.00
   8   1    -0.00  -0.01  -0.01     0.00   0.00   0.00    -0.00  -0.00  -0.00
   9   1     0.02   0.06  -0.03    -0.00  -0.01   0.00     0.00   0.01  -0.01
  10   1     0.26   0.22   0.19     0.00   0.00   0.00    -0.01  -0.01  -0.01
  11   1    -0.22  -0.76   0.39    -0.00  -0.00   0.00     0.00   0.01  -0.00
  12   1    -0.01  -0.04   0.03     0.00   0.01  -0.01    -0.01  -0.03   0.02
  13   1    -0.01   0.01   0.03    -0.00  -0.00  -0.00     0.01  -0.00  -0.02
  14   1     0.00  -0.00  -0.00     0.00   0.00   0.00    -0.00  -0.00  -0.00
  15   1    -0.01   0.01  -0.00     0.00   0.00  -0.00     0.01  -0.01   0.00
  16   1    -0.00  -0.00   0.00     0.29   0.46  -0.57    -0.20  -0.28   0.42
  17   1     0.00  -0.00  -0.01     0.12  -0.34  -0.40     0.20  -0.45  -0.62
  18   1     0.01   0.00   0.00     0.00   0.01   0.05    -0.09  -0.03  -0.03
                     43                     44                     45
                        a                      a                      a 
 Frequencies --  3023.9034              3030.3792              3043.8129
 Red. masses --     1.9307                 1.7555                 1.4518
 Frc consts  --     0.0000                 0.0000                 0.0000
 IR Inten    --    96.1483                77.2923                41.9095
 Raman Activ --     0.0000                 0.0000                 0.0000
 Depolar     --     0.0000                 0.0000                 0.0000
 Atom AN      X      Y      Z        X      Y      Z        X      Y      Z
   1   6     0.02  -0.27   0.09    -0.26  -0.02  -0.03     0.08   0.09   0.16
   2   6    -0.01  -0.03   0.02    -0.02  -0.01  -0.01     0.01   0.01   0.01
   3   6    -0.00  -0.00   0.00     0.00  -0.00  -0.00    -0.00  -0.00   0.00
   4   6    -0.00  -0.00   0.00     0.00   0.00   0.00    -0.00  -0.00  -0.00
   5   6    -0.00  -0.00  -0.00    -0.00   0.00  -0.00     0.00   0.00   0.00
   6   6     0.00  -0.00   0.00    -0.00  -0.00  -0.00    -0.01  -0.00  -0.00
   7   1    -0.40   0.25  -0.05     0.63  -0.48   0.10     0.22  -0.14   0.05
   8   1     0.07   0.00   0.07     0.20   0.17   0.20    -0.61  -0.42  -0.52
   9   1     0.24   0.70  -0.36     0.08   0.37  -0.20     0.09   0.24  -0.09
  10   1    -0.00  -0.00  -0.00     0.05   0.03   0.04    -0.02  -0.01  -0.01
  11   1     0.03   0.10  -0.05    -0.01  -0.02   0.01    -0.00  -0.00   0.00
  12   1     0.00   0.02  -0.01    -0.00  -0.00  -0.00     0.00   0.01  -0.00
  13   1     0.00  -0.00  -0.01    -0.00   0.00   0.01     0.00   0.00  -0.00
  14   1     0.00   0.00   0.00     0.01   0.00   0.00    -0.01  -0.01  -0.01
  15   1    -0.00   0.00  -0.00     0.00  -0.00   0.00     0.00  -0.00   0.00
  16   1     0.01   0.01  -0.01    -0.00  -0.00   0.00     0.00   0.00  -0.00
  17   1    -0.00   0.00   0.01    -0.00   0.00   0.00    -0.00   0.00   0.00
  18   1    -0.01  -0.00  -0.00     0.01   0.01   0.00     0.02   0.01   0.01
                     46                     47                     48
                        a                      a                      a 
 Frequencies --  3044.7354              3097.3396              3128.1241
 Red. masses --     1.6353                 1.6858                 1.9094
 Frc consts  --     0.0000                 0.0000                 0.0000
 IR Inten    --    53.0637                83.5777                73.3093
 Raman Activ --     0.0000                 0.0000                 0.0000
 Depolar     --     0.0000                 0.0000                 0.0000
 Atom AN      X      Y      Z        X      Y      Z        X      Y      Z
   1   6     0.00  -0.00  -0.00     0.00   0.00   0.00     0.00  -0.00   0.00
   2   6     0.00  -0.00   0.00     0.00   0.00   0.00     0.00   0.00  -0.00
   3   6    -0.00   0.00   0.00     0.00   0.00   0.00     0.00  -0.00  -0.00
   4   6    -0.01  -0.00  -0.00    -0.01   0.01  -0.00    -0.01  -0.01  -0.01
   5   6     0.01   0.00   0.00    -0.18  -0.14  -0.09    -0.21   0.17  -0.09
   6   6    -0.20  -0.10  -0.08    -0.01  -0.00  -0.00    -0.00  -0.00  -0.00
   7   1    -0.02   0.01  -0.00     0.00  -0.00   0.00    -0.01   0.00  -0.00
   8   1     0.01   0.01   0.01    -0.01  -0.01  -0.01    -0.00  -0.00  -0.00
   9   1    -0.00  -0.01   0.00     0.00  -0.00   0.00     0.00   0.00  -0.00
  10   1    -0.00  -0.00  -0.00    -0.00  -0.00  -0.00     0.00   0.00   0.00
  11   1     0.00   0.01  -0.00     0.00   0.00   0.00    -0.00  -0.01   0.01
  12   1     0.00   0.01  -0.00    -0.00  -0.01   0.00    -0.00   0.00   0.00
  13   1     0.00  -0.00   0.00     0.00  -0.00  -0.01    -0.00   0.00   0.00
  14   1    -0.03  -0.01  -0.01     0.79   0.33   0.40     0.14   0.09   0.07
  15   1    -0.00   0.00  -0.00    -0.16   0.11  -0.07     0.63  -0.64   0.27
  16   1    -0.06  -0.06   0.05    -0.00  -0.00   0.00     0.00   0.00  -0.00
  17   1    -0.01  -0.06  -0.07     0.00  -0.00  -0.00    -0.00   0.01   0.01
  18   1     0.78   0.46   0.31     0.02   0.01   0.01     0.01   0.00   0.00
