
                                 *****************
                                 * O   R   C   A *
                                 *****************

                                            #,                                       
                                            ###                                      
                                            ####                                     
                                            #####                                    
                                            ######                                   
                                           ########,                                 
                                     ,,################,,,,,                         
                               ,,#################################,,                 
                          ,,##########################################,,             
                       ,#########################################, ''#####,          
                    ,#############################################,,   '####,        
                  ,##################################################,,,,####,       
                ,###########''''           ''''###############################       
              ,#####''   ,,,,##########,,,,          '''####'''          '####       
            ,##' ,,,,###########################,,,                        '##       
           ' ,,###''''                  '''############,,,                           
         ,,##''                                '''############,,,,        ,,,,,,###''
      ,#''                                            '''#######################'''  
     '                                                          ''''####''''         
             ,#######,   #######,   ,#######,      ##                                
            ,#'     '#,  ##    ##  ,#'     '#,    #''#        ,####,   ,####,        
            ##       ##  ##   ,#'  ##            #'  '#       #'       #'  '#        
            ##       ##  #######   ##           ,######,      #####,   #    #        
            '#,     ,#'  ##    ##  '#,     ,#' ,#      #,     #,   #   #,  ,#        
             '#######'   ##     ##  '#######'  #'      '#     '####' # '####'        



                #########################################################
                #                        -***-                          #
                #          Department of theory and spectroscopy        #
                #                                                       #
                #                      Frank Neese                      #
                #                                                       #
                #     Directorship, Architecture, Infrastructure        #
                #                    SHARK, DRIVERS                     #
                #        Core code/Algorithms in most modules           #
                #                                                       #
                #        Max Planck Institute fuer Kohlenforschung      #
                #                Kaiser Wilhelm Platz 1                 #
                #                 D-45470 Muelheim/Ruhr                 #
                #                      Germany                          #
                #                                                       #
                #                  All rights reserved                  #
                #                        -***-                          #
                #########################################################


                         Program Version 6.0.0  -   RELEASE  -


 With contributions from (in alphabetic order):
   Daniel Aravena         : Magnetic Suceptibility
   Michael Atanasov       : Ab Initio Ligand Field Theory (pilot matlab implementation)
   Alexander A. Auer      : GIAO ZORA, VPT2 properties, NMR spectrum
   Ute Becker             : All parallelization in ORCA, NUMFREQ, NUMCALC
   Giovanni Bistoni       : ED, misc. LED, open-shell LED, HFLD
   Martin Brehm           : Molecular dynamics
   Dmytro Bykov           : pre 5.0 version of the SCF Hessian
   Marcos Casanova-Páez   : Triplet and SCS-CIS(D). UHF-(DLPNO)-IP/EA/STEOM-CCSD. UHF-CVS-IP/STEOM-CCSD
   Vijay G. Chilkuri      : MRCI spin determinant printing, contributions to CSF-ICE
   Pauline Colinet        : FMM embedding
   Dipayan Datta          : RHF DLPNO-CCSD density
   Achintya Kumar Dutta   : EOM-CC, STEOM-CC
   Nicolas Foglia         : Exact transition moments, OPA infrastructure, MCD improvements
   Dmitry Ganyushin       : Spin-Orbit,Spin-Spin,Magnetic field MRCI
   Miquel Garcia          : C-PCM and meta-GGA Hessian, CCSD/C-PCM, Gaussian charge scheme
   Tiago L. C. Gouveia    : GS-ROHF, GS-ROCIS
   Yang Guo               : DLPNO-NEVPT2, F12-NEVPT2, CIM, IAO-localization
   Andreas Hansen         : Spin unrestricted coupled pair/coupled cluster methods
   Ingolf Harden          : AUTO-CI MPn and infrastructure 
   Benjamin Helmich-Paris : MC-RPA, TRAH-(SCF,CASSCF), AVAS, COSX integrals, SCF dyn. polar.
   Lee Huntington         : MR-EOM, pCC
   Robert Izsak           : Overlap fitted RIJCOSX, COSX-SCS-MP3, EOM
   Riya Kayal             : Wick's Theorem for AUTO-CI, AUTO-CI UHF-CCSDT
   Emily Kempfer          : AUTO-CI, RHF CISDT and CCSDT
   Christian Kollmar      : KDIIS, OOCD, Brueckner-CCSD(T), CCSD density, CASPT2, CASPT2-K, improved NEVPT2
   Axel Koslowski         : Symmetry handling
   Simone Kossmann        : Meta GGA functionals, TD-DFT gradient, OOMP2, (MP2 Hessian; deprecated post 5.0)
   Lucas Lang             : DCDCAS
   Marvin Lechner         : AUTO-CI (C++ implementation), FIC-MRCC
   Spencer Leger          : CASSCF response
   Dagmar Lenk            : GEPOL surface, SMD, ORCA-2-JSON
   Dimitrios Liakos       : Extrapolation schemes; Compound Job, initial MDCI parallelization
   Dimitrios Manganas     : Further ROCIS development; embedding schemes. LFT, Crystal Embedding
   Dimitrios Pantazis     : SARC Basis sets
   Anastasios Papadopoulos: AUTO-CI, single reference methods and gradients
   Taras Petrenko         : pre 6.0 DFT Hessian and TD-DFT gradient, (ASA, deprecated), ECA, 1-Electron XAS/XES, NRVS
   Peter Pinski           : DLPNO-MP2, DLPNO-MP2 Gradient
   Christoph Reimann      : Effective Core Potentials
   Marius Retegan         : Local ZFS, SOC
   Christoph Riplinger    : Optimizer, TS searches, QM/MM, DLPNO-CCSD(T), (RO)-DLPNO pert. Triples
   Michael Roemelt        : Original ROCIS implementation
   Masaaki Saitow         : Open-shell DLPNO-CCSD energy and density
   Barbara Sandhoefer     : DKH picture change effects
   Kantharuban Sivalingam : CASSCF convergence/infrastructure, NEVPT2 and variants, FIC-MRCI
   Bernardo de Souza      : ESD, SOC TD-DFT
   Georgi Stoychev        : AutoAux, RI-MP2 NMR, DLPNO-MP2 response, X2C
   Van Anh Tran           : RI-MP2 g-tensors
   Willem Van den Heuvel  : Paramagnetic NMR
   Zikuan Wang            : NOTCH, Electric field optimization 
   Frank Wennmohs         : Technical directorship and infrastructure
   Hang Xu                : AUTO-CI-Response properties 


 We gratefully acknowledge several colleagues who have allowed us to
 interface, adapt or use parts of their codes:
   Stefan Grimme, W. Hujo, H. Kruse, P. Pracht,  : VdW corrections, initial TS optimization,
                  C. Bannwarth, S. Ehlert,         DFT functionals, gCP, sTDA/sTD-DF
                  L. Wittmann, M. Mueller
   Ed Valeev, F. Pavosevic, A. Kumar             : LibInt (2-el integral package), F12 methods
   Garnet Chan, S. Sharma, J. Yang, R. Olivares  : DMRG
   Ulf Ekstrom                                   : XCFun DFT Library
   Mihaly Kallay                                 : mrcc  (arbitrary order and MRCC methods)
   Frank Weinhold                                : gennbo (NPA and NBO analysis)
   Simon Mueller                                 : openCOSMO-RS
   Christopher J. Cramer and Donald G. Truhlar   : smd solvation model
   Lars Goerigk                                  : TD-DFT with DH, B97 family of functionals
   V. Asgeirsson, H. Jonsson                     : NEB implementation
   FAccTs GmbH                                   : IRC, NEB, NEB-TS, DLPNO-Multilevel, CI-OPT
                                                   MM, QMMM, 2- and 3-layer-ONIOM, Crystal-QMMM,
                                                   LR-CPCM, SF, NACMEs, symmetry and pop. for TD-DFT,
                                                   nearIR, NL-DFT gradient (VV10), updates on ESD,
                                                   ML-optimized integration grids, MBIS, APM,
                                                   GOAT, DOCKER, SOLVATOR, interface openCOSMO-RS
   S Lehtola, MJT Oliveira, MAL Marques          : LibXC Library
   Liviu Ungur et al                             : ANISO software


 Your calculation uses the libint2 library for the computation of 2-el integrals
 For citations please refer to: http://libint.valeyev.net

 Your ORCA version has been built with support for libXC version: 6.2.2
 For citations please refer to: https://libxc.gitlab.io

 This ORCA versions uses:
   CBLAS   interface :  Fast vector & matrix operations
   LAPACKE interface :  Fast linear algebra routines
   SCALAPACK package :  Parallel linear algebra routines
   Shared memory     :  Shared parallel matrices
   BLAS/LAPACK       :  OpenBLAS 0.3.27  USE64BITINT DYNAMIC_ARCH NO_AFFINITY SkylakeX SINGLE_THREADED
        Core in use  :  SkylakeX
   Copyright (c) 2011-2014, The OpenBLAS Project


Your calculation utilizes the geometrical counterpoise correction gCP
Please cite in your paper:
H.Kruse, S. Grimme J.Chem.Phys., 136, (2012), 154101 
   

Your calculation utilizes the atom-pairwise dispersion correction
based on EEQ partial charges (D4)


================================================================================

----- Orbital basis set information -----
Your calculation utilizes the basis: def2-SV(P)
   F. Weigend and R. Ahlrichs, Phys. Chem. Chem. Phys. 7, 3297 (2005).

----- AuxJ basis set information -----
Your calculation utilizes the auxiliary basis: def2/J
   F. Weigend, Phys. Chem. Chem. Phys. 8, 1057 (2006).

================================================================================
                                        WARNINGS
                       Please study these warnings very carefully!
================================================================================


================================================================================
                                       INPUT FILE
================================================================================
NAME = sp.inp
|  1> ! pbe def2-sv(p) def2/J RI DEFGRID1 loosescf d4 GCP(DFT/SV(P)) printgap
|  2> %output
|  3>     printlevel normal
|  4> end
|  5> * xyz 0 1
|  6> C -1.0140400544 -0.4639549559 -0.315367406
|  7> C 0.1445320813 0.3490806092 0.2761318149
|  8> C 1.4781597875 -0.0737255723 -0.3420843799
|  9> O 1.7396659891 -1.4086525074 0.0239067779
| 10> O -0.0285090924 1.7291125779 0.0402783472
| 11> O -2.249274065 -0.1064639648 0.2632616503
| 12> H -0.801294217 -1.5306274967 -0.1948451274
| 13> H -1.1056206438 -0.2349004952 -1.3800468364
| 14> H 0.1960848432 0.1614556657 1.3618924046
| 15> H 2.2546579457 0.6042368541 0.0322295327
| 16> H 1.4120703364 0.0349056169 -1.4319643387
| 17> H 2.5934030089 -1.6769816534 -0.3434220248
| 18> H -0.9737323059 1.9286943529 0.1304939209
| 19> H -2.2866060265 -0.436241808 1.1718342697
| 20> *
| 21> 
| 22>                          ****END OF INPUT****
================================================================================

                       ****************************
                       * Single Point Calculation *
                       ****************************

---------------------------------
CARTESIAN COORDINATES (ANGSTROEM)
---------------------------------
  C     -1.014040   -0.463955   -0.315367
  C      0.144532    0.349081    0.276132
  C      1.478160   -0.073726   -0.342084
  O      1.739666   -1.408653    0.023907
  O     -0.028509    1.729113    0.040278
  O     -2.249274   -0.106464    0.263262
  H     -0.801294   -1.530627   -0.194845
  H     -1.105621   -0.234900   -1.380047
  H      0.196085    0.161456    1.361892
  H      2.254658    0.604237    0.032230
  H      1.412070    0.034906   -1.431964
  H      2.593403   -1.676982   -0.343422
  H     -0.973732    1.928694    0.130494
  H     -2.286606   -0.436242    1.171834

----------------------------
CARTESIAN COORDINATES (A.U.)
----------------------------
  NO LB      ZA    FRAG     MASS         X           Y           Z
   0 C     6.0000    0    12.011   -1.916258   -0.876748   -0.595958
   1 C     6.0000    0    12.011    0.273126    0.659667    0.521814
   2 C     6.0000    0    12.011    2.793317   -0.139321   -0.646446
   3 O     8.0000    0    15.999    3.287492   -2.661967    0.045177
   4 O     8.0000    0    15.999   -0.053874    3.267549    0.076115
   5 O     8.0000    0    15.999   -4.250512   -0.201188    0.497492
   6 H     1.0000    0     1.008   -1.514227   -2.892467   -0.368204
   7 H     1.0000    0     1.008   -2.089320   -0.443898   -2.607911
   8 H     1.0000    0     1.008    0.370547    0.305107    2.573604
   9 H     1.0000    0     1.008    4.260686    1.141842    0.060905
  10 H     1.0000    0     1.008    2.668426    0.065962   -2.706020
  11 H     1.0000    0     1.008    4.900821   -3.169036   -0.648974
  12 H     1.0000    0     1.008   -1.840087    3.644704    0.246598
  13 H     1.0000    0     1.008   -4.321059   -0.824378    2.214446

--------------------------------
INTERNAL COORDINATES (ANGSTROEM)
--------------------------------
 C      0   0   0     0.000000000000     0.00000000     0.00000000
 C      1   0   0     1.534010284210     0.00000000     0.00000000
 C      2   1   0     1.529548688134   110.86453834     0.00000000
 O      3   2   1     1.408674889078   108.59057693   295.07983295
 O      2   1   3     1.410694276112   111.18479670   120.21768787
 O      1   2   3     1.410111504263   111.65403919   178.78682191
 H      1   2   3     1.094338485235   109.10589195    54.63768513
 H      1   2   3     1.092883909589   109.13802044   295.46193901
 H      2   1   3     1.103057960775   108.94678416   241.20415167
 H      3   2   1     1.096673764829   107.96968336   174.10073710
 H      3   2   1     1.097272470906   108.75831899    56.32943409
 H      4   3   2     0.967366465649   109.14970045   181.50411307
 H      5   2   1     0.970267312646   107.76894147    37.84577340
 H      6   1   2     0.967290703945   109.43936907   288.29652141

---------------------------
INTERNAL COORDINATES (A.U.)
---------------------------
 C      0   0   0     0.000000000000     0.00000000     0.00000000
 C      1   0   0     2.898859323776     0.00000000     0.00000000
 C      2   1   0     2.890428129071   110.86453834     0.00000000
 O      3   2   1     2.662009752089   108.59057693   295.07983295
 O      2   1   3     2.665825840542   111.18479670   120.21768787
 O      1   2   3     2.664724561349   111.65403919   178.78682191
 H      1   2   3     2.068000034905   109.10589195    54.63768513
 H      1   2   3     2.065251285292   109.13802044   295.46193901
 H      2   1   3     2.084477455706   108.94678416   241.20415167
 H      3   2   1     2.072413073783   107.96968336   174.10073710
 H      3   2   1     2.073544464303   108.75831899    56.32943409
 H      4   3   2     1.828057691217   109.14970045   181.50411307
 H      5   2   1     1.833539497597   107.76894147    37.84577340
 H      6   1   2     1.827914522344   109.43936907   288.29652141

---------------------
BASIS SET INFORMATION
---------------------
There are 3 groups of distinct atoms

 Group   1 Type C   : 7s4p1d contracted to 3s2p1d pattern {511/31/1}
 Group   2 Type O   : 7s4p1d contracted to 3s2p1d pattern {511/31/1}
 Group   3 Type H   : 4s contracted to 2s pattern {31}

Atom   0C    basis set group =>   1
Atom   1C    basis set group =>   1
Atom   2C    basis set group =>   1
Atom   3O    basis set group =>   2
Atom   4O    basis set group =>   2
Atom   5O    basis set group =>   2
Atom   6H    basis set group =>   3
Atom   7H    basis set group =>   3
Atom   8H    basis set group =>   3
Atom   9H    basis set group =>   3
Atom  10H    basis set group =>   3
Atom  11H    basis set group =>   3
Atom  12H    basis set group =>   3
Atom  13H    basis set group =>   3
---------------------------------
AUXILIARY/J BASIS SET INFORMATION
---------------------------------
There are 3 groups of distinct atoms

 Group   1 Type C   : 12s5p4d2f1g contracted to 6s4p3d1f1g pattern {711111/2111/211/2/1}
 Group   2 Type O   : 12s5p4d2f1g contracted to 6s4p3d1f1g pattern {711111/2111/211/2/1}
 Group   3 Type H   : 5s2p1d contracted to 3s1p1d pattern {311/2/1}

Atom   0C    basis set group =>   1
Atom   1C    basis set group =>   1
Atom   2C    basis set group =>   1
Atom   3O    basis set group =>   2
Atom   4O    basis set group =>   2
Atom   5O    basis set group =>   2
Atom   6H    basis set group =>   3
Atom   7H    basis set group =>   3
Atom   8H    basis set group =>   3
Atom   9H    basis set group =>   3
Atom  10H    basis set group =>   3
Atom  11H    basis set group =>   3
Atom  12H    basis set group =>   3
Atom  13H    basis set group =>   3
------------------------------------------------------------------------------
                             ORCA STARTUP CALCULATIONS
                           -- RI-GTO INTEGRALS CHOSEN --
------------------------------------------------------------------------------
------------------------------------------------------------------------------
                   ___                                                        
                  /   \      - P O W E R E D   B Y -                         
                 /     \                                                     
                 |  |  |   _    _      __       _____    __    __             
                 |  |  |  | |  | |    /  \     |  _  \  |  |  /  |          
                  \  \/   | |  | |   /    \    | | | |  |  | /  /          
                 / \  \   | |__| |  /  /\  \   | |_| |  |  |/  /          
                |  |  |   |  __  | /  /__\  \  |    /   |      \           
                |  |  |   | |  | | |   __   |  |    \   |  |\   \          
                \     /   | |  | | |  |  |  |  | |\  \  |  | \   \       
                 \___/    |_|  |_| |__|  |__|  |_| \__\ |__|  \__/        
                                                                              
                      - O R C A' S   B I G   F R I E N D -                    
                                      &                                       
                       - I N T E G R A L  F E E D E R -                       
                                                                              
 v1 FN, 2020, v2 2021, v3 2022-2024                                           
------------------------------------------------------------------------------


----------------------
SHARK INTEGRAL PACKAGE
----------------------

Number of atoms                             ...     14
Number of basis functions                   ...    100
Number of shells                            ...     52
Maximum angular momentum                    ...      2
Integral batch strategy                     ... SHARK/LIBINT Hybrid
RI-J (if used) integral strategy            ... SPLIT-RIJ (Revised 2003 algorithm where possible)
Printlevel                                  ...      1
Contraction scheme used                     ... SEGMENTED contraction
Prescreening option                         ... SCHWARTZ
   Thresh                                   ... 1.000e-09
   Tcut                                     ... 1.000e-10
   Tpresel                                  ... 1.000e-10 
Coulomb Range Separation                    ... NOT USED
Exchange Range Separation                   ... NOT USED
Multipole approximations                    ... NOT USED
Finite Nucleus Model                        ... NOT USED
CABS basis                                  ... NOT available
Auxiliary Coulomb fitting basis             ... AVAILABLE
   # of basis functions in Aux-J            ...    382
   # of shells in Aux-J                     ...    130
   Maximum angular momentum in Aux-J        ...      4
Auxiliary J/K fitting basis                 ... NOT available
Auxiliary Correlation fitting basis         ... NOT available
Auxiliary 'external' fitting basis          ... NOT available

Checking pre-screening integrals            ... done (  0.0 sec) Dimension = 52
Check shell pair data                       ... done (  0.0 sec)
Shell pair information
Shell pair cut-off parameter TPreSel        ...   1.0e-10
Total number of shell pairs                 ...      1378
Shell pairs after pre-screening             ...      1326
Total number of primitive shell pairs       ...      5562
Primitive shell pairs kept                  ...      3955
          la=0 lb=0:    571 shell pairs
          la=1 lb=0:    396 shell pairs
          la=1 lb=1:     77 shell pairs
          la=2 lb=0:    192 shell pairs
          la=2 lb=1:     70 shell pairs
          la=2 lb=2:     20 shell pairs

Calculating one electron integrals          ... done (  0.0 sec)
Calculating RI/J V-Matrix + Cholesky decomp.... done (  0.1 sec)
Calculating Nuclear repulsion               ... done (  0.0 sec) ENN=    261.347391861157 Eh

Diagonalization of the overlap matrix:
Smallest eigenvalue                        ... 2.076e-03
Time for diagonalization                   ...    0.001 sec
Threshold for overlap eigenvalues          ... 1.000e-07
Number of eigenvalues below threshold      ... 0
Time for construction of square roots      ...    0.011 sec
Total time needed                          ...    0.021 sec

-------------------
DFT GRID GENERATION
-------------------

General Integration Accuracy     IntAcc      ... 4.159
Radial Grid Type                 RadialGrid  ... OptM3 with GC (2021)
Angular Grid (max. ang.)         AngularGrid ... 3 (Lebedev-194)
Angular grid pruning method      GridPruning ... 4 (adaptive)
Weight generation scheme         WeightScheme... mBecke (2022)
Basis function cutoff            BFCut       ... 1.0000e-10
Integration weight cutoff        WCut        ... 1.0000e-14
Partially contracted basis set               ... off
Rotationally invariant grid construction     ... off
Angular grids for H and He will be reduced by one unit

Total number of grid points                  ...    31061
Total number of batches                      ...      492
Average number of points per batch           ...       63
Average number of grid points per atom       ...     2219
Initializing property integral containers    ... done (  0.0 sec)

SHARK setup successfully completed in   0.5 seconds

Maximum memory used throughout the entire STARTUP-calculation: 15.2 MB
-------------------------------------------------------------------------------
                                 ORCA GUESS
                   Start orbitals & Density for SCF / CASSCF
-------------------------------------------------------------------------------

------------
SCF SETTINGS
------------
Hamiltonian:
 Density Functional     Method          .... DFT(GTOs)
 Exchange Functional    Exchange        .... PBE
   PBE kappa parameter   XKappa         ....  0.804000
   PBE mue parameter    XMuePBE         ....  0.219520
 Correlation Functional Correlation     .... PBE
   PBE beta parameter  CBetaPBE         ....  0.066725
 LDA part of GGA corr.  LDAOpt          .... PW91-LDA
 Gradients option       PostSCFGGA      .... off
   NL short-range parameter             ....  6.400000
 RI-approximation to the Coulomb term is turned on
   Number of AuxJ basis functions       .... 382


General Settings:
 Integral files         IntName         .... sp
 Hartree-Fock type      HFTyp           .... RHF
 Total Charge           Charge          ....    0
 Multiplicity           Mult            ....    1
 Number of Electrons    NEL             ....   50
 Basis Dimension        Dim             ....  100
 Nuclear Repulsion      ENuc            ....    261.3473918612 Eh

Convergence Acceleration:
 AO-DIIS                CNVDIIS         .... on
   Start iteration      DIISMaxIt       ....    12
   Startup error        DIISStart       ....  0.200000
   # of expansion vecs  DIISMaxEq       ....     5
   Bias factor          DIISBfac        ....   1.050
   Max. coefficient     DIISMaxC        ....  10.000
 MO-DIIS                CNVKDIIS        .... off
 Trust-Rad. Augm. Hess. CNVTRAH         .... auto
   Auto Start mean grad. ratio tolernc. ....  1.125000
   Auto Start start iteration           ....    50
   Auto Start num. interpolation iter.  ....    10
   Max. Number of Micro iterations      ....    24
   Max. Number of Macro iterations      .... Maxiter - #DIIS iter
   Number of Davidson start vectors     ....     2
   Converg. threshold    (grad. norm)   ....   1.000e-04
   Grad. Scal. Fac. for Micro threshold ....   0.100
   Minimum threshold for Micro iter.    ....   1.000e-02
   NR start threshold (gradient norm)   ....   1.000e-04
   Initial trust radius                 ....   0.400
   Minimum AH scaling param. (alpha)    ....   1.000
   Maximum AH scaling param. (alpha)    .... 1000.000
   Quad. conv. algorithm                .... NR
   White noise on init. David. guess    .... on
   Maximum white noise                  ....   0.010
   Pseudo random numbers                .... off
   Inactive MOs                         .... canonical
   Orbital update algorithm             .... Taylor
   Preconditioner                       .... Diag
   Full preconditioner red. dimension   ....   250
 SOSCF                  CNVSOSCF        .... on
   Start iteration      SOSCFMaxIt      ....   150
   Startup grad/error   SOSCFStart      ....  0.003300
   Hessian update       SOSCFHessUp     .... L-BFGS
 Level Shifting         CNVShift        .... on
   Level shift para.    LevelShift      ....    0.2500
   Turn off err/grad.   ShiftErr        ....    0.0010
 Zerner damping         CNVZerner       .... off
 Static damping         CNVDamp         .... on
   Fraction old density DampFac         ....    0.7000
   Max. Damping (<1)    DampMax         ....    0.9800
   Min. Damping (>=0)   DampMin         ....    0.0000
   Turn off err/grad.   DampErr         ....    0.1000

SCF Procedure:
 Maximum # iterations   MaxIter         ....   125
 SCF integral mode      SCFMode         .... Direct
   Integral package                     .... SHARK and LIBINT hybrid scheme
 Reset frequency        DirectResetFreq ....    20
 Integral Threshold     Thresh          ....  1.000e-09 Eh
 Primitive CutOff       TCut            ....  1.000e-10 Eh

Convergence Tolerance:
 Convergence Check Mode ConvCheckMode   .... Total+1el-Energy
 Convergence forced     ConvForced      .... 0
 Energy Change          TolE            ....  1.000e-05 Eh
 1-El. energy change                    ....  1.000e-02 Eh
 Orbital Gradient       TolG            ....  1.000e-04
 Orbital Rotation angle TolX            ....  1.000e-04
 DIIS Error             TolErr          ....  5.000e-04

------------------------------
INITIAL GUESS: MODEL POTENTIAL
------------------------------
Loading Hartree-Fock densities                     ... done
Calculating cut-offs                               ... done
Initializing the effective Hamiltonian             ... done
Setting up the integral package (SHARK)            ... done
Starting the Coulomb interaction                   ... done (   0.1 sec)
Making the grid                                    ... done (   0.1 sec)
Mapping shells                                     ... done
Starting the XC term evaluation                    ... done (   0.1 sec)
  promolecular density results
     # of electrons  =     49.995604653
     EX              =    -42.175310203
     EC              =     -1.665212766
     EX+EC           =    -43.840522968
Transforming the Hamiltonian                       ... done (   0.0 sec)
Diagonalizing the Hamiltonian                      ... done (   0.0 sec)
Back transforming the eigenvectors                 ... done (   0.0 sec)
Now organizing SCF variables                       ... done
                      ------------------
                      INITIAL GUESS DONE (   0.4 sec)
                      ------------------
             **** ENERGY FILE WAS UPDATED (sp.en.tmp) ****
Finished Guess after   0.5 sec
Maximum memory used throughout the entire GUESS-calculation: 11.7 MB

-------------------------------------------------------------------------------------------
                                      ORCA LEAN-SCF
                              memory conserving SCF solver
-------------------------------------------------------------------------------------------

----------------------------------------D-I-I-S--------------------------------------------
Iteration    Energy (Eh)           Delta-E    RMSDP     MaxDP     DIISErr   Damp  Time(sec)
-------------------------------------------------------------------------------------------
               ***  Starting incremental Fock matrix formation  ***
    1    -343.9016235405861721     0.00e+00  6.24e-03  8.53e-02  2.26e-01  0.700   0.6
    2    -343.9914499511789359    -8.98e-02  4.07e-03  6.12e-02  9.07e-02  0.700   0.6
                               ***Turning on AO-DIIS***
    3    -344.0202409602365492    -2.88e-02  1.48e-03  1.60e-02  1.81e-02  0.700   0.5
    4    -344.0389506391848613    -1.87e-02  1.96e-03  2.29e-02  9.60e-03  0.000   0.5
    5    -344.0823053473122286    -4.34e-02  5.93e-04  9.01e-03  6.46e-03  0.000   0.5
                              *** Initializing SOSCF ***
---------------------------------------S-O-S-C-F--------------------------------------
Iteration    Energy (Eh)           Delta-E    RMSDP     MaxDP     MaxGrad    Time(sec)
--------------------------------------------------------------------------------------
    6    -344.0825337615190733    -2.28e-04  2.05e-04  2.58e-03  1.29e-03     0.6
               *** Restarting incremental Fock matrix formation ***
    7    -344.0825531339477834    -1.94e-05  1.39e-04  1.60e-03  1.86e-04     0.5
    8    -344.0825537331524515    -5.99e-07  4.55e-05  6.59e-04  2.03e-04     0.5
                 **** Energy Check signals convergence ****

               *****************************************************
               *                     SUCCESS                       *
               *           SCF CONVERGED AFTER   8 CYCLES          *
               *****************************************************

             **** ENERGY FILE WAS UPDATED (sp.en.tmp) ****

----------------
TOTAL SCF ENERGY
----------------

Total Energy       :       -344.08255373315245 Eh           -9362.96229 eV

Components:
Nuclear Repulsion  :        261.34739186115718 Eh            7111.62408 eV
Electronic Energy  :       -605.42994559430963 Eh          -16474.58637 eV
One Electron Energy:       -988.87770760273520 Eh          -26908.73044 eV
Two Electron Energy:        383.44776200842563 Eh           10434.14407 eV

Virial components:
Potential Energy   :       -685.81141096532224 Eh          -18661.87724 eV
Kinetic Energy     :        341.72885723216979 Eh            9298.91495 eV
Virial Ratio       :          2.00688761411619

DFT components:
N(Alpha)           :       24.999861722580 electrons
N(Beta)            :       24.999861722580 electrons
N(Total)           :       49.999723445160 electrons
E(X)               :      -42.972496415965 Eh       
E(C)               :       -1.681570144827 Eh       
E(XC)              :      -44.654066560793 Eh       

---------------
SCF CONVERGENCE
---------------

  Last Energy change         ...    5.9920e-07  Tolerance :   1.0000e-05
  Last MAX-Density change    ...    6.5904e-04  Tolerance :   1.0000e-03
  Last RMS-Density change    ...    4.5477e-05  Tolerance :   1.0000e-04
  Last DIIS Error            ...    1.2937e-03  Tolerance :   5.0000e-04
  Last Orbital Gradient      ...    2.0281e-04  Tolerance :   1.0000e-04
  Last Orbital Rotation      ...    1.4545e-04  Tolerance :   1.0000e-04


----------------
ORBITAL ENERGIES
----------------

  NO   OCC          E(Eh)            E(eV) 
   0   2.0000     -18.754195      -510.3276 
   1   2.0000     -18.752613      -510.2845 
   2   2.0000     -18.740870      -509.9650 
   3   2.0000      -9.933779      -270.3119 
   4   2.0000      -9.930592      -270.2252 
   5   2.0000      -9.927236      -270.1338 
   6   2.0000      -0.937501       -25.5107 
   7   2.0000      -0.926220       -25.2037 
   8   2.0000      -0.909589       -24.7512 
   9   2.0000      -0.679601       -18.4929 
  10   2.0000      -0.605230       -16.4691 
  11   2.0000      -0.531433       -14.4610 
  12   2.0000      -0.489995       -13.3334 
  13   2.0000      -0.457761       -12.4563 
  14   2.0000      -0.430804       -11.7228 
  15   2.0000      -0.422445       -11.4953 
  16   2.0000      -0.381497       -10.3811 
  17   2.0000      -0.370079       -10.0704 
  18   2.0000      -0.346422        -9.4266 
  19   2.0000      -0.299249        -8.1430 
  20   2.0000      -0.286908        -7.8072 
  21   2.0000      -0.276391        -7.5210 
  22   2.0000      -0.234232        -6.3738 
  23   2.0000      -0.219096        -5.9619 
  24   2.0000      -0.206259        -5.6126 
  25   0.0000       0.016869         0.4590 
  26   0.0000       0.027308         0.7431 
  27   0.0000       0.065140         1.7726 
  28   0.0000       0.077067         2.0971 
  29   0.0000       0.088620         2.4115 
  30   0.0000       0.111723         3.0401 
  31   0.0000       0.125546         3.4163 
  32   0.0000       0.130525         3.5518 
  33   0.0000       0.144365         3.9284 
  34   0.0000       0.190967         5.1965 
  35   0.0000       0.204335         5.5602 
*Only the first 10 virtual orbitals were printed.

                    ********************************
                    * MULLIKEN POPULATION ANALYSIS *
                    ********************************

-----------------------
MULLIKEN ATOMIC CHARGES
-----------------------
   0 C :   -0.002787
   1 C :    0.004011
   2 C :    0.021474
   3 O :   -0.438024
   4 O :   -0.432469
   5 O :   -0.434916
   6 H :    0.091841
   7 H :    0.083205
   8 H :    0.050146
   9 H :    0.085351
  10 H :    0.068308
  11 H :    0.305022
  12 H :    0.299169
  13 H :    0.299670
Sum of atomic charges:   -0.0000000

--------------------------------
MULLIKEN REDUCED ORBITAL CHARGES
--------------------------------
  0 C s       :     3.059065  s :     3.059065
      pz      :     1.032722  p :     2.881713
      px      :     0.805046
      py      :     1.043945
      dz2     :     0.015008  d :     0.062009
      dxz     :     0.012146
      dyz     :     0.003903
      dx2y2   :     0.017711
      dxy     :     0.013241

  1 C s       :     3.068154  s :     3.068154
      pz      :     1.055291  p :     2.859646
      px      :     1.027391
      py      :     0.776964
      dz2     :     0.015914  d :     0.068189
      dxz     :     0.005998
      dyz     :     0.014793
      dx2y2   :     0.017769
      dxy     :     0.013716

  2 C s       :     3.034618  s :     3.034618
      pz      :     1.043681  p :     2.881868
      px      :     1.065492
      py      :     0.772695
      dz2     :     0.015154  d :     0.062040
      dxz     :     0.004973
      dyz     :     0.012665
      dx2y2   :     0.014049
      dxy     :     0.015199

  3 O s       :     3.790700  s :     3.790700
      pz      :     1.798780  p :     4.632013
      px      :     1.451401
      py      :     1.381832
      dz2     :     0.001641  d :     0.015311
      dxz     :     0.003294
      dyz     :     0.002819
      dx2y2   :     0.005619
      dxy     :     0.001938

  4 O s       :     3.785389  s :     3.785389
      pz      :     1.876816  p :     4.631832
      px      :     1.383830
      py      :     1.371186
      dz2     :     0.002640  d :     0.015248
      dxz     :     0.000878
      dyz     :     0.002109
      dx2y2   :     0.007714
      dxy     :     0.001907

  5 O s       :     3.789314  s :     3.789314
      pz      :     1.319763  p :     4.630139
      px      :     1.513841
      py      :     1.796535
      dz2     :     0.005669  d :     0.015463
      dxz     :     0.001529
      dyz     :     0.002891
      dx2y2   :     0.002756
      dxy     :     0.002618

  6 H s       :     0.908159  s :     0.908159

  7 H s       :     0.916795  s :     0.916795

  8 H s       :     0.949854  s :     0.949854

  9 H s       :     0.914649  s :     0.914649

 10 H s       :     0.931692  s :     0.931692

 11 H s       :     0.694978  s :     0.694978

 12 H s       :     0.700831  s :     0.700831

 13 H s       :     0.700330  s :     0.700330


------------------------
MULLIKEN OVERLAP CHARGES
------------------------
B(  0-C ,  1-C ) :   0.7306 B(  0-C ,  4-O ) :  -0.0625 B(  0-C ,  5-O ) :   0.6666 
B(  0-C ,  6-H ) :   0.6783 B(  0-C ,  7-H ) :   0.6530 B(  0-C ,  8-H ) :  -0.1189 
B(  0-C , 10-H ) :  -0.0641 B(  0-C , 13-H ) :  -0.0932 B(  1-C ,  2-C ) :   0.3552 
B(  1-C ,  3-O ) :  -0.1240 B(  1-C ,  4-O ) :   0.6136 B(  1-C ,  5-O ) :  -0.1232 
B(  1-C ,  6-H ) :  -0.1134 B(  1-C ,  8-H ) :   0.6357 B(  1-C , 12-H ) :  -0.1113 
B(  2-C ,  3-O ) :   0.6281 B(  2-C ,  4-O ) :  -0.0996 B(  2-C ,  8-H ) :  -0.0835 
B(  2-C ,  9-H ) :   0.6755 B(  2-C , 10-H ) :   0.6613 B(  3-O ,  9-H ) :  -0.0528 
B(  3-O , 10-H ) :  -0.0614 B(  3-O , 11-H ) :   0.5151 B(  4-O ,  8-H ) :  -0.0731 
B(  4-O , 12-H ) :   0.5258 B(  5-O ,  6-H ) :  -0.0546 B(  5-O ,  7-H ) :  -0.0714 
B(  5-O , 12-H ) :   0.0610 B(  5-O , 13-H ) :   0.5273 B(  6-H ,  7-H ) :  -0.0588 
B(  9-H , 10-H ) :  -0.1089 


                     *******************************
                     * LOEWDIN POPULATION ANALYSIS *
                     *******************************

----------------------
LOEWDIN ATOMIC CHARGES
----------------------
   0 C :   -0.144565
   1 C :   -0.087101
   2 C :   -0.125211
   3 O :   -0.344742
   4 O :   -0.331920
   5 O :   -0.337131
   6 H :    0.106881
   7 H :    0.113829
   8 H :    0.093404
   9 H :    0.102628
  10 H :    0.097283
  11 H :    0.289700
  12 H :    0.280875
  13 H :    0.286071

-------------------------------
LOEWDIN REDUCED ORBITAL CHARGES
-------------------------------
  0 C s       :     2.926340  s :     2.926340
      pz      :     1.070672  p :     3.076220
      px      :     0.904278
      py      :     1.101269
      dz2     :     0.034285  d :     0.142006
      dxz     :     0.026422
      dyz     :     0.008130
      dx2y2   :     0.040275
      dxy     :     0.032893

  1 C s       :     2.900473  s :     2.900473
      pz      :     1.085671  p :     3.028824
      px      :     1.065701
      py      :     0.877453
      dz2     :     0.036709  d :     0.157804
      dxz     :     0.015118
      dyz     :     0.033343
      dx2y2   :     0.041302
      dxy     :     0.031332

  2 C s       :     2.924380  s :     2.924380
      pz      :     1.097858  p :     3.059043
      px      :     1.083286
      py      :     0.877899
      dz2     :     0.035279  d :     0.141788
      dxz     :     0.011563
      dyz     :     0.027663
      dx2y2   :     0.033541
      dxy     :     0.033743

  3 O s       :     3.540700  s :     3.540700
      pz      :     1.821078  p :     4.777413
      px      :     1.506340
      py      :     1.449995
      dz2     :     0.002588  d :     0.026629
      dxz     :     0.004998
      dyz     :     0.004603
      dx2y2   :     0.010447
      dxy     :     0.003992

  4 O s       :     3.537994  s :     3.537994
      pz      :     1.888587  p :     4.767366
      px      :     1.445935
      py      :     1.432844
      dz2     :     0.004144  d :     0.026560
      dxz     :     0.001112
      dyz     :     0.003298
      dx2y2   :     0.014322
      dxy     :     0.003684

  5 O s       :     3.543328  s :     3.543328
      pz      :     1.392888  p :     4.767047
      px      :     1.558691
      py      :     1.815468
      dz2     :     0.010116  d :     0.026756
      dxz     :     0.003331
      dyz     :     0.004787
      dx2y2   :     0.004674
      dxy     :     0.003849

  6 H s       :     0.893119  s :     0.893119

  7 H s       :     0.886171  s :     0.886171

  8 H s       :     0.906596  s :     0.906596

  9 H s       :     0.897372  s :     0.897372

 10 H s       :     0.902717  s :     0.902717

 11 H s       :     0.710300  s :     0.710300

 12 H s       :     0.719125  s :     0.719125

 13 H s       :     0.713929  s :     0.713929


---------------------------------
LOEWDIN BOND ORDERS (THRESH 0.050000)
---------------------------------
B(  0-C ,  1-C ) :   1.0693 B(  0-C ,  2-C ) :   0.0577 B(  0-C ,  4-O ) :   0.0737 
B(  0-C ,  5-O ) :   1.2320 B(  0-C ,  6-H ) :   0.9026 B(  0-C ,  7-H ) :   0.9064 
B(  1-C ,  2-C ) :   1.0586 B(  1-C ,  3-O ) :   0.0623 B(  1-C ,  4-O ) :   1.2208 
B(  1-C ,  5-O ) :   0.0827 B(  1-C ,  8-H ) :   0.8707 B(  2-C ,  3-O ) :   1.2303 
B(  2-C ,  4-O ) :   0.0692 B(  2-C ,  9-H ) :   0.9079 B(  2-C , 10-H ) :   0.9079 
B(  3-O , 11-H ) :   0.8877 B(  4-O , 12-H ) :   0.8714 B(  5-O , 13-H ) :   0.8899 


------------------------------------------
LOEWDIN REDUCED ORBITAL POPULATIONS PER MO
-------------------------------------------
THRESHOLD FOR PRINTING IS 0.1%%
                      0         1         2         3         4         5   
                 -18.75419 -18.75261 -18.74087  -9.93378  -9.93059  -9.92724
                   2.00000   2.00000   2.00000   2.00000   2.00000   2.00000
                  --------  --------  --------  --------  --------  --------
 0 C  s               0.0       0.0       0.0       0.0       0.0      99.6
 1 C  s               0.0       0.0       0.0      99.6       0.0       0.0
 2 C  s               0.0       0.0       0.0       0.0      99.6       0.0
 3 O  s               0.0      99.9       0.0       0.0       0.0       0.0
 3 O  py              0.0       0.0       0.0       0.0       0.1       0.0
 4 O  s               0.0       0.0      99.9       0.0       0.0       0.0
 4 O  py              0.0       0.0       0.0       0.1       0.0       0.0
 5 O  s              99.9       0.0       0.0       0.0       0.0       0.0

                      6         7         8         9        10        11   
                  -0.93750  -0.92622  -0.90959  -0.67960  -0.60523  -0.53143
                   2.00000   2.00000   2.00000   2.00000   2.00000   2.00000
                  --------  --------  --------  --------  --------  --------
 0 C  s               8.0       1.6       1.0      10.3      19.3       1.4
 0 C  pz              1.5       0.3       0.3       0.0       0.9       3.9
 0 C  px              1.8       2.0       3.5       4.6       0.1       3.1
 0 C  py              1.0       0.1       0.2       0.1       0.0       0.6
 0 C  dxz             0.2       0.1       0.2       0.1       0.0       0.0
 0 C  dx2y2           0.2       0.1       0.1       0.0       0.0       0.0
 0 C  dxy             0.0       0.0       0.1       0.1       0.0       0.1
 1 C  s               6.7       0.1       5.0      18.0       0.0      11.0
 1 C  pz              0.3       0.0       0.1       0.7       0.1       5.0
 1 C  px              0.5       1.7       0.0       0.7      11.8       0.4
 1 C  py              0.9       0.2       8.0       5.2       1.0       0.3
 1 C  dz2             0.1       0.0       0.1       0.0       0.0       0.0
 1 C  dxz             0.0       0.0       0.0       0.0       0.2       0.0
 1 C  dx2y2           0.1       0.0       0.5       0.2       0.0       0.1
 1 C  dxy             0.0       0.0       0.1       0.0       0.1       0.0
 2 C  s               3.1       7.8       0.0      12.0      12.6       7.5
 2 C  pz              0.2       0.4       0.0       0.2       0.0       2.9
 2 C  px              0.2       0.5       0.7       3.9       0.1       3.0
 2 C  py              0.6       6.5       1.5       1.4       1.5       0.2
 2 C  dz2             0.0       0.1       0.0       0.0       0.0       0.0
 2 C  dyz             0.0       0.1       0.0       0.0       0.0       0.0
 2 C  dx2y2           0.0       0.4       0.1       0.1       0.0       0.0
 3 O  s               8.3      47.7       3.5       2.9       1.4       0.9
 3 O  pz              0.1       0.8       0.1       0.1       0.0       0.3
 3 O  px              0.1       0.8       0.1       2.4       1.6       2.2
 3 O  py              0.3       1.1       0.0       2.7       4.7       7.4
 3 O  dx2y2           0.0       0.0       0.0       0.1       0.1       0.1
 4 O  s              15.8       0.0      42.3       5.0       0.0       1.0
 4 O  pz              0.1       0.0       0.1       0.0       0.0       0.8
 4 O  px              0.4       0.0       1.0       2.0       1.2       4.7
 4 O  py              0.8       0.0       1.1       3.3       0.1       9.6
 4 O  dx2y2           0.0       0.0       0.0       0.1       0.0       0.2
 5 O  s              31.0      12.3      16.6       1.8       2.8       0.0
 5 O  pz              0.3       0.1       0.2       1.2       8.6       6.1
 5 O  px              1.3       0.4       0.4       1.2       5.6       0.8
 5 O  py              0.4       0.2       0.3       0.0       0.0       0.0
 6 H  s               1.0       0.1       0.2       2.4       5.0       0.5
 7 H  s               1.0       0.2       0.1       2.3       6.4       2.3
 8 H  s               0.9       0.0       0.5       3.6       0.0       7.1
 9 H  s               0.4       0.9       0.0       2.2       4.4       2.8
10 H  s               0.4       0.9       0.0       2.6       3.0       4.7
11 H  s               1.7       9.8       0.7       2.5       2.0       2.5
12 H  s               3.8       0.0       7.9       2.9       0.2       4.2
13 H  s               6.3       2.5       3.5       1.1       4.8       1.8

                     12        13        14        15        16        17   
                  -0.48999  -0.45776  -0.43080  -0.42245  -0.38150  -0.37008
                   2.00000   2.00000   2.00000   2.00000   2.00000   2.00000
                  --------  --------  --------  --------  --------  --------
 0 C  s               0.0       1.2       0.0       1.2       0.1       1.1
 0 C  pz              2.1       0.8       7.6       0.0      14.7       3.1
 0 C  px              4.6      10.6       0.1       1.5       0.7       1.7
 0 C  py              1.4       4.4       1.0      28.3       2.4       1.4
 0 C  dz2             0.0       0.0       0.0       0.0       0.1       0.2
 0 C  dx2y2           0.0       0.2       0.0       0.1       0.0       0.3
 0 C  dxy             0.0       0.1       0.0       0.0       0.0       0.1
 1 C  s               0.0       0.1       0.6       0.6       0.3       0.2
 1 C  pz              2.3       8.1       7.6       5.2       0.4       0.0
 1 C  px              1.0       0.4       1.8       5.7       5.1       9.9
 1 C  py              8.8       0.9       3.9       0.3       3.0       3.3
 1 C  dz2             0.0       0.0       0.1       0.0       0.1       0.1
 1 C  dxz             0.0       0.0       0.0       0.0       0.0       0.3
 1 C  dx2y2           0.0       0.0       0.4       0.1       0.3       0.0
 2 C  s               0.6       0.1       1.5       0.0       0.0       0.1
 2 C  pz              2.6       9.5       0.3       7.2      12.9       3.5
 2 C  px              1.7       0.5       6.7       2.8       1.3      21.5
 2 C  py             10.1       1.3       4.8       2.5       4.9       0.9
 2 C  dz2             0.0       0.0       0.1       0.0       0.0       0.2
 2 C  dxz             0.0       0.0       0.0       0.0       0.0       0.2
 2 C  dyz             0.1       0.0       0.1       0.0       0.0       0.0
 2 C  dx2y2           0.1       0.1       0.2       0.0       0.2       0.1
 3 O  s               0.4       0.4       2.3       0.0       0.2       0.5
 3 O  pz              0.9       2.1       0.5       1.7       6.7       0.3
 3 O  px             12.9       3.1      11.8       0.8       1.0       2.2
 3 O  py              5.6       5.0       0.8       0.0       2.9      15.3
 4 O  s               0.0       0.1       1.6       2.1       0.3       0.5
 4 O  pz              0.1       1.3       1.0       0.8       0.7       0.2
 4 O  px              9.5       0.2      12.6       4.6       2.5       0.2
 4 O  py              6.3       0.4       4.0       2.2       4.2       8.7
 4 O  dx2y2           0.1       0.0       0.1       0.0       0.1       0.0
 5 O  s               0.4       0.8       0.4       0.8       1.7       0.8
 5 O  pz              6.8      19.3       0.1       0.0       0.3       6.4
 5 O  px              0.5       4.6       3.1       0.0      11.2       0.4
 5 O  py              0.1       1.4       0.4       9.9       3.7       0.3
 5 O  dz2             0.0       0.1       0.0       0.0       0.0       0.0
 6 H  s               1.2       4.6       0.4      13.3       1.4       0.0
 7 H  s               0.7       0.9       2.3       0.0       7.4       4.1
 8 H  s               1.4       2.5       5.4       0.9       0.1       0.6
 9 H  s               2.8       0.0       6.5       4.0       1.7       4.9
10 H  s               2.1       4.4       1.3       2.5       4.1       3.2
11 H  s               5.5       2.5       3.1       0.1       0.5       0.5
12 H  s               4.4       0.1       4.6       0.3       2.2       0.6
13 H  s               1.9       7.2       0.1       0.1       0.1       1.9

                     18        19        20        21        22        23   
                  -0.34642  -0.29925  -0.28691  -0.27639  -0.23423  -0.21910
                   2.00000   2.00000   2.00000   2.00000   2.00000   2.00000
                  --------  --------  --------  --------  --------  --------
 0 C  s               0.2       0.1       0.2       0.2       0.1       0.0
 0 C  pz             11.6       0.2       3.2       2.4       0.2       0.0
 0 C  px              0.5       0.7       0.8       6.0       0.2       0.0
 0 C  py              1.2       0.8       6.5       0.3       1.1       0.5
 0 C  dz2             0.1       0.0       1.0       0.1       0.0       0.0
 0 C  dxz             0.1       0.0       0.1       0.1       0.1       0.0
 0 C  dx2y2           0.0       0.1       0.0       0.2       0.2       0.0
 0 C  dxy             0.0       0.0       0.0       0.2       0.5       0.0
 1 C  s               0.2       0.4       0.9       0.5       0.3       0.0
 1 C  pz             16.2       0.2       3.1       0.3       0.8       0.4
 1 C  px              0.0       0.5       0.0       5.4       5.2       0.3
 1 C  py              0.8       4.3       0.3       0.3       1.0       0.1
 1 C  dz2             0.5       0.0       0.1       0.0       0.4       0.0
 1 C  dyz             0.0       0.0       0.0       0.0       0.4       0.2
 1 C  dx2y2           0.2       0.0       0.0       0.1       0.0       0.0
 1 C  dxy             0.1       0.2       0.2       0.5       0.0       0.0
 2 C  s               0.0       0.3       0.1       0.4       0.4       0.1
 2 C  pz              6.5       1.2       1.2       1.2       2.9       1.9
 2 C  px              0.1       0.5       0.3       5.5       2.2       2.6
 2 C  py              3.0       3.8       0.2       0.2       0.1       0.4
 2 C  dz2             0.2       0.1       0.1       0.0       0.2       0.5
 2 C  dyz             0.0       0.0       0.0       0.0       0.3       0.5
 2 C  dx2y2           0.0       0.0       0.1       0.0       0.0       0.1
 2 C  dxy             0.0       0.4       0.1       0.3       0.0       0.4
 3 O  s               0.8       5.3       1.3       0.8       0.3       0.0
 3 O  pz              8.6      10.6       1.4       1.4      13.5      41.3
 3 O  px              0.0      13.4       3.7       3.1       0.4      15.2
 3 O  py              0.5      14.1       2.7       1.5       0.3       6.8
 4 O  s               0.2       3.8       1.5       1.9       0.6       0.0
 4 O  pz             11.1       3.8       0.5       0.0      19.0      13.6
 4 O  px              0.1      12.2       9.1      10.5       0.2       0.2
 4 O  py              0.0      13.3      10.7       2.9       0.2       0.1
 5 O  s               0.9       0.1       3.5       3.2       0.0       0.0
 5 O  pz              1.4       0.0      10.4       1.0       4.8       0.2
 5 O  px             12.8       0.0      15.7       5.9       9.3       0.5
 5 O  py              0.2       0.4       0.0      30.8      24.5       2.4
 6 H  s               0.1       1.0       4.9       3.4       1.9       0.3
 7 H  s               5.8       0.0       8.1       2.0       0.1       0.1
 8 H  s              10.1       0.1       2.3       0.0       3.8       0.6
 9 H  s               2.0       2.0       0.2       2.5       0.1       6.0
10 H  s               3.3       2.2       1.5       0.4       2.9       4.5
11 H  s               0.1       2.2       0.7       0.7       0.4       0.0
12 H  s               0.0       1.1       0.8       1.5       0.8       0.0
13 H  s               0.1       0.0       2.3       1.6       0.0       0.0

                     24        25        26        27        28        29   
                  -0.20626   0.01687   0.02731   0.06514   0.07707   0.08862
                   2.00000   0.00000   0.00000   0.00000   0.00000   0.00000
                  --------  --------  --------  --------  --------  --------
 0 C  s               0.6       0.0       1.6       1.0       1.6       3.6
 0 C  pz              0.6       1.0       0.4       3.7       6.8       1.4
 0 C  px              2.6       2.5       0.6       0.8       2.8       1.1
 0 C  py              3.7       0.4       1.6       0.3       0.3       0.2
 0 C  dz2             0.0       0.0       0.1       0.0       0.5       0.0
 0 C  dxz             0.0       0.2       0.1       0.2       1.0       0.2
 0 C  dyz             0.0       0.1       0.1       0.0       0.0       0.0
 0 C  dx2y2           0.4       0.3       0.0       0.0       0.1       0.1
 0 C  dxy             0.4       0.1       0.0       0.0       0.0       0.1
 1 C  s               0.4       0.0       1.0       0.1       2.8       2.6
 1 C  pz              3.5       0.8       1.6       0.0       6.5       1.4
 1 C  px              2.6       0.3       0.0       0.0       0.0       0.0
 1 C  py              1.1       1.6       0.1       2.2       1.3       0.4
 1 C  dz2             0.3       0.1       0.0       0.0       1.1       0.0
 1 C  dxz             0.0       0.2       0.0       0.0       0.1       0.0
 1 C  dyz             0.8       0.0       0.0       0.0       0.2       0.0
 1 C  dx2y2           0.0       0.6       0.0       0.1       0.1       0.1
 1 C  dxy             0.1       0.2       0.1       0.4       0.0       0.2
 2 C  s               0.0       1.1       0.8       6.1       1.3       3.4
 2 C  pz              0.2       0.6       0.5       1.7       3.8       1.5
 2 C  px              0.0       0.4       1.1       0.7       1.2       1.5
 2 C  py              0.1       4.9       1.9       0.8       0.9       0.2
 2 C  dz2             0.1       0.2       0.0       0.0       0.3       0.0
 2 C  dxz             0.0       0.1       0.0       0.1       0.3       0.4
 2 C  dx2y2           0.0       0.4       0.1       0.3       0.0       0.0
 2 C  dxy             0.1       0.4       0.1       0.1       0.0       0.0
 3 O  s               0.0       5.3       5.5       0.5       0.1       0.7
 3 O  pz              0.7       1.1       0.6       0.2       0.0       1.2
 3 O  px              0.6       2.4       3.1       0.0       0.1       3.5
 3 O  py              0.6       0.2       0.3       0.9       0.1       0.1
 4 O  s               0.1       2.2       0.1       6.5       1.0       2.7
 4 O  pz             41.2       0.0       0.2       0.0       0.1       0.7
 4 O  px              1.2       1.4       0.7       3.6       0.0       4.2
 4 O  py              3.5       0.7       0.2       0.2       0.1       0.0
 5 O  s               0.1       5.5       3.8       0.6       1.4       0.4
 5 O  pz              2.5       2.9       4.1       0.8       0.0       1.0
 5 O  px              4.0       0.9       0.1       0.1       0.8       0.6
 5 O  py             15.8       0.2       0.2       2.2       0.5       0.5
 5 O  dz2             0.0       0.0       0.0       0.1       0.0       0.0
 6 H  s               2.8       0.6       5.2       0.1       1.7       1.7
 7 H  s               0.6       0.1       0.7      11.2      15.9       8.4
 8 H  s               5.3       1.6       4.2       0.2      25.4       6.4
 9 H  s               1.4       2.2       2.9       3.7      13.2       5.8
10 H  s               0.9       3.2       1.7      12.6       3.3       8.2
11 H  s               0.0      21.5      29.2       0.3       0.1      13.3
12 H  s               0.3       8.0       1.7      29.7       1.9      20.6
13 H  s               0.1      23.3      23.6       7.8       1.1       0.9

                     30        31        32        33        34        35   
                   0.11172   0.12555   0.13052   0.14436   0.19097   0.20434
                   0.00000   0.00000   0.00000   0.00000   0.00000   0.00000
                  --------  --------  --------  --------  --------  --------
 0 C  s               7.0       2.7       1.4       1.8       4.9       0.8
 0 C  pz              0.0       5.3       1.5       1.2       7.3       0.8
 0 C  px              0.1       1.0       3.4       3.6      15.3       5.1
 0 C  py              7.9       4.7       3.4       0.4       5.0       0.1
 0 C  dz2             0.1       0.6       0.2       0.2       0.3       0.0
 0 C  dxz             0.2       0.3       0.3       0.2       1.8       0.1
 0 C  dyz             0.0       0.0       0.2       0.0       2.2       0.2
 0 C  dx2y2           0.2       0.2       0.2       1.0       1.2       0.8
 0 C  dxy             0.0       0.1       0.1       0.6       0.4       0.7
 1 C  s               0.5       0.3       5.3       0.6       0.1       0.1
 1 C  pz              2.2       0.2       2.9       0.1       1.9       0.3
 1 C  px              0.4       1.0       1.5       6.2       7.0       5.3
 1 C  py              1.7       3.2       1.2       7.0       5.0       5.2
 1 C  dz2             0.3       0.0       0.2       0.1       0.4       0.1
 1 C  dxz             0.0       1.5       0.1       0.9       0.9       0.2
 1 C  dyz             0.0       0.1       0.1       0.0       0.7       0.4
 1 C  dx2y2           0.4       0.8       0.2       2.5       0.2       1.5
 1 C  dxy             0.0       0.1       0.3       0.0       0.1       0.8
 2 C  s               3.5       2.4       1.1       0.3       2.4       7.6
 2 C  pz              0.3       8.8       2.9       0.6       0.3       8.3
 2 C  px              1.4       1.7       6.4       8.1       6.0       1.6
 2 C  py              1.3       0.4       1.7      14.5       0.4      20.4
 2 C  dz2             0.0       0.5       0.1       0.1       0.0       2.0
 2 C  dxz             0.0       0.1       0.0       0.7       1.2       1.2
 2 C  dyz             0.0       0.0       0.0       0.8       0.0       1.7
 2 C  dx2y2           0.0       0.0       0.0       3.3       0.1       1.1
 2 C  dxy             0.1       0.3       0.0       0.1       0.3       0.3
 3 O  s               0.6       0.1       0.2       0.7       0.1       3.1
 3 O  pz              0.0       0.2       0.2       0.3       0.3       0.1
 3 O  px              0.1       0.0       0.7       3.0       0.0       1.8
 3 O  py              0.1       0.1       0.6       6.9       0.2      11.7
 3 O  dxz             0.0       0.0       0.0       0.0       0.1       0.2
 3 O  dyz             0.0       0.1       0.0       0.2       0.0       0.0
 3 O  dx2y2           0.0       0.0       0.1       0.1       0.0       0.9
 3 O  dxy             0.0       0.1       0.0       0.0       0.0       0.2
 4 O  s               0.1       0.3       0.4       0.2       0.5       0.2
 4 O  pz              0.1       0.1       0.3       0.0       1.0       0.8
 4 O  px              0.1       0.2       0.1       2.3       0.0       0.8
 4 O  py              1.1       1.3       1.6       4.7       1.1       1.1
 4 O  dyz             0.0       0.0       0.1       0.0       0.2       0.0
 4 O  dx2y2           0.1       0.0       0.0       0.1       0.1       0.2
 4 O  dxy             0.0       0.0       0.0       0.0       0.0       0.2
 5 O  s               1.6       0.0       0.2       0.3       2.3       1.0
 5 O  pz              1.2       0.2       0.5       1.1       6.3       1.2
 5 O  px              0.0       0.0       0.0       3.6       6.6       2.4
 5 O  py              1.2       0.1       0.0       0.5       0.6       0.0
 5 O  dxz             0.0       0.1       0.1       0.0       0.4       0.0
 5 O  dx2y2           0.0       0.0       0.0       0.1       0.2       0.0
 5 O  dxy             0.1       0.1       0.0       0.1       0.1       0.0
 6 H  s              32.0       4.6      15.7       2.6       0.7       0.8
 7 H  s               1.4      23.9       1.7       0.0       1.7       0.5
 8 H  s               7.3       0.6      15.5       2.1       2.9       1.8
 9 H  s               9.6       4.3      24.2       0.1       2.7       0.2
10 H  s               4.3      26.2       2.2       0.4       0.5       1.2
11 H  s               0.5       0.5       0.5       6.9       0.7       1.3
12 H  s               0.1       0.2       0.4       7.5       0.2       0.9
13 H  s              10.3       0.7       0.2       1.2       4.9       0.5

                     36        37        38        39        40        41   
                   0.21737   0.23519   0.42972   0.43474   0.46194   0.47285
                   0.00000   0.00000   0.00000   0.00000   0.00000   0.00000
                  --------  --------  --------  --------  --------  --------
 0 C  s               4.6       0.2       0.7       8.7       0.3       0.6
 0 C  pz              7.4       1.1       3.4      15.5       0.5       1.3
 0 C  px             11.0       0.4      12.4       2.2      33.3       0.4
 0 C  py              8.4       1.8       0.1      13.0       3.7       1.7
 0 C  dz2             0.4       0.5       2.5       0.3       1.1       1.7
 0 C  dxz             0.8       0.1       0.5       0.0       0.0       0.1
 0 C  dyz             1.8       0.0       0.3       1.7       0.4       0.1
 0 C  dx2y2           0.6       0.0       0.0       0.8       0.2       0.3
 0 C  dxy             2.5       0.8       0.4       0.4       0.1       0.0
 1 C  s               4.3      17.8       0.4       0.2       0.4       5.6
 1 C  pz              6.2       7.3       0.1       1.6       2.7       2.0
 1 C  px             10.7       3.2      11.4       4.6       0.5       0.4
 1 C  py             11.4       7.9       3.0       8.6       1.4      11.6
 1 C  dz2             0.2       2.3       0.0       0.1       1.6       2.1
 1 C  dxz             1.3       0.5       2.5       0.1       0.0       0.4
 1 C  dyz             1.0       0.1       0.0       0.2       0.3       0.0
 1 C  dx2y2           0.8       0.3       0.0       0.0       0.4       0.1
 1 C  dxy             1.7       0.4       0.2       0.9       0.5       0.0
 2 C  s               0.1       1.5       4.0       2.8       4.1       6.4
 2 C  pz              2.6       2.2      14.1       1.1       1.4       0.5
 2 C  px              0.6      11.7       4.0       1.3       1.1       9.0
 2 C  py              1.2       2.2       4.1       2.7       9.0      22.2
 2 C  dz2             0.5       0.6       2.8       0.0       0.8       0.5
 2 C  dxz             0.0       1.1       0.6       0.0       1.0       0.1
 2 C  dyz             0.8       0.3       0.0       0.1       0.3       0.0
 2 C  dx2y2           0.5       1.7       0.5       0.0       0.2       0.1
 2 C  dxy             0.0       1.8       0.0       0.2       1.2       0.0
 3 O  s               0.1       0.4       0.2       0.1       0.1       0.1
 3 O  pz              0.5       0.4       1.2       0.2       0.4       0.4
 3 O  px              0.1       1.5       1.1       0.1       0.2       0.3
 3 O  py              0.1       0.3       1.1       0.8       1.8       2.1
 3 O  dz2             0.0       0.0       0.1       0.1       0.1       0.1
 3 O  dxz             0.1       0.0       0.0       0.1       0.0       0.1
 3 O  dyz             0.0       0.1       0.3       0.0       0.0       0.4
 3 O  dx2y2           0.0       0.1       0.1       0.0       0.7       1.2
 3 O  dxy             0.0       0.3       0.0       0.3       0.0       0.1
 4 O  s               0.2       2.3       0.1       0.4       0.1       0.1
 4 O  pz              0.8       0.0       0.0       1.3       1.2       1.8
 4 O  px              1.1       2.3       0.1       0.2       0.5       0.3
 4 O  py              0.2       9.7       0.2       2.4       0.2       1.3
 4 O  dxz             0.2       0.1       0.0       0.0       0.0       0.0
 4 O  dyz             0.2       0.0       0.0       0.0       0.0       0.3
 4 O  dx2y2           0.0       1.1       0.0       0.6       0.2       0.9
 4 O  dxy             0.1       0.2       0.0       0.1       0.0       0.0
 5 O  s               0.1       0.1       0.6       0.6       0.7       0.3
 5 O  pz              0.9       0.1       1.0       3.1       0.2       0.0
 5 O  px              0.8       0.4       2.1       2.0       1.8       0.1
 5 O  py              0.3       1.0       0.4       0.1       0.2       0.0
 5 O  dz2             0.0       0.0       0.7       0.8       0.0       0.0
 5 O  dxz             0.0       0.0       0.0       0.3       0.8       0.1
 5 O  dyz             0.3       0.0       0.1       0.8       0.0       0.0
 5 O  dx2y2           0.2       0.0       0.2       0.4       0.3       0.0
 5 O  dxy             0.0       0.1       0.0       0.1       0.1       0.0
 6 H  s               1.0       1.5       0.1       8.0       2.0       2.0
 7 H  s               1.4       4.5       6.4       0.4       2.2       4.6
 8 H  s               1.2       0.3       0.1       0.1       4.3       9.7
 9 H  s               1.3       1.0       0.0       0.0      10.6       0.0
10 H  s               4.8       1.4      10.4       0.1       1.0       2.3
11 H  s               0.2       1.4       0.2       1.7       0.7       1.6
12 H  s               1.6       1.4       0.1       1.0       1.2       1.2
13 H  s               0.7       0.3       4.9       6.6       1.7       0.7

                     42        43        44        45        46        47   
                   0.50675   0.51880   0.54805   0.56852   0.56984   0.58523
                   0.00000   0.00000   0.00000   0.00000   0.00000   0.00000
                  --------  --------  --------  --------  --------  --------
 0 C  s               1.9      13.2       8.8       3.6       1.1       4.7
 0 C  pz              0.7       6.7       0.6       3.1       2.5       3.1
 0 C  px              3.4       0.2       5.7      12.0       1.1       6.3
 0 C  py              1.7       2.3       2.5       2.5       5.0       1.2
 0 C  dz2             0.8       0.7       0.2       0.5       0.1       0.6
 0 C  dxz             0.0       0.1       0.1       0.0       1.3       0.0
 0 C  dyz             0.0       0.3       0.0       0.2       1.0       0.6
 0 C  dx2y2           1.3       0.0       0.0       0.1       0.2       0.7
 0 C  dxy             0.1       0.0       0.1       0.3       0.2       0.7
 1 C  s              10.7       0.7       5.6       5.1       2.0       0.1
 1 C  pz              0.5       0.4       1.4       0.7       7.0       1.0
 1 C  px              3.1       5.1       1.2       7.2       2.0       5.3
 1 C  py             13.5       2.9       5.0      22.2       0.1       1.0
 1 C  dz2             0.0       0.1       0.6       0.1       1.5       0.0
 1 C  dxz             0.2       1.0       0.1       0.0       0.1       0.1
 1 C  dyz             0.3       0.0       0.0       0.1       0.5       0.5
 1 C  dx2y2           0.6       0.0       0.0       0.0       0.0       0.3
 1 C  dxy             0.5       0.2       0.4       0.0       0.2       0.1
 2 C  s               0.7       3.1       6.4       0.3       0.7       7.0
 2 C  pz              3.3       0.6       2.0       0.1       8.5       2.4
 2 C  px             18.7       3.9       0.5       4.8       0.0       2.4
 2 C  py             13.8       3.0       3.2       0.3       0.4       3.8
 2 C  dz2             0.1       0.6       0.0       0.2       0.6       1.6
 2 C  dxz             0.4       0.4       0.2       0.2       1.0       0.3
 2 C  dyz             0.0       1.0       0.2       0.0       0.0       1.3
 2 C  dx2y2           0.4       0.0       0.0       0.0       0.1       0.1
 2 C  dxy             0.0       0.2       1.5       0.0       0.1       0.7
 3 O  s               0.7       0.2       0.9       0.3       0.1       0.8
 3 O  pz              0.8       0.3       2.9       1.3       1.8       3.0
 3 O  px              1.1       2.3       1.7       1.8       1.3       0.8
 3 O  py              1.7       1.1       0.6       0.2       0.1       0.8
 3 O  dz2             0.1       0.5       0.1       0.1       0.0       0.1
 3 O  dxz             0.1       1.1       0.5       0.5       0.0       0.1
 3 O  dyz             0.0       0.0       0.0       0.0       0.1       0.2
 3 O  dx2y2           0.3       0.3       0.8       0.4       0.0       0.0
 3 O  dxy             0.1       0.6       0.6       0.0       0.0       0.0
 4 O  s               0.3       0.3       0.5       2.0       0.0       0.3
 4 O  pz              0.2       0.1       0.0       1.1       1.5       0.1
 4 O  px              0.5       3.1       0.9       1.2       0.4       3.8
 4 O  py              1.8       1.9       1.1       0.2       0.2       2.3
 4 O  dz2             0.7       0.4       0.3       0.1       0.0       0.5
 4 O  dxz             0.0       0.1       0.0       0.1       0.0       0.3
 4 O  dyz             0.0       0.0       0.0       0.0       0.2       0.0
 4 O  dx2y2           0.3       1.1       0.3       0.1       0.0       0.8
 4 O  dxy             0.6       0.0       0.2       0.0       0.1       0.0
 5 O  s               0.3       0.5       0.8       0.3       1.0       0.2
 5 O  pz              0.1       0.6       0.4       0.5       4.3       1.3
 5 O  px              0.2       1.4       0.0       0.2       2.3       1.0
 5 O  py              1.0       0.0       0.5       0.2       1.2       2.8
 5 O  dz2             0.0       0.0       0.0       0.1       2.7       0.1
 5 O  dxz             0.1       0.4       0.1       0.0       0.1       0.1
 5 O  dyz             0.0       0.1       0.0       0.0       1.0       0.0
 5 O  dx2y2           0.0       0.1       0.0       0.0       0.0       0.3
 5 O  dxy             0.2       0.0       0.0       0.0       0.0       0.1
 6 H  s               6.0       0.1       2.1       0.2       0.1       6.8
 7 H  s               1.5       2.4       0.2       5.4       0.9       0.3
 8 H  s               0.6       0.3       3.0       6.8       2.4       0.0
 9 H  s               0.7       0.7       7.3       1.2       0.4       4.4
10 H  s               1.0       1.2       0.2       0.3       2.2       6.5
11 H  s               0.5      18.1      19.2      10.9       0.1       0.8
12 H  s               1.2      12.8       7.7       0.1       0.5      14.7
13 H  s               0.3       1.1       0.5       0.4      37.6       0.7

                     48        49        50        51        52        53   
                   0.61227   0.62405   0.64935   0.65516   0.66803   0.67058
                   0.00000   0.00000   0.00000   0.00000   0.00000   0.00000
                  --------  --------  --------  --------  --------  --------
 0 C  s               2.2       6.1       2.2       1.8      14.5       0.6
 0 C  pz              1.2      16.1      11.5       0.9       6.1       4.0
 0 C  px              0.3       0.0       0.3       0.4       0.3       0.3
 0 C  py              6.7       4.2       3.2      17.6       2.2       2.1
 0 C  dz2             0.2       0.1       0.0       0.2       0.0       0.6
 0 C  dx2y2           0.7       0.0       0.6       0.1       0.0       0.1
 0 C  dxy             0.3       0.1       0.0       0.0       0.1       0.0
 1 C  s               2.7       0.4       4.7       0.2       5.2      13.9
 1 C  pz              0.4       8.1       0.3      10.0      11.7       7.6
 1 C  px             26.6       0.5       4.5       0.3       0.2       0.1
 1 C  py              0.7       0.2       1.6       2.0       4.2       0.2
 1 C  dz2             0.5       0.0       0.1       0.4       0.0       0.3
 1 C  dxz             0.0       0.1       0.1       0.0       0.0       0.0
 1 C  dyz             0.0       0.0       0.0       0.4       0.3       0.1
 1 C  dxy             0.1       0.1       0.0       0.0       0.1       0.0
 2 C  s               1.3       0.6       0.2      13.4       6.6       9.2
 2 C  pz              0.2      17.5       6.7       4.5       2.2       5.0
 2 C  px              8.7       1.4       9.4       4.5       2.7       4.1
 2 C  py              2.3       0.1       5.3       7.3       0.8       3.9
 2 C  dz2             0.0       0.5       0.4       0.1       0.1       0.3
 2 C  dxz             0.1       0.1       0.0       0.0       0.0       0.2
 2 C  dyz             0.0       0.0       0.1       0.0       0.4       0.0
 2 C  dxy             0.2       0.0       0.5       0.2       0.3       0.0
 3 O  s               0.3       0.4       0.7       0.7       2.0       0.3
 3 O  pz              0.0       0.3       0.0       0.0       2.0       3.2
 3 O  px              0.5       1.7       0.5       0.6       0.6       0.9
 3 O  py              0.3       0.7       0.0       0.3       1.7       0.1
 3 O  dxz             0.0       0.1       0.0       0.0       0.0       0.1
 3 O  dx2y2           0.0       0.1       0.1       0.0       0.0       0.1
 3 O  dxy             0.1       0.0       0.0       0.0       0.1       0.1
 4 O  s               0.6       0.5       0.2       0.4       1.0       0.5
 4 O  pz              0.3       0.1       0.1       0.7       3.6       0.0
 4 O  px              2.4       0.7       0.2       0.4       2.5       4.0
 4 O  py              0.2       0.1       0.1       0.9       0.2       1.6
 4 O  dz2             0.3       0.0       0.1       0.1       0.0       0.3
 4 O  dx2y2           0.7       0.3       0.0       0.0       0.0       0.3
 5 O  s               0.5       0.3       0.8       0.1       1.4       0.0
 5 O  pz              0.0       0.6       0.0       0.5       0.3       4.5
 5 O  px              0.7       1.3       0.7       0.0       0.1       1.5
 5 O  py              1.3       1.5       0.0       0.3       0.0       0.8
 5 O  dxy             0.1       0.0       0.0       0.0       0.0       0.0
 6 H  s               7.7       0.3      11.5       8.0       0.8       0.3
 7 H  s               1.1       9.3      13.5       2.2       1.1       0.8
 8 H  s               6.7       4.7       1.2      11.4       2.4       6.6
 9 H  s               4.3       0.9      13.3       6.3      11.0       3.7
10 H  s               3.5      11.3       3.0       1.2       8.2       1.3
11 H  s               0.8       3.1       0.4       0.5       0.6       5.0
12 H  s              11.7       4.2       0.8       0.8       2.2       7.3
13 H  s               0.1       0.9       0.5       0.1       0.1       3.9

                     54        55        56        57        58        59   
                   0.68561   0.70345   0.81002   0.90495   0.94422   0.96713
                   0.00000   0.00000   0.00000   0.00000   0.00000   0.00000
                  --------  --------  --------  --------  --------  --------
 0 C  s               0.3       1.2       0.6      16.5       1.0       1.4
 0 C  pz              7.2       7.2       2.1       0.5       1.1       0.2
 0 C  px              2.0       0.2       0.7       6.5       0.6       0.2
 0 C  py             17.2       0.9       0.0       1.2       0.4       0.2
 0 C  dz2             0.1       1.0       0.3       0.2       0.2       0.1
 0 C  dxz             0.1       0.2       0.0       1.5       0.8       0.1
 0 C  dyz             0.2       0.6       0.0       0.8       0.2       0.0
 0 C  dx2y2           0.0       0.0       0.0       0.0       0.8       0.4
 0 C  dxy             0.2       0.4       0.0       0.4       0.0       0.3
 1 C  s               0.2       0.1      21.7       2.8       0.2       0.2
 1 C  pz              7.4      21.8       0.6       0.0       1.0       0.0
 1 C  px              5.9       5.4       0.1       0.3       0.1       0.4
 1 C  py              0.0       0.9       2.1       0.1       0.1       0.4
 1 C  dz2             0.2       1.3       0.2       0.0       1.1       0.1
 1 C  dxz             0.0       0.1       0.5       0.5       0.4       0.2
 1 C  dyz             0.0       0.1       0.3       0.0       0.5       0.0
 1 C  dx2y2           0.1       0.1       0.5       0.5       0.1       0.3
 1 C  dxy             0.2       0.0       0.4       0.0       0.2       0.0
 2 C  s               3.1       2.3      16.1       3.0       0.3       0.7
 2 C  pz             19.0       1.9       0.0       1.4       0.2       0.2
 2 C  px              0.8       0.2       0.0       4.4       0.7       1.0
 2 C  py              0.0       1.7       0.2       4.1       0.2       0.3
 2 C  dz2             0.1       0.1       0.0       0.5       0.5       0.2
 2 C  dxz             0.3       1.3       0.1       0.2       0.5       0.4
 2 C  dyz             0.0       0.2       0.2       0.1       0.4       0.2
 2 C  dx2y2           0.0       0.8       0.2       0.0       0.2       0.3
 2 C  dxy             0.0       0.2       1.1       0.1       0.2       0.0
 3 O  s               0.4       0.3       3.2       8.7       0.3      13.4
 3 O  pz              0.2       0.3       6.2       0.1      14.1      10.9
 3 O  px              0.5       3.7      11.1       1.8       4.3       0.0
 3 O  py              0.5       0.1       0.1       4.0       0.4      39.1
 3 O  dz2             0.0       0.1       0.1       0.2       0.1       0.1
 3 O  dxz             0.2       0.0       0.2       0.0       0.0       0.0
 3 O  dyz             0.0       0.0       0.0       0.0       0.1       0.3
 3 O  dx2y2           0.1       0.0       0.0       0.0       0.0       0.4
 4 O  s               0.1       0.1       3.9       4.9       3.5       0.8
 4 O  pz              0.1       0.7       4.9       2.0      16.7       0.2
 4 O  px              0.5       0.9       5.3       3.5       0.2       1.5
 4 O  py              1.1       2.0       0.1       6.4       4.1       2.0
 4 O  dz2             0.0       0.0       0.1       0.0       0.0       0.1
 4 O  dxz             0.0       0.0       0.2       0.3       0.0       0.1
 4 O  dyz             0.0       0.2       0.0       0.0       0.1       0.0
 4 O  dx2y2           0.1       0.1       0.0       0.0       0.1       0.0
 4 O  dxy             0.3       0.0       0.0       0.0       0.0       0.0
 5 O  s               0.8       0.2       0.2       0.2      14.1       2.5
[...]
                   0.00000   0.00000   0.00000   0.00000   0.00000   0.00000
                  --------  --------  --------  --------  --------  --------
 0 C  s               0.0       0.1       0.1       0.0       0.1       0.1
 0 C  px              0.0       0.0       0.1       0.2       0.0       0.0
 0 C  py              0.0       0.0       0.4       0.1       0.0       0.0
 0 C  dz2             0.0       0.0       0.6       1.1       1.1       0.1
 0 C  dxz             0.0       0.1       0.6       0.3       0.8       0.0
 0 C  dyz             0.0       0.3       1.2       0.6       0.6       0.0
 0 C  dx2y2           0.0       0.6       0.1       2.8       2.3       0.0
 0 C  dxy             0.3       1.1       0.8       5.5       0.0       0.4
 1 C  pz              0.1       0.3       0.3       0.1       0.1       0.0
 1 C  px              0.1       0.1       0.5       0.6       0.0       0.0
 1 C  py              0.0       0.0       0.0       0.2       0.1       0.0
 1 C  dz2             0.0       1.7       0.8       0.2       0.0       0.5
 1 C  dxz             0.2       0.0       1.7       1.8       0.2       0.0
 1 C  dyz             0.6       2.9       2.0       3.6       2.8       0.0
 1 C  dx2y2           0.0       0.1       0.1       0.5       1.4       0.0
 1 C  dxy             0.1       5.0       3.2       0.4       0.2       0.1
 2 C  s               0.0       0.0       0.1       0.2       0.0       0.0
 2 C  pz              0.6       0.0       0.0       0.0       0.0       0.0
 2 C  px              0.1       0.3       0.0       0.1       0.0       0.0
 2 C  dz2             1.4       0.0       1.0       0.0       0.0       0.0
 2 C  dxz             0.5       1.0       0.1       0.3       0.0       0.3
 2 C  dyz             5.5       0.1       1.4       0.0       0.4       0.1
 2 C  dx2y2           1.9       0.0       0.1       0.1       0.1       0.2
 2 C  dxy             1.1       2.1       0.2       1.1       1.7       0.3
 3 O  s               0.0       0.3       0.2       0.1       0.5       1.0
 3 O  pz              0.6       0.0       0.1       0.0       0.0       0.1
 3 O  px              0.1       0.9       0.2       0.1       0.1       0.2
 3 O  dz2            12.7       4.8       0.0       0.1       3.5       4.1
 3 O  dxz             2.9      16.9       1.9       2.3       2.0       8.0
 3 O  dyz            36.7       0.5       6.4       0.2       0.1       0.0
 3 O  dx2y2          11.4       1.0       2.3       0.3       1.6       4.9
 3 O  dxy            10.2       1.7       0.0       0.0      10.4      13.4
 4 O  s               0.0       0.1       0.5       0.1       0.1       1.5
 4 O  pz              0.1       0.3       0.2       0.1       0.1       0.0
 4 O  px              0.0       1.0       1.1       0.1       0.0       1.0
 4 O  dz2             0.0       4.3      14.6       9.4       3.0      21.4
 4 O  dxz             0.1       1.0       2.0       1.0       0.3       0.9
 4 O  dyz             8.6      28.4      17.3       5.2       6.4       0.7
 4 O  dx2y2           1.0       4.5       0.4       0.2       2.1      12.7
 4 O  dxy             0.3      10.9      13.4       1.8       0.3       3.8
 5 O  s               0.0       0.0       0.0       1.1       1.1       0.4
 5 O  pz              0.0       0.0       0.1       0.6       0.3       0.2
 5 O  px              0.0       0.0       0.0       0.3       0.0       0.0
 5 O  py              0.0       0.0       0.4       0.1       0.3       0.0
 5 O  dz2             0.2       0.1       3.2       4.4      35.0       8.0
 5 O  dxz             0.1       0.0       1.8       0.0       7.8       1.0
 5 O  dyz             0.0       1.3       0.0      24.2       3.7       5.2
 5 O  dx2y2           0.1       1.2       2.7      18.5       0.9       0.8
 5 O  dxy             1.8       2.3      14.0       6.5       3.1       0.2
11 H  s               0.0       1.5       0.4       0.3       1.1       2.5
12 H  s               0.1       0.7       0.6       0.6       0.0       3.9
13 H  s               0.0       0.0       0.4       2.0       3.6       1.2

                     96        97        98        99   
                   2.94650   3.25549   3.28415   3.31530
                   0.00000   0.00000   0.00000   0.00000
                  --------  --------  --------  --------
 0 C  s               0.2       0.9       1.3       0.6
 0 C  pz              0.0       0.2       0.2       0.1
 0 C  px              0.1       1.1       2.0       0.2
 0 C  py              0.0       0.1       0.1       0.1
 0 C  dz2             0.0       0.1       0.4       0.1
 0 C  dxz             1.0       1.3       2.6       0.5
 0 C  dyz             0.1       0.2       0.0       0.3
 0 C  dx2y2           2.4       1.5       3.0       0.2
 0 C  dxy             0.3       0.5       1.6       0.0
 1 C  s               0.2       0.2       0.5       1.3
 1 C  px              0.1       0.0       0.1       0.2
 1 C  py              0.1       0.0       0.8       3.1
 1 C  dz2             0.1       0.3       0.3       1.4
 1 C  dxz             0.1       0.1       0.0       0.2
 1 C  dyz             0.0       0.0       0.0       1.3
 1 C  dx2y2           0.9       0.0       2.8       7.0
 1 C  dxy             7.6       0.7       1.0       0.1
 2 C  s               0.2       1.7       0.5       0.3
 2 C  pz              0.1       0.1       0.1       0.0
 2 C  px              0.2       0.1       0.1       0.2
 2 C  py              0.2       2.0       0.5       0.9
 2 C  dz2             0.0       1.3       0.3       0.0
 2 C  dxz             0.8       0.2       0.0       0.1
 2 C  dyz             1.3       1.1       0.1       1.0
 2 C  dx2y2           0.0       3.8       1.8       1.9
 2 C  dxy             0.8       1.0       0.8       0.1
 3 O  s               1.3       2.0       0.6       0.9
 3 O  px              0.1       0.4       0.2       0.3
 3 O  py              0.1       2.2       0.8       0.7
 3 O  dz2             7.5       4.6       1.5       2.2
 3 O  dxz             4.9       0.8       0.3       0.3
 3 O  dyz             0.4       8.7       3.7       1.1
 3 O  dx2y2           0.5      28.0       8.8       6.2
 3 O  dxy            15.4       1.9       0.2       2.6
 4 O  s               0.9       0.1       0.6       3.4
 4 O  px              0.0       0.0       0.1       0.6
 4 O  py              0.0       0.1       0.8       2.9
 4 O  dz2             8.7       0.5       1.2       8.9
 4 O  dxz             0.0       0.0       0.0       0.1
 4 O  dyz             0.9       0.4       2.4       2.5
 4 O  dx2y2           4.5       1.8      12.9      36.1
 4 O  dxy            26.7       0.7       0.2       1.5
 5 O  s               0.1       1.5       2.2       0.6
 5 O  pz              0.0       0.6       1.0       0.1
 5 O  px              0.0       1.0       1.5       0.3
 5 O  dz2             3.6       2.8       3.4       1.1
 5 O  dxz             0.9       8.2      14.8       1.6
 5 O  dyz             0.1       1.3       2.0       0.1
 5 O  dx2y2           1.0       9.8      13.0       3.0
 5 O  dxy             1.6       3.1       5.9       0.5
11 H  s               1.6       0.5       0.3       0.1
12 H  s               1.9       0.0       0.3       0.5
13 H  s               0.2       0.3       0.4       0.1


                      *****************************
                      * MAYER POPULATION ANALYSIS *
                      *****************************

  NA   - Mulliken gross atomic population
  ZA   - Total nuclear charge
  QA   - Mulliken gross atomic charge
  VA   - Mayer's total valence
  BVA  - Mayer's bonded valence
  FA   - Mayer's free valence

  ATOM       NA         ZA         QA         VA         BVA        FA
  0 C      6.0028     6.0000    -0.0028     3.9708     3.9708     0.0000
  1 C      5.9960     6.0000     0.0040     4.1249     4.1249    -0.0000
  2 C      5.9785     6.0000     0.0215     3.9743     3.9743    -0.0000
  3 O      8.4380     8.0000    -0.4380     1.9923     1.9923     0.0000
  4 O      8.4325     8.0000    -0.4325     1.9976     1.9976    -0.0000
  5 O      8.4349     8.0000    -0.4349     2.0154     2.0154    -0.0000
  6 H      0.9082     1.0000     0.0918     0.9756     0.9756     0.0000
  7 H      0.9168     1.0000     0.0832     0.9695     0.9695    -0.0000
  8 H      0.9499     1.0000     0.0501     0.9650     0.9650    -0.0000
  9 H      0.9146     1.0000     0.0854     0.9519     0.9519    -0.0000
 10 H      0.9317     1.0000     0.0683     0.9604     0.9604    -0.0000
 11 H      0.6950     1.0000     0.3050     0.8770     0.8770     0.0000
 12 H      0.7008     1.0000     0.2992     0.9078     0.9078    -0.0000
 13 H      0.7003     1.0000     0.2997     0.8820     0.8820    -0.0000

  Mayer bond orders larger than 0.100000
B(  0-C ,  1-C ) :   1.0580 B(  0-C ,  5-O ) :   1.0534 B(  0-C ,  6-H ) :   0.9140 
B(  0-C ,  7-H ) :   0.9121 B(  1-C ,  2-C ) :   1.0536 B(  1-C ,  4-O ) :   1.0739 
B(  1-C ,  8-H ) :   0.8876 B(  2-C ,  3-O ) :   1.0770 B(  2-C ,  9-H ) :   0.9179 
B(  2-C , 10-H ) :   0.9096 B(  3-O , 11-H ) :   0.8504 B(  4-O , 12-H ) :   0.8340 
B(  5-O , 13-H ) :   0.8525 

-------
TIMINGS
-------

Total SCF time: 0 days 0 hours 0 min 4 sec 

Total time                  ....       4.635 sec
Sum of individual times     ....       4.214 sec  ( 90.9%)

SCF preparation             ....       0.172 sec  (  3.7%)
Fock matrix formation       ....       3.445 sec  ( 74.3%)
  Startup                   ....       0.045 sec  (  1.3% of F)
  Split-RI-J                ....       0.975 sec  ( 28.3% of F)
  XC integration            ....       1.954 sec  ( 56.7% of F)
    Basis function eval.    ....       0.688 sec  ( 35.2% of XC)
    Density eval.           ....       0.220 sec  ( 11.2% of XC)
    XC-Functional eval.     ....       0.217 sec  ( 11.1% of XC)
    XC-Potential eval.      ....       0.382 sec  ( 19.5% of XC)
Diagonalization             ....       0.000 sec  (  0.0%)
Density matrix formation    ....       0.138 sec  (  3.0%)
Total Energy calculation    ....       0.029 sec  (  0.6%)
Population analysis         ....       0.064 sec  (  1.4%)
Orbital Transformation      ....       0.056 sec  (  1.2%)
Orbital Orthonormalization  ....       0.000 sec  (  0.0%)
DIIS solution               ....       0.233 sec  (  5.0%)
  MO trafo                  ....       0.000 sec  (  0.0 % of DIIS)
  Orb grad                  ....       0.000 sec  (  0.0 % of DIIS)
  Energy W gradient         ....       0.000 sec  (  0.0 % of DIIS)
  DIIS error                ....       0.001 sec  (  0.6 % of DIIS)
  DIIS work                 ....       0.191 sec  ( 81.8 % of DIIS)
  Form Q                    ....       0.000 sec  (  0.0 % of DIIS)
  Form QpQm                 ....       0.000 sec  (  0.0 % of DIIS)
  Exp/Cayley                ....       0.000 sec  (  0.0 % of DIIS)
  Orb update                ....       0.000 sec  (  0.0 % of DIIS)
  Wake-sleep                ....       0.013 sec  (  5.7 % of DIIS)
SOSCF solution              ....       0.077 sec  (  1.7%)
  MO trafo                  ....       0.047 sec  ( 61.4 % of SOSCF)
  Orb grad                  ....       0.001 sec  (  1.5 % of SOSCF)
  Rot update                ....       0.011 sec  ( 14.8 % of SOSCF)
  Step                      ....       0.017 sec  ( 22.2 % of SOSCF)
Finished LeanSCF after   4.7 sec

Maximum memory used throughout the entire LEANSCF-calculation: 9.4 MB


-------------------------------------------------------------------------------
                          DFT DISPERSION CORRECTION                            
                                                                               
                                DFTD4 V3.4.0                                   
-------------------------------------------------------------------------------
The PBE functional is recognized
Active option DFTDOPT                   ...         5   

-------------------------   ----------------
Dispersion correction           -0.009012199
-------------------------   ----------------

------------------   -----------------
gCP correction             0.082444554
------------------   -----------------

-------------------------   --------------------
FINAL SINGLE POINT ENERGY      -344.009121377775
-------------------------   --------------------


------------------------------------------------------------------------------
                              ORCA PROPERTY CALCULATIONS
------------------------------------------------------------------------------

GBWName                                 ... sp.gbw
Number of atoms                         ...     14
Number of basis functions               ...    100
Max core memory                         ...   1024 MB

Electric properties:
Dipole moment                           ... YES
Quadrupole moment                       ...  NO
Static polarizability (Dipole/Dipole)   ...  NO
Static polarizability (Dipole/Quad.)    ...  NO
Static polarizability (Quad./Quad.)     ...  NO
Static polarizability (Velocity)        ...  NO

Atomic electric properties:
Dipole moment                           ...  NO
Quadrupole moment                       ...  NO
Static polarizability                   ...  NO

Choice of electric origin               ... Center of mass
Position of electric origin             ...     0.000009    -0.000004    -0.000006

General magnetic properties:
Magnetizability                         ...  NO

EPR properties:
g-Tensor (aka g-matrix)                 ...  NO
Zero-Field splitting spin-orbit         ...  NO
Zero-field splitting spin-spin          ...  NO
Hyperfine couplings                     ...  NO (   0 nuclei)
Quadrupole couplings                    ...  NO (   0 nuclei)
Contact density                         ...  NO (   0 nuclei)

NMR properties:
Chemical shifts                         ...  NO (   0 nuclei)
Spin-rotation constants                 ...  NO (   0 nuclei)
Spin-spin couplings                     ...  NO (   0 nuclei,    0 pairs)

Choice of magnetic origin               ... GIAO
Position of magnetic origin             ...     0.000000     0.000000     0.000000

Properties with geometric perturbations:
SCF Hessian                             ...  NO
IR spectrum                             ...  NO
VCD spectrum                            ...  NO
X-ray spectroscopy properties:
SCF XES/XAS/RIXS spectra                ...  NO


-------------
DIPOLE MOMENT
-------------

Method             : SCF
Type of density    : Electron Density
Multiplicity       :   1
Irrep              :   0
Energy             :  -344.0825537331524515 Eh
Relativity type    : 
Basis              : AO
                                X                 Y                 Z
Electronic contribution:     -0.870092476       0.625936655       0.743281715
Nuclear contribution   :      1.201278956      -1.075213669      -0.608541188
                        -----------------------------------------
Total Dipole Moment    :      0.331186481      -0.449277014       0.134740527
                        -----------------------------------------
Magnitude (a.u.)       :      0.574185797
Magnitude (Debye)      :      1.459464311



--------------------
Rotational spectrum 
--------------------
 
Rotational constants in cm-1:             0.179573             0.079205             0.059165 
Rotational constants in MHz :          5383.470820          2374.505012          1773.708193 

Dipole components along the rotational axes: 
x,y,z [a.u.] :    -0.438133    -0.329993     0.169803 
x,y,z [Debye]:    -1.113647    -0.838776     0.431605 

 

Dipole moment calculation done in   0.0 sec 

Maximum memory used throughout the entire PROP-calculation: 6.0 MB

--------------------------------
SUGGESTED CITATIONS FOR THIS RUN
--------------------------------

Below you find a list of papers that are relevant to this ORCA run
We neither can nor want to force you to cite these papers, but we appreciate if you do
You receive ORCA, which is the product of decades of hard work by many enthusiastic individuals, for free
The only thing we kindly ask in return is that you cite our papers,
We deeply appreciate it, if you show your appreciation for ORCA by not just citing the generic ORCA reference.

Please note that relegating all ORCA citations to the supporting information does *not* help us.
SI sections are not indexed - citations you put there will not count into any citation statistics
But we need these citations in order to attract the funding resources that allow us to do what we are doing

Therefore, if you are a happy ORCA user, please consider citing a few of the papers listed below in the main body of your paper

In addition to the list printed below, the program has created the file sp.bibtex that contains the list in bibtex format
You can import this file easily into all common literature databanks and citation aid programs


List of essential papers. We consider these as the minimum necessary citations

  1. Neese,F.
     Software update: the ORCA program system, version 5.0
     WIRES Comput. Molec. Sci., 2022 12(1)e1606
     doi.org/10.1002/wcms.1606

List of papers to cite with high priority. The work reported in these papers was absolutely
necessary for this run to complete.
Our perspective: the developers of density functionals and basis sets usually get cited in chemistry papers
Good! But without the algorithms to do something with them, the functionals or basis sets would not do anything.
Hence, in our opinion, the algorithm design and method developments papers are equally worthy of getting cited

  1. Neese,F.
     An improvement of the resolution of the identity approximation for the formation of the Coulomb matrix
     J. Comp. Chem., 2003 24(14)1740-1747
     doi.org/10.1002/jcc.10318
  2. Neese,F.
     The SHARK Integral Generation and Digestion System
     J. Comp. Chem., 2022  1-16
     doi.org/10.1002/jcc.26942
  3. Caldeweyher,E.; Bannwarth,C.; Grimme,S.
     Extension of the D3 dispersion coefficient model
     J. Chem. Phys., 2017 147 034112-XXXX
     doi.org/10.1063/1.4993215
  4. Caldeweyher,E.; Ehlert,S.; Hansen,A.; Neugebauer,H.; Spicher,S.; Bannwarth,C.; Grimme,S.
     A generally applicable atomic-charge dependent London dispersion correction
     J. Chem. Phys., 2019 150 154122-XXXX
     doi.org/10.1063/1.5090222
  5. Caldeweyher,E.; Mewes,J.; Ehlert,S.; Grimme,S.
     Extension and evaluation of the D4 London-dispersion model for periodic systems
     Phys. Chem. Chem. Phys., 2020 22(16)8499-8512
     doi.org/10.1039/D0CP00502A

List of suggested additional citations. These are papers that are important in the 'surrounding' of 
of this run, or papers that preceded the highly important papers. If you like your results we are grateful for a citation.

  1. Neese,F.
     The ORCA program system
     WIRES Comput. Molec. Sci., 2012 2(1)73-78
     doi.org/10.1002/wcms.81
  2. Neese,F.
     Software update: the ORCA program system, version 4.0
     WIRES Comput. Molec. Sci., 2018 8(1)1-6
     doi.org/10.1002/wcms.1327
  3. Neese,F.; Wennmohs,F.; Becker,U.; Riplinger,C.
     The ORCA quantum chemistry program package
     J. Chem. Phys., 2020 152 Art. No. L224108
     doi.org/10.1063/5.0004608

List of optional additional citations

  1. Neese,F.
     Approximate second-order SCF convergence for spin unrestricted wavefunctions
     Chem. Phys. Lett., 2000 325(1-3)93-98
     doi.org/10.1016/s0009-2614(00)00662-x

Timings for individual modules:

Sum of individual times          ...        5.933 sec (=   0.099 min)
Startup calculation              ...        0.564 sec (=   0.009 min)   9.5 %
SCF iterations                   ...        5.272 sec (=   0.088 min)  88.9 %
Property calculations            ...        0.097 sec (=   0.002 min)   1.6 %
                             ****ORCA TERMINATED NORMALLY****
TOTAL RUN TIME: 0 days 0 hours 0 minutes 8 seconds 106 msec
