 Entering Gaussian System
 *********************************************
 Gaussian 98:
 frequency output generated by the xtb code
 *********************************************
                         Standard orientation:
 --------------------------------------------------------------------
  Center     Atomic     Atomic              Coordinates (Angstroms)
  Number     Number      Type              X           Y           Z
 --------------------------------------------------------------------
    1          6             0       -2.010138    0.342782    1.479591
    2          6             0       -2.140392   -0.334421    0.118217
    3          6             0       -3.568332   -0.210070   -0.406347
    4          6             0       -1.158598    0.286365   -0.891443
    5          6             0        0.265883    0.087816   -0.484829
    6          6             0        0.859804   -1.177475   -0.462728
    7          7             0        2.110030   -1.365562   -0.076120
    8          6             0        2.796288   -0.288693    0.290123
    9          6             0        2.224696    0.973932    0.254090
   10          7             0        0.969459    1.159569   -0.129340
   11          1             0       -0.998864    0.239358    1.867943
   12          1             0       -2.698065   -0.104093    2.193118
   13          1             0       -2.236484    1.403097    1.397455
   14          1             0       -1.898060   -1.396890    0.231915
   15          1             0       -4.268223   -0.653567    0.297287
   16          1             0       -3.831423    0.836475   -0.539635
   17          1             0       -3.673994   -0.717400   -1.362084
   18          1             0       -1.348610    1.356752   -0.972163
   19          1             0       -1.315583   -0.177004   -1.867622
   20          1             0        0.318549   -2.062392   -0.767246
   21          1             0        3.814808   -0.453632    0.608833
   22          1             0        2.773926    1.861127    0.535439
 --------------------------------------------------------------------
     1 basis functions        1 primitive gaussians
     1 alpha electrons        1 beta electrons
 
 Harmonic frequencies (cm**-1), IR intensities (km*mol⁻¹),
 Raman scattering activities (A**4/amu), Raman depolarization ratios,
 reduced masses (AMU), force constants (mDyne/A) and normal coordinates:
                      1                      2                      3
                        a                      a                      a 
 Frequencies --    34.4197                60.9378                90.2896
 Red. masses --     9.5651                 9.2645                10.0874
 Frc consts  --     0.0000                 0.0000                 0.0000
 IR Inten    --     0.0541                 0.0196                 0.0515
 Raman Activ --     0.0000                 0.0000                 0.0000
 Depolar     --     0.0000                 0.0000                 0.0000
 Atom AN      X      Y      Z        X      Y      Z        X      Y      Z
   1   6     0.07  -0.50   0.07    -0.41   0.06   0.07    -0.20   0.04   0.00
   2   6    -0.06  -0.09  -0.12    -0.03   0.02   0.05    -0.19  -0.00   0.02
   3   6    -0.05   0.27  -0.05     0.04  -0.30  -0.21    -0.10   0.32  -0.15
   4   6    -0.00   0.07   0.03     0.02   0.23   0.23     0.02  -0.25   0.08
   5   6    -0.00   0.04   0.04     0.03   0.11   0.17    -0.00  -0.19   0.20
   6   6    -0.08   0.01   0.29    -0.10   0.05   0.17     0.15  -0.12   0.16
   7   7    -0.08   0.02   0.30    -0.06  -0.06  -0.04     0.30   0.06  -0.17
   8   6     0.01   0.06  -0.01     0.12  -0.10  -0.24     0.21   0.15  -0.31
   9   6     0.09   0.08  -0.28     0.24  -0.05  -0.19    -0.03   0.05   0.00
  10   7     0.09   0.08  -0.27     0.20   0.06   0.01    -0.12  -0.12   0.22
  11   1     0.01  -0.24   0.01    -0.12   0.12   0.05    -0.08  -0.07   0.05
  12   1    -0.01  -0.16  -0.02    -0.10  -0.05  -0.00    -0.13   0.08  -0.02
  13   1     0.08  -0.12   0.11    -0.22  -0.00   0.01     0.03   0.03  -0.03
  14   1    -0.06  -0.04  -0.13     0.05   0.02   0.03    -0.13  -0.01   0.03
  15   1    -0.03   0.04  -0.05     0.00  -0.11  -0.09    -0.08   0.15  -0.06
  16   1     0.02   0.10   0.08    -0.04  -0.11  -0.10     0.05   0.11  -0.06
  17   1    -0.04   0.17  -0.06     0.09  -0.12  -0.05    -0.03   0.10  -0.04
  18   1     0.00   0.02   0.05     0.01   0.07   0.13     0.02  -0.07  -0.03
  19   1     0.01   0.06  -0.02     0.01   0.13   0.04     0.03  -0.12   0.04
  20   1    -0.04  -0.01   0.15    -0.07   0.02   0.09     0.05  -0.06   0.09
  21   1     0.01   0.02  -0.01     0.05  -0.05  -0.12     0.10   0.09  -0.19
  22   1     0.05   0.03  -0.15     0.11  -0.03  -0.09    -0.04   0.03   0.01
                      4                      5                      6
                        a                      a                      a 
 Frequencies --   190.7592               202.4449               228.3624
 Red. masses --     8.9557                 2.0795                 1.8584
 Frc consts  --     0.0000                 0.0000                 0.0000
 IR Inten    --     0.3503                 0.1272                 0.0412
 Raman Activ --     0.0000                 0.0000                 0.0000
 Depolar     --     0.0000                 0.0000                 0.0000
 Atom AN      X      Y      Z        X      Y      Z        X      Y      Z
   1   6    -0.32  -0.06   0.21     0.12  -0.09  -0.05     0.08  -0.08   0.04
   2   6    -0.10   0.00   0.16     0.02  -0.00  -0.08     0.03  -0.05   0.04
   3   6    -0.02   0.17  -0.04     0.00   0.09  -0.01     0.07  -0.07  -0.09
   4   6    -0.02  -0.05   0.18     0.01   0.02  -0.07    -0.01   0.02   0.04
   5   6     0.07  -0.10  -0.12    -0.02  -0.01   0.02    -0.01   0.09   0.02
   6   6     0.23  -0.03  -0.36    -0.06  -0.02   0.14    -0.07   0.07  -0.02
   7   7     0.15   0.02   0.00    -0.02   0.00   0.02    -0.09   0.00  -0.03
   8   6    -0.03   0.01   0.33     0.02   0.02  -0.11    -0.05  -0.02  -0.01
   9   6     0.04   0.03  -0.13    -0.04  -0.00   0.06     0.02   0.00  -0.01
  10   7     0.08  -0.05  -0.28    -0.05  -0.01   0.09     0.02   0.08   0.02
  11   1    -0.08   0.08   0.06     0.15   0.32  -0.22    -0.06  -0.32   0.15
  12   1    -0.04  -0.11   0.05     0.34  -0.31   0.10    -0.21   0.20  -0.07
  13   1    -0.21  -0.04   0.09    -0.37  -0.10   0.09     0.35   0.04  -0.04
  14   1    -0.05  -0.00   0.05    -0.00  -0.00  -0.04     0.00  -0.02   0.01
  15   1    -0.06   0.18   0.01    -0.03   0.32   0.15    -0.04   0.36   0.15
  16   1     0.08   0.06  -0.13     0.13   0.02  -0.30     0.17  -0.04  -0.45
  17   1    -0.02  -0.04   0.04    -0.10  -0.24   0.15    -0.05  -0.39   0.18
  18   1     0.02  -0.01   0.08     0.01   0.01  -0.01    -0.03   0.00   0.02
  19   1    -0.05   0.01   0.05     0.01   0.02  -0.02    -0.00   0.01   0.01
  20   1     0.12  -0.00  -0.21    -0.03  -0.01   0.08    -0.03   0.03  -0.01
  21   1    -0.05   0.00   0.24     0.02   0.01  -0.08    -0.02  -0.02  -0.00
  22   1     0.01   0.03  -0.10    -0.02  -0.00   0.04     0.02  -0.01  -0.00
                      7                      8                      9
                        a                      a                      a 
 Frequencies --   303.1873               326.4456               351.8774
 Red. masses --     9.1214                 8.4655                 8.7886
 Frc consts  --     0.0000                 0.0000                 0.0000
 IR Inten    --     0.1632                 1.2678                 6.8818
 Raman Activ --     0.0000                 0.0000                 0.0000
 Depolar     --     0.0000                 0.0000                 0.0000
 Atom AN      X      Y      Z        X      Y      Z        X      Y      Z
   1   6     0.10   0.02   0.28    -0.00  -0.01  -0.03    -0.33  -0.09   0.11
   2   6     0.22   0.01   0.25    -0.05  -0.21   0.08     0.15   0.05  -0.00
   3   6     0.47   0.09  -0.32     0.02   0.08  -0.04     0.08   0.06   0.22
   4   6     0.01  -0.06   0.06    -0.01  -0.43  -0.04     0.07  -0.09  -0.24
   5   6    -0.05  -0.05  -0.09     0.02   0.29   0.18     0.10   0.10  -0.24
   6   6    -0.13  -0.07   0.02    -0.07   0.26  -0.10    -0.07   0.03   0.21
   7   7    -0.13  -0.02  -0.02    -0.18  -0.03  -0.03     0.03   0.00  -0.17
   8   6    -0.17   0.05  -0.10    -0.04  -0.12   0.03     0.03  -0.03  -0.05
   9   6    -0.21   0.03   0.00     0.19  -0.01  -0.09    -0.06  -0.06   0.33
  10   7    -0.20   0.00  -0.06     0.14   0.26   0.15     0.15   0.10  -0.30
  11   1     0.03   0.04   0.08     0.02   0.08  -0.05    -0.15  -0.02   0.17
  12   1     0.04  -0.04   0.07     0.06  -0.01   0.04    -0.18  -0.08  -0.08
  13   1    -0.02  -0.00   0.10    -0.07  -0.02  -0.05    -0.12  -0.03   0.05
  14   1     0.06   0.01   0.09    -0.07  -0.07   0.07     0.05   0.01   0.00
  15   1     0.02  -0.02  -0.24    -0.04   0.03  -0.06     0.06   0.04   0.12
  16   1     0.16   0.04  -0.07     0.07   0.04   0.03     0.03   0.02   0.07
  17   1     0.30   0.10  -0.15     0.01   0.08  -0.04    -0.06   0.01   0.08
  18   1    -0.01  -0.02  -0.00    -0.15  -0.17  -0.23    -0.02  -0.04  -0.18
  19   1    -0.05  -0.05   0.04     0.11  -0.33   0.07     0.00  -0.14  -0.01
  20   1    -0.05  -0.02   0.04    -0.06   0.12  -0.11    -0.07  -0.00   0.18
  21   1    -0.04   0.03  -0.05    -0.03  -0.08   0.03     0.02  -0.01  -0.06
  22   1    -0.07   0.00   0.03     0.13  -0.03  -0.09    -0.05  -0.04   0.25
                     10                     11                     12
                        a                      a                      a 
 Frequencies --   383.1477               432.4938               481.8688
 Red. masses --    11.0343                 7.4461                 9.8991
 Frc consts  --     0.0000                 0.0000                 0.0000
 IR Inten    --    13.7332                 1.8344                 2.9165
 Raman Activ --     0.0000                 0.0000                 0.0000
 Depolar     --     0.0000                 0.0000                 0.0000
 Atom AN      X      Y      Z        X      Y      Z        X      Y      Z
   1   6    -0.23  -0.05   0.04     0.12  -0.05   0.33    -0.04  -0.04  -0.00
   2   6     0.21   0.08  -0.07    -0.19   0.46   0.05     0.16   0.23  -0.15
   3   6     0.14   0.05   0.19    -0.22  -0.15  -0.18     0.10  -0.01   0.08
   4   6     0.09   0.03  -0.21    -0.04  -0.03  -0.21     0.20   0.04  -0.11
   5   6     0.05  -0.02  -0.16     0.00   0.02  -0.09    -0.10  -0.12   0.54
   6   6     0.06  -0.01  -0.22     0.06   0.04  -0.03    -0.07  -0.11   0.10
   7   7    -0.14  -0.06   0.42     0.03   0.01   0.09     0.07  -0.02  -0.34
   8   6     0.02   0.04  -0.18     0.11  -0.02  -0.01    -0.23   0.00   0.20
   9   6     0.03   0.04  -0.25     0.06  -0.04   0.01    -0.07   0.06  -0.16
  10   7    -0.19  -0.08   0.43     0.04  -0.04   0.05    -0.10   0.02  -0.05
  11   1    -0.11  -0.01   0.14     0.06  -0.14  -0.00    -0.04  -0.03   0.06
  12   1    -0.15  -0.06  -0.10     0.07  -0.12   0.07    -0.05  -0.09  -0.08
  13   1    -0.09  -0.02   0.03     0.08   0.01   0.31    -0.03  -0.01   0.08
  14   1     0.09   0.03  -0.03    -0.05   0.13   0.01     0.08   0.07  -0.06
  15   1     0.09   0.03   0.11    -0.03  -0.12  -0.07     0.10  -0.02   0.09
  16   1     0.04   0.02   0.06    -0.23  -0.10  -0.14    -0.04  -0.02   0.01
  17   1    -0.04   0.00   0.07     0.09  -0.13  -0.03    -0.01  -0.04   0.05
  18   1     0.03   0.01  -0.09     0.01  -0.02  -0.27     0.11   0.01  -0.16
  19   1     0.00  -0.03  -0.04    -0.01  -0.20   0.03     0.15  -0.09   0.00
  20   1     0.04  -0.00  -0.10     0.02   0.00   0.00     0.01  -0.00  -0.12
  21   1     0.02   0.02  -0.08     0.03  -0.01  -0.01    -0.07   0.02   0.08
  22   1     0.02   0.02  -0.13     0.01  -0.01   0.01     0.05   0.03  -0.23
                     13                     14                     15
                        a                      a                      a 
 Frequencies --   584.8786               625.4053               730.4776
 Red. masses --    11.9900                11.4374                10.6621
 Frc consts  --     0.0000                 0.0000                 0.0000
 IR Inten    --     0.0856                 1.2379                 0.0757
 Raman Activ --     0.0000                 0.0000                 0.0000
 Depolar     --     0.0000                 0.0000                 0.0000
 Atom AN      X      Y      Z        X      Y      Z        X      Y      Z
   1   6     0.01   0.00  -0.00     0.00   0.00   0.01     0.00  -0.01  -0.04
   2   6    -0.07   0.06  -0.03     0.05  -0.03   0.02     0.02   0.03  -0.03
   3   6    -0.14  -0.02  -0.02     0.11   0.01   0.01     0.05   0.00   0.01
   4   6     0.27  -0.06   0.18    -0.30   0.12  -0.16    -0.03   0.03   0.05
   5   6     0.30   0.08  -0.02    -0.25   0.15   0.01    -0.19  -0.05   0.41
   6   6     0.21  -0.02  -0.03     0.25   0.30   0.20     0.09   0.08  -0.26
   7   7     0.13  -0.45   0.10     0.33  -0.19  -0.02    -0.11  -0.01   0.35
   8   6    -0.27  -0.06  -0.18     0.21  -0.19   0.13     0.15   0.02  -0.26
   9   6    -0.25   0.02  -0.02    -0.20  -0.35  -0.17    -0.16  -0.11   0.33
  10   7    -0.18   0.45  -0.05    -0.22   0.12   0.01     0.08  -0.00  -0.39
  11   1     0.01  -0.02  -0.04    -0.01   0.02   0.03    -0.00  -0.00  -0.00
  12   1     0.02  -0.00   0.02    -0.01   0.00  -0.01    -0.00  -0.01  -0.02
  13   1     0.02   0.01   0.02    -0.01  -0.00  -0.02    -0.00  -0.00  -0.00
  14   1    -0.06   0.01   0.00     0.06   0.00  -0.01     0.03   0.01  -0.02
  15   1     0.00  -0.03   0.02    -0.01   0.03  -0.02     0.02   0.00   0.01
  16   1    -0.09  -0.02  -0.01     0.08   0.02   0.00     0.01   0.00   0.00
  17   1    -0.05  -0.03   0.01     0.04   0.02  -0.01     0.01  -0.00   0.01
  18   1     0.11  -0.00   0.08    -0.11   0.03  -0.02    -0.01   0.00  -0.05
  19   1     0.07   0.03   0.03    -0.10   0.04  -0.04     0.06  -0.04   0.03
  20   1    -0.06   0.06   0.02     0.07   0.10   0.01     0.10   0.05  -0.28
  21   1    -0.06   0.11  -0.02     0.07   0.06   0.04     0.10   0.03  -0.25
  22   1     0.01  -0.08   0.09    -0.01  -0.10  -0.10    -0.03  -0.01  -0.01
                     16                     17                     18
                        a                      a                      a 
 Frequencies --   798.6500               850.8953               876.6866
 Red. masses --     4.3942                 9.7687                 8.0689
 Frc consts  --     0.0000                 0.0000                 0.0000
 IR Inten    --     4.0782                 5.1069                 1.2938
 Raman Activ --     0.0000                 0.0000                 0.0000
 Depolar     --     0.0000                 0.0000                 0.0000
 Atom AN      X      Y      Z        X      Y      Z        X      Y      Z
   1   6     0.00   0.03   0.11     0.01   0.02   0.13     0.08   0.15   0.37
   2   6    -0.02  -0.10   0.05    -0.02  -0.15   0.06     0.08  -0.21  -0.05
   3   6    -0.09  -0.02  -0.02    -0.05  -0.06   0.01    -0.26  -0.05  -0.10
   4   6    -0.01   0.01  -0.17    -0.30   0.24  -0.33     0.29  -0.14  -0.35
   5   6     0.11   0.02  -0.19    -0.04  -0.02   0.20    -0.02  -0.03   0.13
   6   6    -0.06  -0.11   0.23     0.10  -0.25  -0.07    -0.03   0.14  -0.02
   7   7     0.05  -0.07  -0.06     0.15  -0.30   0.05    -0.09   0.14   0.01
   8   6    -0.15  -0.01   0.19    -0.17   0.08  -0.18     0.12  -0.03  -0.07
   9   6     0.01   0.08   0.20     0.20   0.29   0.08    -0.08  -0.12  -0.03
  10   7     0.05   0.06   0.04     0.15   0.08   0.02    -0.04   0.00  -0.04
  11   1     0.00   0.03   0.03     0.00   0.06   0.05    -0.01   0.10   0.20
  12   1     0.00   0.04   0.05    -0.00   0.07   0.07    -0.02   0.04   0.06
  13   1     0.00   0.01  -0.01    -0.00  -0.00  -0.06    -0.03   0.03   0.06
  14   1    -0.00  -0.02   0.02     0.11  -0.02  -0.03    -0.01  -0.06   0.06
  15   1    -0.07   0.02  -0.04    -0.16   0.07  -0.09    -0.12   0.04  -0.04
  16   1     0.03   0.01  -0.00     0.16   0.03   0.01     0.03   0.02   0.01
  17   1    -0.02   0.02  -0.02     0.01   0.06  -0.04    -0.13   0.05  -0.05
  18   1    -0.00   0.01   0.05    -0.13   0.05  -0.14     0.15   0.00   0.22
  19   1    -0.07   0.09  -0.08    -0.05   0.01  -0.07     0.13   0.27  -0.24
  20   1     0.12   0.04  -0.40     0.00  -0.08   0.04    -0.03   0.05   0.02
  21   1     0.15   0.07  -0.51    -0.12   0.03   0.19    -0.03  -0.06   0.16
  22   1     0.18   0.06  -0.40     0.07   0.04   0.13    -0.04  -0.03  -0.00
                     19                     20                     21
                        a                      a                      a 
 Frequencies --   901.8054               903.4825               910.3470
 Red. masses --     3.5159                 5.0044                 5.2388
 Frc consts  --     0.0000                 0.0000                 0.0000
 IR Inten    --     0.2786                 0.3483                 2.8146
 Raman Activ --     0.0000                 0.0000                 0.0000
 Depolar     --     0.0000                 0.0000                 0.0000
 Atom AN      X      Y      Z        X      Y      Z        X      Y      Z
   1   6    -0.00  -0.02   0.03     0.01  -0.01   0.11    -0.02  -0.10   0.11
   2   6     0.01  -0.04   0.02     0.02  -0.09   0.01     0.02  -0.12   0.06
   3   6    -0.05  -0.02  -0.02    -0.09  -0.04  -0.03    -0.15  -0.05  -0.05
   4   6     0.08   0.09   0.05     0.09   0.15  -0.02     0.22   0.34   0.14
   5   6     0.02   0.01  -0.04    -0.02  -0.01   0.11     0.07   0.03  -0.13
   6   6    -0.11  -0.04   0.32     0.08   0.02  -0.25    -0.02  -0.02   0.02
   7   7    -0.02   0.03   0.01    -0.01   0.03   0.01    -0.02   0.08  -0.02
   8   6     0.04   0.01  -0.05    -0.11  -0.04   0.37     0.09   0.02  -0.09
   9   6     0.05  -0.02  -0.28     0.04  -0.02  -0.26    -0.18  -0.14   0.12
  10   7    -0.03  -0.03  -0.01    -0.02  -0.03  -0.02    -0.08  -0.08  -0.01
  11   1     0.01   0.03  -0.00     0.01   0.06   0.03     0.03   0.10  -0.01
  12   1     0.01   0.05   0.05     0.01   0.08   0.08     0.03   0.19   0.19
  13   1     0.01  -0.01  -0.06    -0.00  -0.01  -0.09     0.01  -0.04  -0.25
  14   1     0.05  -0.00  -0.05     0.07  -0.02  -0.07     0.13  -0.02  -0.17
  15   1    -0.03   0.02  -0.01    -0.07   0.04  -0.03    -0.10   0.05  -0.03
  16   1     0.02   0.01   0.01     0.06   0.02   0.02     0.08   0.02   0.02
  17   1    -0.04   0.01  -0.01    -0.06   0.03  -0.03    -0.10   0.04  -0.04
  18   1     0.02   0.01  -0.10     0.02   0.03  -0.13     0.06   0.06  -0.34
  19   1     0.04  -0.07   0.06     0.09  -0.07   0.04     0.12  -0.26   0.19
  20   1     0.21   0.08  -0.61    -0.09  -0.05   0.30     0.01  -0.03   0.06
  21   1    -0.01  -0.00   0.06     0.19   0.08  -0.54    -0.05  -0.00   0.19
  22   1    -0.19  -0.07   0.52    -0.13  -0.04   0.31     0.04   0.02  -0.33
                     22                     23                     24
                        a                      a                      a 
 Frequencies --   949.8483               983.6132               989.6554
 Red. masses --     2.7084                 5.5502                 5.1619
 Frc consts  --     0.0000                 0.0000                 0.0000
 IR Inten    --     2.1510                 3.7273                 0.7670
 Raman Activ --     0.0000                 0.0000                 0.0000
 Depolar     --     0.0000                 0.0000                 0.0000
 Atom AN      X      Y      Z        X      Y      Z        X      Y      Z
   1   6    -0.19   0.17  -0.01     0.08   0.08   0.27     0.28   0.11  -0.16
   2   6    -0.10  -0.02  -0.08     0.19  -0.05  -0.23     0.26   0.02   0.00
   3   6     0.10  -0.22  -0.09     0.03   0.06  -0.36    -0.33  -0.08  -0.06
   4   6     0.03   0.03   0.03    -0.19  -0.06   0.17    -0.08   0.01   0.24
   5   6     0.01   0.00  -0.02    -0.06   0.03  -0.03     0.02   0.03  -0.06
   6   6    -0.01  -0.01   0.00     0.03  -0.01   0.01    -0.00  -0.03   0.01
   7   7    -0.01   0.02  -0.00     0.04  -0.09   0.00     0.01  -0.01  -0.00
   8   6     0.01  -0.00   0.00    -0.05   0.02  -0.01    -0.01   0.02   0.00
   9   6    -0.02  -0.02  -0.00     0.05   0.07   0.03    -0.01  -0.01   0.01
  10   7    -0.01  -0.00   0.00     0.03  -0.06   0.00    -0.01  -0.03   0.00
  11   1     0.04  -0.27  -0.32     0.00   0.11   0.15    -0.07   0.05   0.32
  12   1     0.12  -0.08   0.09    -0.01   0.07   0.07    -0.13  -0.28  -0.42
  13   1     0.15   0.11   0.38    -0.01   0.01  -0.02    -0.11   0.00   0.17
  14   1     0.20   0.07   0.23    -0.03  -0.04  -0.12     0.19   0.05   0.11
  15   1     0.01   0.14   0.08     0.40  -0.05   0.27    -0.25   0.08  -0.11
  16   1     0.38   0.07   0.22    -0.19  -0.01   0.09     0.11   0.04   0.00
  17   1    -0.34   0.15  -0.09    -0.44  -0.02  -0.02    -0.09   0.08  -0.07
  18   1     0.01   0.01  -0.02    -0.19  -0.04   0.03    -0.11  -0.02  -0.03
  19   1     0.03  -0.02   0.02    -0.06  -0.06   0.07     0.02  -0.10   0.10
  20   1    -0.00  -0.00   0.00     0.01  -0.00   0.00     0.01  -0.02  -0.00
  21   1     0.00   0.00   0.00    -0.01   0.02  -0.01     0.00   0.02  -0.01
  22   1    -0.00  -0.00  -0.02     0.00   0.03  -0.00    -0.00   0.01  -0.03
                     25                     26                     27
                        a                      a                      a 
 Frequencies --  1022.4944              1079.4379              1100.9503
 Red. masses --    10.9530                 4.1647                 6.7120
 Frc consts  --     0.0000                 0.0000                 0.0000
 IR Inten    --    58.3003                14.9369                 7.5111
 Raman Activ --     0.0000                 0.0000                 0.0000
 Depolar     --     0.0000                 0.0000                 0.0000
 Atom AN      X      Y      Z        X      Y      Z        X      Y      Z
   1   6     0.01   0.01   0.02    -0.02   0.15   0.03     0.00  -0.01  -0.00
   2   6     0.01  -0.00  -0.02    -0.09  -0.22  -0.06     0.00   0.02   0.00
   3   6     0.02   0.01  -0.03     0.07   0.10   0.07     0.00  -0.00  -0.01
   4   6    -0.09   0.01  -0.02     0.08   0.21  -0.01    -0.05  -0.03  -0.02
   5   6     0.08  -0.00   0.05     0.05   0.19  -0.05     0.01  -0.04   0.01
   6   6    -0.15  -0.51  -0.12     0.00  -0.14  -0.00     0.13   0.08   0.05
   7   7    -0.05   0.23   0.01     0.00  -0.04  -0.01    -0.00   0.32   0.04
   8   6     0.33  -0.06   0.10    -0.03   0.13   0.01    -0.43   0.09  -0.14
   9   6    -0.03  -0.15  -0.03    -0.04  -0.13  -0.02    -0.03  -0.32  -0.05
  10   7    -0.16   0.54   0.01     0.00  -0.16  -0.02     0.20  -0.05   0.06
  11   1    -0.00   0.01   0.02    -0.01  -0.07  -0.00    -0.00   0.00   0.00
  12   1    -0.00  -0.00  -0.00     0.01  -0.08  -0.04    -0.00   0.00   0.00
  13   1    -0.00   0.00   0.01     0.01   0.05   0.20    -0.00  -0.00  -0.01
  14   1    -0.01  -0.00  -0.01    -0.22  -0.09   0.13     0.02   0.01  -0.02
  15   1     0.04  -0.01   0.02     0.05  -0.06   0.00     0.00   0.00   0.00
  16   1    -0.03  -0.00   0.00    -0.13  -0.02  -0.06     0.00   0.00   0.01
  17   1    -0.02  -0.01   0.00     0.14  -0.07   0.05    -0.01   0.00  -0.00
  18   1    -0.09  -0.01   0.01    -0.46  -0.04  -0.03     0.03   0.00   0.01
  19   1    -0.04   0.01  -0.00     0.52   0.02  -0.07    -0.07   0.00   0.00
  20   1     0.15  -0.27   0.01     0.04  -0.06  -0.01     0.27  -0.14   0.07
  21   1     0.08  -0.10   0.02     0.01   0.18   0.02    -0.10   0.28   0.01
  22   1     0.14  -0.14   0.03    -0.06  -0.00  -0.03     0.40  -0.38   0.09
                     28                     29                     30
                        a                      a                      a 
 Frequencies --  1144.9948              1161.5425              1180.0844
 Red. masses --     7.5259                 4.3040                 6.3368
 Frc consts  --     0.0000                 0.0000                 0.0000
 IR Inten    --     5.1918                 2.9945                21.0001
 Raman Activ --     0.0000                 0.0000                 0.0000
 Depolar     --     0.0000                 0.0000                 0.0000
 Atom AN      X      Y      Z        X      Y      Z        X      Y      Z
   1   6     0.12   0.13   0.21    -0.06   0.04  -0.03    -0.23   0.02   0.11
   2   6    -0.33   0.08  -0.44     0.10  -0.12   0.06     0.43   0.08  -0.28
   3   6     0.21  -0.18   0.19    -0.06   0.10  -0.02    -0.21   0.09   0.13
   4   6    -0.14  -0.12   0.19     0.05   0.09  -0.00    -0.11  -0.22   0.12
   5   6     0.02  -0.03  -0.11    -0.07  -0.05  -0.03     0.04   0.06   0.01
   6   6     0.05   0.04   0.04     0.28   0.12   0.11    -0.02  -0.02  -0.01
   7   7    -0.01   0.03   0.00    -0.03   0.10   0.00    -0.02  -0.02  -0.01
   8   6    -0.04  -0.05  -0.02    -0.18  -0.16  -0.08     0.01   0.03   0.01
   9   6     0.01   0.04   0.02     0.04   0.14   0.03     0.01  -0.03   0.00
  10   7    -0.03   0.02  -0.00    -0.14   0.02  -0.04     0.01  -0.03  -0.00
  11   1    -0.01   0.10   0.18     0.00  -0.06  -0.06     0.04  -0.07  -0.22
  12   1    -0.05   0.02  -0.03     0.03  -0.03   0.01     0.10   0.10   0.23
  13   1    -0.05   0.02   0.04     0.03   0.02   0.07     0.13   0.05   0.03
  14   1    -0.08  -0.01  -0.39     0.04  -0.02   0.06     0.35   0.06  -0.21
  15   1    -0.09   0.05  -0.05     0.02  -0.03  -0.00    -0.19  -0.01  -0.14
  16   1     0.28   0.01   0.03    -0.12  -0.01  -0.04    -0.07  -0.00  -0.14
  17   1     0.14   0.05  -0.01     0.03  -0.04   0.02     0.19  -0.00   0.01
  18   1     0.07  -0.01  -0.02    -0.07   0.01  -0.02    -0.21  -0.08   0.15
  19   1     0.22   0.01  -0.02     0.08  -0.03   0.01     0.03   0.03  -0.02
  20   1     0.07  -0.02   0.01     0.36  -0.16   0.09     0.00  -0.01   0.00
  21   1    -0.02  -0.16  -0.04    -0.12  -0.68  -0.12     0.01   0.08   0.01
  22   1     0.03   0.00  -0.00     0.01   0.03   0.01    -0.04   0.02  -0.02
                     31                     32                     33
                        a                      a                      a 
 Frequencies --  1208.5258              1230.5532              1231.7606
 Red. masses --     6.6113                 4.8583                 8.8272
 Frc consts  --     0.0000                 0.0000                 0.0000
 IR Inten    --     0.9544                25.4797                21.1921
 Raman Activ --     0.0000                 0.0000                 0.0000
 Depolar     --     0.0000                 0.0000                 0.0000
 Atom AN      X      Y      Z        X      Y      Z        X      Y      Z
   1   6    -0.04   0.30   0.03     0.01   0.02  -0.01    -0.02   0.04  -0.00
   2   6     0.04  -0.45  -0.12    -0.03  -0.03   0.03     0.03  -0.08  -0.01
   3   6    -0.01   0.15   0.06    -0.01   0.02  -0.00    -0.02   0.03   0.01
   4   6     0.02   0.14   0.03     0.14  -0.09   0.04     0.06  -0.02   0.05
   5   6    -0.04  -0.20  -0.01    -0.35   0.20  -0.10    -0.22   0.14  -0.07
   6   6    -0.15   0.08  -0.04    -0.12   0.06  -0.03     0.17  -0.08   0.04
   7   7     0.12   0.04   0.04    -0.09  -0.24  -0.06    -0.18  -0.18  -0.08
   8   6     0.04  -0.12  -0.00     0.05  -0.09   0.00     0.14   0.31   0.08
   9   6    -0.09   0.09  -0.02     0.14   0.09   0.06     0.34   0.02   0.12
  10   7     0.11   0.08   0.05     0.04   0.06   0.02    -0.42  -0.11  -0.15
  11   1    -0.02  -0.12  -0.02    -0.00  -0.01   0.00    -0.00  -0.02  -0.01
  12   1     0.04  -0.12  -0.06    -0.00  -0.01  -0.01     0.01  -0.02  -0.00
  13   1     0.03   0.10   0.32    -0.00   0.00   0.02     0.01   0.02   0.05
  14   1    -0.04  -0.15  -0.21     0.05   0.00  -0.03     0.03  -0.02  -0.03
  15   1     0.02  -0.09  -0.04     0.01  -0.01   0.01     0.00  -0.02  -0.01
  16   1    -0.16  -0.02  -0.10    -0.01  -0.00  -0.00    -0.03  -0.00  -0.02
  17   1     0.13  -0.08   0.06     0.01  -0.01   0.01     0.02  -0.02   0.01
  18   1     0.23   0.06  -0.15     0.26   0.02   0.03     0.22   0.03  -0.02
  19   1    -0.26  -0.13   0.13     0.05  -0.00   0.00     0.05  -0.02   0.01
  20   1    -0.10   0.07  -0.02     0.52  -0.37   0.12    -0.15   0.10  -0.03
  21   1     0.02   0.08   0.02     0.06   0.33   0.06     0.03  -0.02   0.01
  22   1     0.07  -0.04   0.02    -0.16   0.16  -0.03     0.43  -0.23   0.11
                     34                     35                     36
                        a                      a                      a 
 Frequencies --  1245.4695              1281.2943              1328.4858
 Red. masses --     6.9960                 5.1127                 4.8607
 Frc consts  --     0.0000                 0.0000                 0.0000
 IR Inten    --    14.1453                 4.4291                13.0940
 Raman Activ --     0.0000                 0.0000                 0.0000
 Depolar     --     0.0000                 0.0000                 0.0000
 Atom AN      X      Y      Z        X      Y      Z        X      Y      Z
   1   6     0.01   0.10   0.00    -0.03  -0.02   0.02     0.07  -0.13   0.09
   2   6    -0.04  -0.06  -0.05     0.16   0.16  -0.12    -0.16  -0.10  -0.50
   3   6     0.04  -0.04   0.04    -0.01  -0.17   0.08    -0.00   0.10   0.09
   4   6     0.07   0.02  -0.09     0.36   0.08  -0.02     0.06   0.07   0.06
   5   6     0.24   0.29   0.18    -0.21  -0.08  -0.02    -0.00   0.00   0.01
   6   6     0.27  -0.13   0.06    -0.11   0.09  -0.03     0.02   0.01   0.01
   7   7    -0.26  -0.01  -0.09     0.08  -0.07   0.02    -0.03  -0.01  -0.01
   8   6    -0.07   0.22   0.00     0.06  -0.08   0.01     0.00   0.00  -0.00
   9   6     0.10  -0.28  -0.01    -0.01   0.18   0.01     0.02  -0.00   0.00
  10   7    -0.05  -0.08  -0.03    -0.05  -0.03  -0.02    -0.01   0.00  -0.00
  11   1    -0.01  -0.02   0.02     0.01   0.02  -0.03    -0.01   0.13   0.14
  12   1     0.01  -0.03  -0.03     0.01   0.04   0.05    -0.01   0.13   0.10
  13   1    -0.00   0.03   0.09     0.02   0.00  -0.01    -0.02  -0.04  -0.02
  14   1    -0.16  -0.07  -0.18    -0.48  -0.07  -0.00     0.17   0.11   0.66
  15   1    -0.03   0.00  -0.03    -0.15   0.07  -0.06     0.03  -0.08  -0.02
  16   1     0.04  -0.00   0.00     0.13  -0.00   0.01     0.00   0.01  -0.07
  17   1     0.01   0.01  -0.00    -0.03   0.08  -0.04     0.16  -0.03   0.03
  18   1    -0.02   0.00   0.03    -0.39  -0.06   0.13     0.02   0.01  -0.04
  19   1    -0.49  -0.05   0.09    -0.28  -0.11   0.12    -0.22  -0.07   0.09
  20   1     0.07  -0.04   0.02     0.07  -0.04   0.01     0.02  -0.01   0.01
  21   1    -0.04  -0.03  -0.01     0.02   0.01   0.02     0.00   0.01   0.00
  22   1    -0.32   0.16  -0.08     0.19  -0.09   0.06    -0.01   0.01  -0.00
                     37                     38                     39
                        a                      a                      a 
 Frequencies --  1334.6282              1368.0474              1406.8262
 Red. masses --     4.9334                10.5584                 3.3274
 Frc consts  --     0.0000                 0.0000                 0.0000
 IR Inten    --    23.2552               100.5910                 3.2461
 Raman Activ --     0.0000                 0.0000                 0.0000
 Depolar     --     0.0000                 0.0000                 0.0000
 Atom AN      X      Y      Z        X      Y      Z        X      Y      Z
   1   6     0.09   0.03  -0.03     0.00   0.00   0.00    -0.04  -0.10  -0.26
   2   6    -0.41  -0.04   0.13    -0.01   0.00  -0.02     0.06   0.02   0.08
   3   6     0.06   0.09  -0.03    -0.01  -0.00   0.01    -0.32   0.00  -0.13
   4   6     0.33  -0.03  -0.09     0.16  -0.09   0.03    -0.02   0.00  -0.02
   5   6    -0.02  -0.02   0.02    -0.41   0.35  -0.08     0.01  -0.01   0.00
   6   6    -0.05   0.05  -0.01    -0.15  -0.24  -0.09    -0.00   0.00  -0.00
   7   7     0.00  -0.04  -0.01     0.41  -0.01   0.13    -0.00   0.00  -0.00
   8   6     0.05  -0.01   0.02    -0.14   0.28  -0.01     0.00  -0.00  -0.00
   9   6    -0.04   0.09  -0.01    -0.10  -0.18  -0.05    -0.00   0.00  -0.00
  10   7    -0.04  -0.06  -0.02     0.25  -0.00   0.08    -0.00  -0.00  -0.00
  11   1    -0.02  -0.00   0.07    -0.00  -0.00   0.01    -0.10   0.15   0.25
  12   1    -0.04  -0.01  -0.07     0.00   0.01   0.01     0.12   0.19   0.22
  13   1    -0.07  -0.01   0.03    -0.01  -0.00   0.00     0.06   0.03   0.32
  14   1     0.55   0.11  -0.25     0.03   0.01  -0.02    -0.07  -0.02  -0.09
  15   1     0.09  -0.02   0.04    -0.00  -0.01  -0.00     0.29  -0.08   0.26
  16   1    -0.04   0.01   0.03     0.01   0.00  -0.01     0.37   0.12   0.14
  17   1     0.03  -0.06   0.04     0.01  -0.00   0.00     0.38  -0.10  -0.01
  18   1    -0.39  -0.08   0.16     0.13  -0.00   0.07     0.00   0.00   0.02
  19   1    -0.17  -0.01   0.03    -0.03  -0.03   0.02     0.02  -0.01  -0.00
  20   1     0.01  -0.00   0.01    -0.15   0.00  -0.04    -0.00   0.00  -0.00
  21   1     0.02   0.00   0.01    -0.09  -0.33  -0.07     0.00   0.00   0.00
  22   1     0.10  -0.05   0.03    -0.06  -0.03  -0.02     0.00   0.00   0.00
                     40                     41                     42
                        a                      a                      a 
 Frequencies --  1420.2756              1428.0831              1453.9802
 Red. masses --     3.0974                 9.4119                 2.6693
 Frc consts  --     0.0000                 0.0000                 0.0000
 IR Inten    --     1.8865                48.0424                 3.0086
 Raman Activ --     0.0000                 0.0000                 0.0000
 Depolar     --     0.0000                 0.0000                 0.0000
 Atom AN      X      Y      Z        X      Y      Z        X      Y      Z
   1   6    -0.01  -0.15  -0.30    -0.00  -0.00  -0.02    -0.03  -0.02  -0.04
   2   6    -0.02   0.01   0.04     0.01  -0.01  -0.00     0.01  -0.00   0.02
   3   6     0.26  -0.03   0.08     0.02   0.00  -0.00     0.02  -0.00  -0.01
   4   6    -0.03   0.00  -0.03    -0.12  -0.06   0.02     0.16  -0.13   0.24
   5   6     0.00  -0.01  -0.01     0.34   0.23   0.14    -0.12  -0.01  -0.02
   6   6     0.00  -0.00   0.00    -0.26   0.14  -0.07     0.03  -0.03  -0.00
   7   7    -0.00   0.01   0.00     0.00  -0.25  -0.03     0.05   0.06   0.03
   8   6    -0.00  -0.00  -0.00     0.20   0.22   0.09    -0.06  -0.06  -0.03
   9   6     0.01  -0.01   0.00    -0.39   0.17  -0.11     0.11  -0.03   0.03
  10   7     0.00   0.01   0.00     0.07  -0.28  -0.01    -0.05   0.03  -0.01
  11   1    -0.11   0.19   0.31    -0.01  -0.01   0.03    -0.02   0.06   0.06
  12   1     0.12   0.28   0.27     0.02   0.00   0.02     0.05  -0.02   0.03
  13   1     0.04   0.03   0.41    -0.00  -0.00   0.01     0.08   0.02   0.04
  14   1     0.03   0.01  -0.04    -0.03  -0.01   0.02    -0.00  -0.00  -0.01
  15   1    -0.24   0.10  -0.19    -0.01   0.00  -0.01    -0.04   0.04  -0.02
  16   1    -0.31  -0.10  -0.08    -0.01  -0.00   0.00    -0.04  -0.00   0.05
  17   1    -0.31   0.09  -0.00    -0.02  -0.00   0.00    -0.01  -0.03   0.02
  18   1     0.03   0.01   0.07     0.08   0.00  -0.16    -0.15  -0.09  -0.62
  19   1     0.06  -0.06   0.01    -0.09   0.14  -0.06    -0.18   0.56  -0.22
  20   1    -0.01   0.01  -0.00     0.22  -0.16   0.05    -0.03   0.02  -0.01
  21   1    -0.00   0.00  -0.00     0.03  -0.19  -0.02    -0.01   0.04   0.00
  22   1    -0.01   0.01  -0.00     0.22  -0.18   0.05    -0.03   0.03  -0.01
                     43                     44                     45
                        a                      a                      a 
 Frequencies --  1491.5682              1493.0851              1500.4366
 Red. masses --     1.6220                 1.5574                 1.5769
 Frc consts  --     0.0000                 0.0000                 0.0000
 IR Inten    --     0.3337                 0.5391                 1.4757
 Raman Activ --     0.0000                 0.0000                 0.0000
 Depolar     --     0.0000                 0.0000                 0.0000
 Atom AN      X      Y      Z        X      Y      Z        X      Y      Z
   1   6    -0.13  -0.04   0.05    -0.08   0.10  -0.03    -0.15  -0.00  -0.02
   2   6    -0.02  -0.00  -0.04    -0.04  -0.02  -0.03    -0.07   0.02   0.05
   3   6     0.07   0.05  -0.15     0.01  -0.17  -0.02    -0.02   0.06   0.13
   4   6    -0.01   0.02  -0.02     0.00   0.01  -0.01     0.01   0.00  -0.02
   5   6     0.00  -0.01  -0.00     0.00  -0.00  -0.00     0.00  -0.00  -0.00
   6   6     0.00   0.00   0.00     0.00   0.00   0.00    -0.00   0.00  -0.00
   7   7    -0.01  -0.02  -0.01    -0.00  -0.00  -0.00    -0.00  -0.00  -0.00
   8   6     0.01   0.03   0.01     0.00   0.01   0.00     0.00   0.00   0.00
   9   6    -0.02  -0.00  -0.01     0.00  -0.00  -0.00    -0.01   0.00  -0.00
  10   7     0.02   0.01   0.01     0.00   0.00   0.00     0.00  -0.00   0.00
  11   1     0.02   0.33   0.01    -0.12  -0.13   0.26    -0.05   0.23   0.16
  12   1     0.05  -0.24  -0.09     0.31  -0.28   0.13     0.21  -0.34  -0.01
  13   1     0.44   0.09  -0.06     0.14   0.02  -0.23     0.45   0.09  -0.14
  14   1    -0.00   0.00   0.01     0.04   0.01   0.04     0.01   0.01  -0.02
  15   1    -0.19   0.16  -0.11     0.03   0.43   0.30     0.14  -0.39  -0.10
  16   1    -0.10   0.04   0.51    -0.27  -0.08  -0.02     0.24   0.01  -0.41
  17   1     0.06  -0.40   0.20     0.26   0.33  -0.21    -0.24   0.12  -0.03
  18   1     0.02   0.01   0.08     0.01   0.00   0.03    -0.02   0.00   0.02
  19   1     0.01  -0.07   0.03    -0.01  -0.03   0.01     0.01  -0.01   0.00
  20   1     0.00  -0.00   0.00    -0.00   0.00   0.00     0.00  -0.00   0.00
  21   1     0.00  -0.01  -0.00    -0.00  -0.00   0.00     0.00  -0.00   0.00
  22   1     0.00  -0.00  -0.00    -0.00   0.00  -0.00     0.00  -0.00   0.00
                     46                     47                     48
                        a                      a                      a 
 Frequencies --  1504.9584              1521.3831              1579.3486
 Red. masses --     1.6301                12.6335                11.5967
 Frc consts  --     0.0000                 0.0000                 0.0000
 IR Inten    --     1.3542                24.0885                 2.6365
 Raman Activ --     0.0000                 0.0000                 0.0000
 Depolar     --     0.0000                 0.0000                 0.0000
 Atom AN      X      Y      Z        X      Y      Z        X      Y      Z
   1   6    -0.02  -0.15   0.08     0.00   0.01  -0.01     0.00   0.00  -0.00
   2   6    -0.02  -0.06   0.04     0.02   0.02  -0.00    -0.00  -0.00   0.01
   3   6    -0.03  -0.10   0.03    -0.00   0.00   0.00     0.00   0.00  -0.00
   4   6     0.01   0.01  -0.00     0.04   0.01   0.04    -0.02   0.04  -0.00
   5   6    -0.01  -0.02  -0.00    -0.24  -0.34  -0.12     0.13  -0.38  -0.01
   6   6     0.02   0.01   0.01     0.28   0.01   0.09    -0.37   0.32  -0.08
   7   7    -0.03  -0.03  -0.01    -0.39  -0.22  -0.16     0.17  -0.19   0.03
   8   6     0.02   0.04   0.01     0.15   0.34   0.09    -0.07   0.42   0.03
   9   6    -0.03   0.00  -0.01    -0.25  -0.02  -0.08     0.33  -0.34   0.07
  10   7     0.04   0.01   0.01     0.41   0.23   0.16    -0.14   0.17  -0.03
  11   1     0.17   0.47  -0.31    -0.02  -0.05   0.03     0.00  -0.00  -0.00
  12   1    -0.35   0.10  -0.26     0.03   0.01   0.03    -0.00   0.00  -0.00
  13   1     0.25   0.06   0.24    -0.04  -0.01  -0.02    -0.01  -0.00  -0.00
  14   1     0.02  -0.02  -0.02    -0.01   0.00   0.00     0.00  -0.00   0.00
  15   1     0.09   0.18   0.21    -0.01  -0.02  -0.02     0.00  -0.00   0.00
  16   1    -0.12  -0.06  -0.17     0.02   0.00  -0.00     0.00   0.00  -0.00
  17   1     0.13   0.30  -0.18    -0.01  -0.01   0.01    -0.00   0.00   0.00
  18   1     0.01   0.00  -0.02    -0.07  -0.02  -0.05    -0.07  -0.01  -0.01
  19   1    -0.01   0.01  -0.00     0.04   0.04  -0.02     0.02  -0.01   0.00
  20   1     0.01   0.00   0.00    -0.00   0.05   0.00     0.13  -0.06   0.03
  21   1     0.00  -0.01  -0.00     0.01  -0.07  -0.00    -0.05  -0.11  -0.03
  22   1     0.00  -0.01  -0.00    -0.01  -0.04  -0.01    -0.11   0.04  -0.03
                     49                     50                     51
                        a                      a                      a 
 Frequencies --  2924.7197              2971.2938              3006.7684
 Red. masses --     1.7450                 1.7614                 1.7151
 Frc consts  --     0.0000                 0.0000                 0.0000
 IR Inten    --    79.3285                41.8927                27.3712
 Raman Activ --     0.0000                 0.0000                 0.0000
 Depolar     --     0.0000                 0.0000                 0.0000
 Atom AN      X      Y      Z        X      Y      Z        X      Y      Z
   1   6     0.00  -0.00   0.01    -0.00  -0.01   0.00     0.01   0.01  -0.00
   2   6    -0.06   0.25  -0.03    -0.00   0.01   0.01     0.00  -0.02   0.00
   3   6    -0.00  -0.01  -0.00     0.00   0.00  -0.01     0.00   0.01  -0.01
   4   6     0.00  -0.01  -0.01     0.04   0.13   0.23     0.05  -0.25   0.03
   5   6    -0.00  -0.00  -0.00     0.00   0.00   0.01     0.00  -0.01   0.00
   6   6    -0.00  -0.00  -0.00    -0.00  -0.00  -0.00     0.00   0.00   0.00
   7   7     0.00   0.00  -0.00     0.00   0.00   0.00     0.00  -0.00  -0.00
   8   6     0.00  -0.00  -0.00     0.00  -0.00   0.00     0.00   0.00   0.00
   9   6    -0.00   0.00  -0.00    -0.00   0.00  -0.00     0.00   0.00   0.00
  10   7     0.00   0.00   0.00    -0.00  -0.00   0.00     0.00   0.00   0.00
  11   1    -0.02   0.00  -0.01     0.01  -0.00   0.00    -0.02   0.00  -0.01
  12   1     0.01   0.01  -0.01     0.01   0.01  -0.01    -0.02  -0.01   0.02
  13   1    -0.01   0.03   0.00    -0.00   0.01  -0.00     0.01  -0.03   0.00
  14   1     0.21  -0.93   0.10     0.01  -0.03   0.00    -0.01   0.03  -0.00
  15   1     0.01   0.01  -0.01    -0.01  -0.00   0.01    -0.02  -0.01   0.02
  16   1    -0.01   0.03  -0.01     0.00  -0.01   0.00     0.01  -0.04   0.00
  17   1     0.00   0.01   0.02     0.00   0.01   0.02     0.00   0.01   0.01
  18   1    -0.01   0.04  -0.01     0.01  -0.03   0.03    -0.17   0.94  -0.06
  19   1     0.01   0.01   0.03    -0.14  -0.42  -0.86    -0.00  -0.06  -0.04
  20   1     0.00   0.00   0.00     0.01   0.01   0.00    -0.00  -0.00  -0.00
  21   1    -0.00   0.00  -0.00    -0.00   0.00  -0.00    -0.00   0.00  -0.00
  22   1    -0.00  -0.00  -0.00    -0.00  -0.00  -0.00    -0.00  -0.00  -0.00
                     52                     53                     54
                        a                      a                      a 
 Frequencies --  3021.8707              3032.7405              3033.3975
 Red. masses --     1.9076                 1.9371                 1.9306
 Frc consts  --     0.0000                 0.0000                 0.0000
 IR Inten    --    82.9489                44.2801                23.0816
 Raman Activ --     0.0000                 0.0000                 0.0000
 Depolar     --     0.0000                 0.0000                 0.0000
 Atom AN      X      Y      Z        X      Y      Z        X      Y      Z
   1   6     0.27  -0.05   0.04     0.07   0.11  -0.04    -0.03  -0.18   0.12
   2   6     0.01  -0.00   0.00     0.00  -0.01  -0.00     0.00  -0.01  -0.00
   3   6    -0.01   0.03   0.04     0.03  -0.20  -0.16     0.05   0.02  -0.18
   4   6    -0.00   0.01   0.00    -0.00   0.00  -0.00     0.00  -0.00  -0.00
   5   6    -0.00   0.00   0.00    -0.00   0.00  -0.00     0.00  -0.00  -0.00
   6   6     0.00   0.00   0.00     0.00   0.00   0.00     0.00   0.00   0.00
   7   7     0.00  -0.00   0.00     0.00  -0.00   0.00    -0.00   0.00   0.00
   8   6     0.00  -0.00   0.00     0.00   0.00   0.00    -0.00   0.00  -0.00
   9   6     0.00   0.00   0.00     0.00   0.00   0.00     0.00   0.00   0.00
  10   7     0.00   0.00  -0.00    -0.00  -0.00  -0.00    -0.00   0.00   0.00
  11   1    -0.82   0.09  -0.31    -0.14   0.03  -0.06    -0.15  -0.01  -0.04
  12   1    -0.14  -0.13   0.19    -0.18  -0.11   0.18     0.36   0.21  -0.35
  13   1    -0.01   0.21  -0.02     0.08  -0.30   0.02    -0.11   0.45  -0.03
  14   1    -0.00   0.02  -0.00    -0.00   0.02  -0.00    -0.01   0.03  -0.00
  15   1     0.04   0.03  -0.04    -0.06  -0.07   0.04    -0.27  -0.18   0.26
  16   1     0.02  -0.08   0.02    -0.11   0.48  -0.09     0.03  -0.11  -0.01
  17   1    -0.01  -0.07  -0.13     0.06   0.30   0.60     0.04   0.22   0.37
  18   1     0.01  -0.02   0.00     0.00  -0.02   0.00    -0.00   0.01  -0.00
  19   1    -0.00  -0.00  -0.01    -0.00   0.00   0.00     0.00   0.01   0.02
  20   1    -0.00  -0.01  -0.00    -0.00  -0.00  -0.00    -0.01  -0.01  -0.00
  21   1    -0.00   0.00  -0.00    -0.00   0.00  -0.00     0.00  -0.00   0.00
  22   1    -0.00  -0.00  -0.00    -0.00  -0.00  -0.00    -0.00  -0.00  -0.00
                     55                     56                     57
                        a                      a                      a 
 Frequencies --  3035.0374              3040.9541              3044.5228
 Red. masses --     1.9283                 1.2935                 1.2793
 Frc consts  --     0.0000                 0.0000                 0.0000
 IR Inten    --   122.8616                50.7454                52.3454
 Raman Activ --     0.0000                 0.0000                 0.0000
 Depolar     --     0.0000                 0.0000                 0.0000
 Atom AN      X      Y      Z        X      Y      Z        X      Y      Z
   1   6    -0.03  -0.12   0.07    -0.05   0.09   0.10    -0.03   0.04   0.05
   2   6     0.00  -0.02   0.01     0.00   0.01   0.00    -0.01   0.00   0.00
   3   6    -0.05  -0.20   0.14     0.06   0.03   0.03    -0.14   0.00   0.00
   4   6     0.00  -0.02   0.00     0.00   0.00   0.00    -0.00   0.00  -0.00
   5   6     0.00  -0.00   0.00    -0.00   0.00   0.00     0.00   0.00   0.00
   6   6     0.00   0.00   0.00    -0.00  -0.00  -0.00     0.00   0.00   0.00
   7   7    -0.00   0.00  -0.00    -0.00  -0.00  -0.00     0.00   0.00   0.00
   8   6    -0.00   0.00  -0.00     0.00  -0.00   0.00    -0.00  -0.00  -0.00
   9   6    -0.00  -0.00  -0.00     0.00   0.00   0.00    -0.00  -0.00  -0.00
  10   7    -0.00   0.00   0.00     0.00   0.00  -0.00    -0.00  -0.00  -0.00
  11   1    -0.04  -0.01  -0.00    -0.29   0.04  -0.09    -0.13   0.02  -0.04
  12   1     0.23   0.14  -0.23     0.33   0.24  -0.33     0.18   0.13  -0.18
  13   1    -0.07   0.30  -0.02     0.13  -0.62   0.07     0.06  -0.29   0.03
  14   1    -0.01   0.05  -0.01     0.00  -0.01   0.00    -0.00   0.00  -0.00
  15   1     0.34   0.20  -0.34    -0.17  -0.11   0.19     0.39   0.27  -0.42
  16   1    -0.16   0.61  -0.06    -0.03   0.17  -0.02     0.09  -0.47   0.06
  17   1    -0.02  -0.09  -0.09    -0.02  -0.14  -0.27     0.02   0.19   0.35
  18   1    -0.01   0.07  -0.00     0.00  -0.01   0.00     0.00  -0.02   0.00
  19   1    -0.00  -0.01  -0.01    -0.00  -0.00  -0.00     0.00   0.00   0.01
  20   1    -0.00  -0.00  -0.00     0.00   0.00   0.00    -0.00  -0.01  -0.00
  21   1     0.00  -0.00   0.00     0.00  -0.00   0.00     0.00  -0.00   0.00
  22   1     0.00   0.00   0.00    -0.00  -0.00  -0.00     0.00   0.00   0.00
                     58                     59                     60
                        a                      a                      a 
 Frequencies --  3062.1615              3064.9043              3077.6813
 Red. masses --     1.7959                 1.7891                 1.8545
 Frc consts  --     0.0000                 0.0000                 0.0000
 IR Inten    --    81.2055                 2.0157                78.9036
 Raman Activ --     0.0000                 0.0000                 0.0000
 Depolar     --     0.0000                 0.0000                 0.0000
 Atom AN      X      Y      Z        X      Y      Z        X      Y      Z
   1   6    -0.00   0.00  -0.00     0.00   0.00  -0.00     0.00   0.00  -0.00
   2   6    -0.00   0.00  -0.00    -0.00   0.00  -0.00     0.00   0.00  -0.00
   3   6     0.00   0.00   0.00     0.00   0.00   0.00     0.00   0.00  -0.00
   4   6     0.00   0.00   0.00    -0.00   0.00   0.00     0.00  -0.00   0.00
   5   6     0.01  -0.00   0.00     0.01   0.00   0.00     0.00  -0.00   0.00
   6   6     0.11   0.19   0.06     0.07   0.12   0.04     0.00   0.00   0.00
   7   7     0.00   0.00   0.00     0.01   0.00   0.00    -0.01  -0.00  -0.00
   8   6    -0.05   0.01  -0.01     0.07  -0.02   0.02    -0.24   0.05  -0.07
   9   6     0.07   0.11   0.03    -0.10  -0.18  -0.05    -0.05  -0.09  -0.03
  10   7     0.00   0.00   0.00    -0.01  -0.00  -0.00    -0.00   0.00  -0.00
  11   1     0.01  -0.00   0.00     0.00   0.00   0.00    -0.00   0.00  -0.00
  12   1    -0.00  -0.00   0.00    -0.00  -0.00   0.00    -0.00  -0.00   0.00
  13   1     0.00  -0.00   0.00     0.00  -0.00   0.00     0.00  -0.00  -0.00
  14   1     0.00  -0.01   0.00     0.00  -0.00   0.00     0.00  -0.00   0.00
  15   1    -0.00  -0.00   0.00    -0.00  -0.00   0.00    -0.00  -0.00   0.00
  16   1     0.00   0.00   0.00    -0.00   0.00  -0.00    -0.00   0.00  -0.00
  17   1    -0.00  -0.00  -0.00    -0.00  -0.00  -0.00     0.00  -0.00  -0.00
  18   1     0.00  -0.00   0.00     0.00  -0.00   0.00    -0.00   0.00  -0.00
  19   1    -0.00  -0.00  -0.01    -0.00  -0.00  -0.01    -0.00  -0.00  -0.00
  20   1    -0.41  -0.66  -0.23    -0.26  -0.43  -0.15     0.00   0.00   0.00
  21   1     0.18  -0.03   0.06    -0.28   0.04  -0.09     0.84  -0.14   0.26
  22   1    -0.25  -0.40  -0.13     0.38   0.62   0.20     0.18   0.29   0.09
