
                                 *****************
                                 * O   R   C   A *
                                 *****************

                                            #,                                       
                                            ###                                      
                                            ####                                     
                                            #####                                    
                                            ######                                   
                                           ########,                                 
                                     ,,################,,,,,                         
                               ,,#################################,,                 
                          ,,##########################################,,             
                       ,#########################################, ''#####,          
                    ,#############################################,,   '####,        
                  ,##################################################,,,,####,       
                ,###########''''           ''''###############################       
              ,#####''   ,,,,##########,,,,          '''####'''          '####       
            ,##' ,,,,###########################,,,                        '##       
           ' ,,###''''                  '''############,,,                           
         ,,##''                                '''############,,,,        ,,,,,,###''
      ,#''                                            '''#######################'''  
     '                                                          ''''####''''         
             ,#######,   #######,   ,#######,      ##                                
            ,#'     '#,  ##    ##  ,#'     '#,    #''#        ,####,   ,####,        
            ##       ##  ##   ,#'  ##            #'  '#       #'       #'  '#        
            ##       ##  #######   ##           ,######,      #####,   #    #        
            '#,     ,#'  ##    ##  '#,     ,#' ,#      #,     #,   #   #,  ,#        
             '#######'   ##     ##  '#######'  #'      '#     '####' # '####'        



                #########################################################
                #                        -***-                          #
                #          Department of theory and spectroscopy        #
                #                                                       #
                #                      Frank Neese                      #
                #                                                       #
                #     Directorship, Architecture, Infrastructure        #
                #                    SHARK, DRIVERS                     #
                #        Core code/Algorithms in most modules           #
                #                                                       #
                #        Max Planck Institute fuer Kohlenforschung      #
                #                Kaiser Wilhelm Platz 1                 #
                #                 D-45470 Muelheim/Ruhr                 #
                #                      Germany                          #
                #                                                       #
                #                  All rights reserved                  #
                #                        -***-                          #
                #########################################################


                         Program Version 6.0.0  -   RELEASE  -


 With contributions from (in alphabetic order):
   Daniel Aravena         : Magnetic Suceptibility
   Michael Atanasov       : Ab Initio Ligand Field Theory (pilot matlab implementation)
   Alexander A. Auer      : GIAO ZORA, VPT2 properties, NMR spectrum
   Ute Becker             : All parallelization in ORCA, NUMFREQ, NUMCALC
   Giovanni Bistoni       : ED, misc. LED, open-shell LED, HFLD
   Martin Brehm           : Molecular dynamics
   Dmytro Bykov           : pre 5.0 version of the SCF Hessian
   Marcos Casanova-Páez   : Triplet and SCS-CIS(D). UHF-(DLPNO)-IP/EA/STEOM-CCSD. UHF-CVS-IP/STEOM-CCSD
   Vijay G. Chilkuri      : MRCI spin determinant printing, contributions to CSF-ICE
   Pauline Colinet        : FMM embedding
   Dipayan Datta          : RHF DLPNO-CCSD density
   Achintya Kumar Dutta   : EOM-CC, STEOM-CC
   Nicolas Foglia         : Exact transition moments, OPA infrastructure, MCD improvements
   Dmitry Ganyushin       : Spin-Orbit,Spin-Spin,Magnetic field MRCI
   Miquel Garcia          : C-PCM and meta-GGA Hessian, CCSD/C-PCM, Gaussian charge scheme
   Tiago L. C. Gouveia    : GS-ROHF, GS-ROCIS
   Yang Guo               : DLPNO-NEVPT2, F12-NEVPT2, CIM, IAO-localization
   Andreas Hansen         : Spin unrestricted coupled pair/coupled cluster methods
   Ingolf Harden          : AUTO-CI MPn and infrastructure 
   Benjamin Helmich-Paris : MC-RPA, TRAH-(SCF,CASSCF), AVAS, COSX integrals, SCF dyn. polar.
   Lee Huntington         : MR-EOM, pCC
   Robert Izsak           : Overlap fitted RIJCOSX, COSX-SCS-MP3, EOM
   Riya Kayal             : Wick's Theorem for AUTO-CI, AUTO-CI UHF-CCSDT
   Emily Kempfer          : AUTO-CI, RHF CISDT and CCSDT
   Christian Kollmar      : KDIIS, OOCD, Brueckner-CCSD(T), CCSD density, CASPT2, CASPT2-K, improved NEVPT2
   Axel Koslowski         : Symmetry handling
   Simone Kossmann        : Meta GGA functionals, TD-DFT gradient, OOMP2, (MP2 Hessian; deprecated post 5.0)
   Lucas Lang             : DCDCAS
   Marvin Lechner         : AUTO-CI (C++ implementation), FIC-MRCC
   Spencer Leger          : CASSCF response
   Dagmar Lenk            : GEPOL surface, SMD, ORCA-2-JSON
   Dimitrios Liakos       : Extrapolation schemes; Compound Job, initial MDCI parallelization
   Dimitrios Manganas     : Further ROCIS development; embedding schemes. LFT, Crystal Embedding
   Dimitrios Pantazis     : SARC Basis sets
   Anastasios Papadopoulos: AUTO-CI, single reference methods and gradients
   Taras Petrenko         : pre 6.0 DFT Hessian and TD-DFT gradient, (ASA, deprecated), ECA, 1-Electron XAS/XES, NRVS
   Peter Pinski           : DLPNO-MP2, DLPNO-MP2 Gradient
   Christoph Reimann      : Effective Core Potentials
   Marius Retegan         : Local ZFS, SOC
   Christoph Riplinger    : Optimizer, TS searches, QM/MM, DLPNO-CCSD(T), (RO)-DLPNO pert. Triples
   Michael Roemelt        : Original ROCIS implementation
   Masaaki Saitow         : Open-shell DLPNO-CCSD energy and density
   Barbara Sandhoefer     : DKH picture change effects
   Kantharuban Sivalingam : CASSCF convergence/infrastructure, NEVPT2 and variants, FIC-MRCI
   Bernardo de Souza      : ESD, SOC TD-DFT
   Georgi Stoychev        : AutoAux, RI-MP2 NMR, DLPNO-MP2 response, X2C
   Van Anh Tran           : RI-MP2 g-tensors
   Willem Van den Heuvel  : Paramagnetic NMR
   Zikuan Wang            : NOTCH, Electric field optimization 
   Frank Wennmohs         : Technical directorship and infrastructure
   Hang Xu                : AUTO-CI-Response properties 


 We gratefully acknowledge several colleagues who have allowed us to
 interface, adapt or use parts of their codes:
   Stefan Grimme, W. Hujo, H. Kruse, P. Pracht,  : VdW corrections, initial TS optimization,
                  C. Bannwarth, S. Ehlert,         DFT functionals, gCP, sTDA/sTD-DF
                  L. Wittmann, M. Mueller
   Ed Valeev, F. Pavosevic, A. Kumar             : LibInt (2-el integral package), F12 methods
   Garnet Chan, S. Sharma, J. Yang, R. Olivares  : DMRG
   Ulf Ekstrom                                   : XCFun DFT Library
   Mihaly Kallay                                 : mrcc  (arbitrary order and MRCC methods)
   Frank Weinhold                                : gennbo (NPA and NBO analysis)
   Simon Mueller                                 : openCOSMO-RS
   Christopher J. Cramer and Donald G. Truhlar   : smd solvation model
   Lars Goerigk                                  : TD-DFT with DH, B97 family of functionals
   V. Asgeirsson, H. Jonsson                     : NEB implementation
   FAccTs GmbH                                   : IRC, NEB, NEB-TS, DLPNO-Multilevel, CI-OPT
                                                   MM, QMMM, 2- and 3-layer-ONIOM, Crystal-QMMM,
                                                   LR-CPCM, SF, NACMEs, symmetry and pop. for TD-DFT,
                                                   nearIR, NL-DFT gradient (VV10), updates on ESD,
                                                   ML-optimized integration grids, MBIS, APM,
                                                   GOAT, DOCKER, SOLVATOR, interface openCOSMO-RS
   S Lehtola, MJT Oliveira, MAL Marques          : LibXC Library
   Liviu Ungur et al                             : ANISO software


 Your calculation uses the libint2 library for the computation of 2-el integrals
 For citations please refer to: http://libint.valeyev.net

 Your ORCA version has been built with support for libXC version: 6.2.2
 For citations please refer to: https://libxc.gitlab.io

 This ORCA versions uses:
   CBLAS   interface :  Fast vector & matrix operations
   LAPACKE interface :  Fast linear algebra routines
   SCALAPACK package :  Parallel linear algebra routines
   Shared memory     :  Shared parallel matrices
   BLAS/LAPACK       :  OpenBLAS 0.3.27  USE64BITINT DYNAMIC_ARCH NO_AFFINITY SkylakeX SINGLE_THREADED
        Core in use  :  SkylakeX
   Copyright (c) 2011-2014, The OpenBLAS Project


Your calculation utilizes the geometrical counterpoise correction gCP
Please cite in your paper:
H.Kruse, S. Grimme J.Chem.Phys., 136, (2012), 154101 
   

Your calculation utilizes the atom-pairwise dispersion correction
based on EEQ partial charges (D4)


================================================================================

----- Orbital basis set information -----
Your calculation utilizes the basis: def2-SV(P)
   F. Weigend and R. Ahlrichs, Phys. Chem. Chem. Phys. 7, 3297 (2005).

----- AuxJ basis set information -----
Your calculation utilizes the auxiliary basis: def2/J
   F. Weigend, Phys. Chem. Chem. Phys. 8, 1057 (2006).

================================================================================
                                        WARNINGS
                       Please study these warnings very carefully!
================================================================================


================================================================================
                                       INPUT FILE
================================================================================
NAME = sp.inp
|  1> ! pbe def2-sv(p) def2/J RI DEFGRID1 loosescf d4 GCP(DFT/SV(P)) printgap
|  2> %output
|  3>     printlevel normal
|  4> end
|  5> * xyz 0 1
|  6> C 2.0576477177 1.2679714388 0.6744784305
|  7> C 1.6365711349 -0.1752611458 0.4208288715
|  8> C 0.3822648922 -0.2986057607 -0.4574120541
|  9> H 0.5386285033 0.332036951 -1.339862608
| 10> C 0.2652916229 -1.7390390241 -0.9581202373
| 11> C -0.87468675 0.2328052289 0.2858063687
| 12> C -1.4283293248 1.4695361594 -0.4243485949
| 13> C -2.0016520286 -0.7849710812 0.4641873036
| 14> H 2.2556485256 1.7747522385 -0.2677043172
| 15> H 1.2837595848 1.8189247665 1.2029496338
| 16> H 2.9639253348 1.2956510433 1.2751074036
| 17> H 1.4589593713 -0.6795136202 1.3737641389
| 18> H 2.461908106 -0.6925047277 -0.0741840739
| 19> H 0.1901787896 -2.4388969911 -0.13006394
| 20> H -0.5992099761 -1.8639960948 -1.6030966207
| 21> H 1.1522952138 -1.9946693838 -1.5344340434
| 22> H -0.5656816677 0.5358050232 1.2919758436
| 23> H -1.7683910328 1.2097045949 -1.4248580977
| 24> H -0.666596568 2.2409681173 -0.508581669
| 25> H -2.2716914467 1.8808018646 0.1265807686
| 26> H -2.7991838292 -0.3360739145 1.0531168214
| 27> H -1.6565667879 -1.6715180451 0.9881210315
| 28> H -2.4201840773 -1.0829933792 -0.493420684
| 29> *
| 30> 
| 31>                          ****END OF INPUT****
================================================================================

                       ****************************
                       * Single Point Calculation *
                       ****************************

---------------------------------
CARTESIAN COORDINATES (ANGSTROEM)
---------------------------------
  C      2.057648    1.267971    0.674478
  C      1.636571   -0.175261    0.420829
  C      0.382265   -0.298606   -0.457412
  H      0.538629    0.332037   -1.339863
  C      0.265292   -1.739039   -0.958120
  C     -0.874687    0.232805    0.285806
  C     -1.428329    1.469536   -0.424349
  C     -2.001652   -0.784971    0.464187
  H      2.255649    1.774752   -0.267704
  H      1.283760    1.818925    1.202950
  H      2.963925    1.295651    1.275107
  H      1.458959   -0.679514    1.373764
  H      2.461908   -0.692505   -0.074184
  H      0.190179   -2.438897   -0.130064
  H     -0.599210   -1.863996   -1.603097
  H      1.152295   -1.994669   -1.534434
  H     -0.565682    0.535805    1.291976
  H     -1.768391    1.209705   -1.424858
  H     -0.666597    2.240968   -0.508582
  H     -2.271691    1.880802    0.126581
  H     -2.799184   -0.336074    1.053117
  H     -1.656567   -1.671518    0.988121
  H     -2.420184   -1.082993   -0.493421

----------------------------
CARTESIAN COORDINATES (A.U.)
----------------------------
  NO LB      ZA    FRAG     MASS         X           Y           Z
   0 C     6.0000    0    12.011    3.888391    2.396119    1.274580
   1 C     6.0000    0    12.011    3.092671   -0.331196    0.795251
   2 C     6.0000    0    12.011    0.722376   -0.564283   -0.864384
   3 H     1.0000    0     1.008    1.017860    0.627459   -2.531973
   4 C     6.0000    0    12.011    0.501329   -3.286307   -1.810585
   5 C     6.0000    0    12.011   -1.652918    0.439938    0.540096
   6 C     6.0000    0    12.011   -2.699151    2.777021   -0.801903
   7 C     6.0000    0    12.011   -3.782574   -1.483380    0.877187
   8 H     1.0000    0     1.008    4.262558    3.353796   -0.505888
   9 H     1.0000    0     1.008    2.425954    3.437270    2.273245
  10 H     1.0000    0     1.008    5.601007    2.448426    2.409604
  11 H     1.0000    0     1.008    2.757034   -1.284095    2.596038
  12 H     1.0000    0     1.008    4.652332   -1.308644   -0.140188
  13 H     1.0000    0     1.008    0.359386   -4.608847   -0.245785
  14 H     1.0000    0     1.008   -1.132343   -3.522442   -3.029414
  15 H     1.0000    0     1.008    2.177522   -3.769379   -2.899660
  16 H     1.0000    0     1.008   -1.068983    1.012525    2.441481
  17 H     1.0000    0     1.008   -3.341775    2.286010   -2.692592
  18 H     1.0000    0     1.008   -1.259685    4.234816   -0.961080
  19 H     1.0000    0     1.008   -4.292875    3.554200    0.239203
  20 H     1.0000    0     1.008   -5.289691   -0.635088    1.990102
  21 H     1.0000    0     1.008   -3.130458   -3.158711    1.867278
  22 H     1.0000    0     1.008   -4.573485   -2.046561   -0.932430

--------------------------------
INTERNAL COORDINATES (ANGSTROEM)
--------------------------------
 C      0   0   0     0.000000000000     0.00000000     0.00000000
 C      1   0   0     1.524652052310     0.00000000     0.00000000
 C      2   1   0     1.536165735818   113.36727260     0.00000000
 H      3   2   1     1.095846151964   107.31742231    49.57771743
 C      3   2   1     1.529457229465   108.97962840   164.89734360
 C      3   2   1     1.553930080372   111.07387627   292.11701995
 C      6   3   2     1.529818148478   110.31459995   115.09555405
 C      6   3   2     1.528966681948   115.11067446   238.93483331
 H      1   2   3     1.087997899326   110.31063044   301.26169343
 H      1   2   3     1.087075997465   111.34738669    61.57153797
 H      1   2   3     1.087593877828   110.24917446   181.64118411
 H      2   1   3     1.092658281606   109.67279293   237.66457899
 H      2   1   3     1.092593179090   108.35348769   120.68616498
 H      5   3   2     1.086793606532   111.24349995    59.65301542
 H      5   3   2     1.085804687472   111.33009059   181.27792082
 H      5   3   2     1.088237039515   109.40638060   300.44672503
 H      6   3   2     1.095294493939   107.80423835   357.68508760
 H      7   6   3     1.088197441805   110.29591150    63.74866018
 H      7   6   3     1.087400234147   110.85215908   303.57418922
 H      7   6   3     1.088081941995   110.54988055   183.46333338
 H      8   6   3     1.088303090217   109.19053117   176.06101331
 H      8   6   3     1.086073613426   111.43571501    56.88057092
 H      8   6   3     1.086737973851   111.32216735   295.11499349

---------------------------
INTERNAL COORDINATES (A.U.)
---------------------------
 C      0   0   0     0.000000000000     0.00000000     0.00000000
 C      1   0   0     2.881174828388     0.00000000     0.00000000
 C      2   1   0     2.902932537009   113.36727260     0.00000000
 H      3   2   1     2.070849112124   107.31742231    49.57771743
 C      3   2   1     2.890255297235   108.97962840   164.89734360
 C      3   2   1     2.936502283166   111.07387627   292.11701995
 C      6   3   2     2.890937335326   110.31459995   115.09555405
 C      6   3   2     2.889328296772   115.11067446   238.93483331
 H      1   2   3     2.056018064007   110.31063044   301.26169343
 H      1   2   3     2.054275921968   111.34738669    61.57153797
 H      1   2   3     2.055254574024   110.24917446   181.64118411
 H      2   1   3     2.064824910196   109.67279293   237.66457899
 H      2   1   3     2.064701884271   108.35348769   120.68616498
 H      5   3   2     2.053742280441   111.24349995    59.65301542
 H      5   3   2     2.051873494249   111.33009059   181.27792082
 H      5   3   2     2.056469973472   109.40638060   300.44672503
 H      6   3   2     2.069806629537   107.80423835   357.68508760
 H      7   6   3     2.056395144646   110.29591150    63.74866018
 H      7   6   3     2.054888640500   110.85215908   303.57418922
 H      7   6   3     2.056176881636   110.54988055   183.46333338
 H      8   6   3     2.056594791210   109.19053117   176.06101331
 H      8   6   3     2.052381690654   111.43571501    56.88057092
 H      8   6   3     2.053637149911   111.32216735   295.11499349

---------------------
BASIS SET INFORMATION
---------------------
There are 2 groups of distinct atoms

 Group   1 Type C   : 7s4p1d contracted to 3s2p1d pattern {511/31/1}
 Group   2 Type H   : 4s contracted to 2s pattern {31}

Atom   0C    basis set group =>   1
Atom   1C    basis set group =>   1
Atom   2C    basis set group =>   1
Atom   3H    basis set group =>   2
Atom   4C    basis set group =>   1
Atom   5C    basis set group =>   1
Atom   6C    basis set group =>   1
Atom   7C    basis set group =>   1
Atom   8H    basis set group =>   2
Atom   9H    basis set group =>   2
Atom  10H    basis set group =>   2
Atom  11H    basis set group =>   2
Atom  12H    basis set group =>   2
Atom  13H    basis set group =>   2
Atom  14H    basis set group =>   2
Atom  15H    basis set group =>   2
Atom  16H    basis set group =>   2
Atom  17H    basis set group =>   2
Atom  18H    basis set group =>   2
Atom  19H    basis set group =>   2
Atom  20H    basis set group =>   2
Atom  21H    basis set group =>   2
Atom  22H    basis set group =>   2
---------------------------------
AUXILIARY/J BASIS SET INFORMATION
---------------------------------
There are 2 groups of distinct atoms

 Group   1 Type C   : 12s5p4d2f1g contracted to 6s4p3d1f1g pattern {711111/2111/211/2/1}
 Group   2 Type H   : 5s2p1d contracted to 3s1p1d pattern {311/2/1}

Atom   0C    basis set group =>   1
Atom   1C    basis set group =>   1
Atom   2C    basis set group =>   1
Atom   3H    basis set group =>   2
Atom   4C    basis set group =>   1
Atom   5C    basis set group =>   1
Atom   6C    basis set group =>   1
Atom   7C    basis set group =>   1
Atom   8H    basis set group =>   2
Atom   9H    basis set group =>   2
Atom  10H    basis set group =>   2
Atom  11H    basis set group =>   2
Atom  12H    basis set group =>   2
Atom  13H    basis set group =>   2
Atom  14H    basis set group =>   2
Atom  15H    basis set group =>   2
Atom  16H    basis set group =>   2
Atom  17H    basis set group =>   2
Atom  18H    basis set group =>   2
Atom  19H    basis set group =>   2
Atom  20H    basis set group =>   2
Atom  21H    basis set group =>   2
Atom  22H    basis set group =>   2
------------------------------------------------------------------------------
                             ORCA STARTUP CALCULATIONS
                           -- RI-GTO INTEGRALS CHOSEN --
------------------------------------------------------------------------------
------------------------------------------------------------------------------
                   ___                                                        
                  /   \      - P O W E R E D   B Y -                         
                 /     \                                                     
                 |  |  |   _    _      __       _____    __    __             
                 |  |  |  | |  | |    /  \     |  _  \  |  |  /  |          
                  \  \/   | |  | |   /    \    | | | |  |  | /  /          
                 / \  \   | |__| |  /  /\  \   | |_| |  |  |/  /          
                |  |  |   |  __  | /  /__\  \  |    /   |      \           
                |  |  |   | |  | | |   __   |  |    \   |  |\   \          
                \     /   | |  | | |  |  |  |  | |\  \  |  | \   \       
                 \___/    |_|  |_| |__|  |__|  |_| \__\ |__|  \__/        
                                                                              
                      - O R C A' S   B I G   F R I E N D -                    
                                      &                                       
                       - I N T E G R A L  F E E D E R -                       
                                                                              
 v1 FN, 2020, v2 2021, v3 2022-2024                                           
------------------------------------------------------------------------------


----------------------
SHARK INTEGRAL PACKAGE
----------------------

Number of atoms                             ...     23
Number of basis functions                   ...    130
Number of shells                            ...     74
Maximum angular momentum                    ...      2
Integral batch strategy                     ... SHARK/LIBINT Hybrid
RI-J (if used) integral strategy            ... SPLIT-RIJ (Revised 2003 algorithm where possible)
Printlevel                                  ...      1
Contraction scheme used                     ... SEGMENTED contraction
Prescreening option                         ... SCHWARTZ
   Thresh                                   ... 1.000e-09
   Tcut                                     ... 1.000e-10
   Tpresel                                  ... 1.000e-10 
Coulomb Range Separation                    ... NOT USED
Exchange Range Separation                   ... NOT USED
Multipole approximations                    ... NOT USED
Finite Nucleus Model                        ... NOT USED
CABS basis                                  ... NOT available
Auxiliary Coulomb fitting basis             ... AVAILABLE
   # of basis functions in Aux-J            ...    519
   # of shells in Aux-J                     ...    185
   Maximum angular momentum in Aux-J        ...      4
Auxiliary J/K fitting basis                 ... NOT available
Auxiliary Correlation fitting basis         ... NOT available
Auxiliary 'external' fitting basis          ... NOT available

Checking pre-screening integrals            ... done (  0.0 sec) Dimension = 74
Check shell pair data                       ... done (  0.0 sec)
Shell pair information
Shell pair cut-off parameter TPreSel        ...   1.0e-10
Total number of shell pairs                 ...      2775
Shell pairs after pre-screening             ...      2695
Total number of primitive shell pairs       ...     11165
Primitive shell pairs kept                  ...      7745
          la=0 lb=0:   1373 shell pairs
          la=1 lb=0:    737 shell pairs
          la=1 lb=1:    105 shell pairs
          la=2 lb=0:    355 shell pairs
          la=2 lb=1:     98 shell pairs
          la=2 lb=2:     27 shell pairs

Calculating one electron integrals          ... done (  0.0 sec)
Calculating RI/J V-Matrix + Cholesky decomp.... done (  0.1 sec)
Calculating Nuclear repulsion               ... done (  0.0 sec) ENN=    337.087148326857 Eh

Diagonalization of the overlap matrix:
Smallest eigenvalue                        ... 1.088e-03
Time for diagonalization                   ...    0.002 sec
Threshold for overlap eigenvalues          ... 1.000e-07
Number of eigenvalues below threshold      ... 0
Time for construction of square roots      ...    0.014 sec
Total time needed                          ...    0.024 sec

-------------------
DFT GRID GENERATION
-------------------

General Integration Accuracy     IntAcc      ... 4.159
Radial Grid Type                 RadialGrid  ... OptM3 with GC (2021)
Angular Grid (max. ang.)         AngularGrid ... 3 (Lebedev-194)
Angular grid pruning method      GridPruning ... 4 (adaptive)
Weight generation scheme         WeightScheme... mBecke (2022)
Basis function cutoff            BFCut       ... 1.0000e-10
Integration weight cutoff        WCut        ... 1.0000e-14
Partially contracted basis set               ... off
Rotationally invariant grid construction     ... off
Angular grids for H and He will be reduced by one unit

Total number of grid points                  ...    44782
Total number of batches                      ...      710
Average number of points per batch           ...       63
Average number of grid points per atom       ...     1947
Initializing property integral containers    ... done (  0.0 sec)

SHARK setup successfully completed in   0.7 seconds

Maximum memory used throughout the entire STARTUP-calculation: 20.8 MB
-------------------------------------------------------------------------------
                                 ORCA GUESS
                   Start orbitals & Density for SCF / CASSCF
-------------------------------------------------------------------------------

------------
SCF SETTINGS
------------
Hamiltonian:
 Density Functional     Method          .... DFT(GTOs)
 Exchange Functional    Exchange        .... PBE
   PBE kappa parameter   XKappa         ....  0.804000
   PBE mue parameter    XMuePBE         ....  0.219520
 Correlation Functional Correlation     .... PBE
   PBE beta parameter  CBetaPBE         ....  0.066725
 LDA part of GGA corr.  LDAOpt          .... PW91-LDA
 Gradients option       PostSCFGGA      .... off
   NL short-range parameter             ....  6.400000
 RI-approximation to the Coulomb term is turned on
   Number of AuxJ basis functions       .... 519


General Settings:
 Integral files         IntName         .... sp
 Hartree-Fock type      HFTyp           .... RHF
 Total Charge           Charge          ....    0
 Multiplicity           Mult            ....    1
 Number of Electrons    NEL             ....   58
 Basis Dimension        Dim             ....  130
 Nuclear Repulsion      ENuc            ....    337.0871483269 Eh

Convergence Acceleration:
 AO-DIIS                CNVDIIS         .... on
   Start iteration      DIISMaxIt       ....    12
   Startup error        DIISStart       ....  0.200000
   # of expansion vecs  DIISMaxEq       ....     5
   Bias factor          DIISBfac        ....   1.050
   Max. coefficient     DIISMaxC        ....  10.000
 MO-DIIS                CNVKDIIS        .... off
 Trust-Rad. Augm. Hess. CNVTRAH         .... auto
   Auto Start mean grad. ratio tolernc. ....  1.125000
   Auto Start start iteration           ....    50
   Auto Start num. interpolation iter.  ....    10
   Max. Number of Micro iterations      ....    24
   Max. Number of Macro iterations      .... Maxiter - #DIIS iter
   Number of Davidson start vectors     ....     2
   Converg. threshold    (grad. norm)   ....   1.000e-04
   Grad. Scal. Fac. for Micro threshold ....   0.100
   Minimum threshold for Micro iter.    ....   1.000e-02
   NR start threshold (gradient norm)   ....   1.000e-04
   Initial trust radius                 ....   0.400
   Minimum AH scaling param. (alpha)    ....   1.000
   Maximum AH scaling param. (alpha)    .... 1000.000
   Quad. conv. algorithm                .... NR
   White noise on init. David. guess    .... on
   Maximum white noise                  ....   0.010
   Pseudo random numbers                .... off
   Inactive MOs                         .... canonical
   Orbital update algorithm             .... Taylor
   Preconditioner                       .... Diag
   Full preconditioner red. dimension   ....   250
 SOSCF                  CNVSOSCF        .... on
   Start iteration      SOSCFMaxIt      ....   150
   Startup grad/error   SOSCFStart      ....  0.003300
   Hessian update       SOSCFHessUp     .... L-BFGS
 Level Shifting         CNVShift        .... on
   Level shift para.    LevelShift      ....    0.2500
   Turn off err/grad.   ShiftErr        ....    0.0010
 Zerner damping         CNVZerner       .... off
 Static damping         CNVDamp         .... on
   Fraction old density DampFac         ....    0.7000
   Max. Damping (<1)    DampMax         ....    0.9800
   Min. Damping (>=0)   DampMin         ....    0.0000
   Turn off err/grad.   DampErr         ....    0.1000

SCF Procedure:
 Maximum # iterations   MaxIter         ....   125
 SCF integral mode      SCFMode         .... Direct
   Integral package                     .... SHARK and LIBINT hybrid scheme
 Reset frequency        DirectResetFreq ....    20
 Integral Threshold     Thresh          ....  1.000e-09 Eh
 Primitive CutOff       TCut            ....  1.000e-10 Eh

Convergence Tolerance:
 Convergence Check Mode ConvCheckMode   .... Total+1el-Energy
 Convergence forced     ConvForced      .... 0
 Energy Change          TolE            ....  1.000e-05 Eh
 1-El. energy change                    ....  1.000e-02 Eh
 Orbital Gradient       TolG            ....  1.000e-04
 Orbital Rotation angle TolX            ....  1.000e-04
 DIIS Error             TolErr          ....  5.000e-04

------------------------------
INITIAL GUESS: MODEL POTENTIAL
------------------------------
Loading Hartree-Fock densities                     ... done
Calculating cut-offs                               ... done
Initializing the effective Hamiltonian             ... done
Setting up the integral package (SHARK)            ... done
Starting the Coulomb interaction                   ... done (   0.1 sec)
Making the grid                                    ... done (   0.2 sec)
Mapping shells                                     ... done
Starting the XC term evaluation                    ... done (   0.2 sec)
  promolecular density results
     # of electrons  =     57.994521808
     EX              =    -40.543308307
     EC              =     -1.882173659
     EX+EC           =    -42.425481967
Transforming the Hamiltonian                       ... done (   0.0 sec)
Diagonalizing the Hamiltonian                      ... done (   0.0 sec)
Back transforming the eigenvectors                 ... done (   0.0 sec)
Now organizing SCF variables                       ... done
                      ------------------
                      INITIAL GUESS DONE (   0.6 sec)
                      ------------------
             **** ENERGY FILE WAS UPDATED (sp.en.tmp) ****
Finished Guess after   0.8 sec
Maximum memory used throughout the entire GUESS-calculation: 15.9 MB

-------------------------------------------------------------------------------------------
                                      ORCA LEAN-SCF
                              memory conserving SCF solver
-------------------------------------------------------------------------------------------

----------------------------------------D-I-I-S--------------------------------------------
Iteration    Energy (Eh)           Delta-E    RMSDP     MaxDP     DIISErr   Damp  Time(sec)
-------------------------------------------------------------------------------------------
               ***  Starting incremental Fock matrix formation  ***
    1    -275.4873948568920810     0.00e+00  4.89e-03  8.33e-02  1.61e-01  0.700   0.8
    2    -275.6102200051095110    -1.23e-01  3.53e-03  4.79e-02  7.68e-02  0.700   0.8
                               ***Turning on AO-DIIS***
    3    -275.6522882605552809    -4.21e-02  1.37e-03  1.31e-02  2.15e-02  0.700   0.8
    4    -275.6764889729174115    -2.42e-02  1.97e-03  2.13e-02  6.89e-03  0.000   0.8
    5    -275.7320521219490388    -5.56e-02  6.11e-04  6.34e-03  8.52e-03  0.000   0.8
                              *** Initializing SOSCF ***
---------------------------------------S-O-S-C-F--------------------------------------
Iteration    Energy (Eh)           Delta-E    RMSDP     MaxDP     MaxGrad    Time(sec)
--------------------------------------------------------------------------------------
    6    -275.7328217471546736    -7.70e-04  2.26e-04  2.14e-03  1.97e-03     0.8
               *** Restarting incremental Fock matrix formation ***
    7    -275.7328818485603392    -6.01e-05  1.55e-04  1.38e-03  2.46e-04     0.8
    8    -275.7328807046253019     1.14e-06  4.63e-05  9.48e-04  2.70e-04     0.7
                 **** Energy Check signals convergence ****

               *****************************************************
               *                     SUCCESS                       *
               *           SCF CONVERGED AFTER   8 CYCLES          *
               *****************************************************

             **** ENERGY FILE WAS UPDATED (sp.en.tmp) ****

----------------
TOTAL SCF ENERGY
----------------

Total Energy       :       -275.73288070462530 Eh           -7503.07313 eV

Components:
Nuclear Repulsion  :        337.08714832685672 Eh            9172.60763 eV
Electronic Energy  :       -612.82002903148202 Eh          -16675.68077 eV
One Electron Energy:      -1037.80762395767306 Eh          -28240.18115 eV
Two Electron Energy:        424.98759492619104 Eh           11564.50039 eV

Virial components:
Potential Energy   :       -548.78530336601921 Eh          -14933.20729 eV
Kinetic Energy     :        273.05242266139385 Eh            7430.13416 eV
Virial Ratio       :          2.00981664259597

DFT components:
N(Alpha)           :       29.000097500394 electrons
N(Beta)            :       29.000097500394 electrons
N(Total)           :       58.000195000789 electrons
E(X)               :      -41.680465473279 Eh       
E(C)               :       -1.889282725302 Eh       
E(XC)              :      -43.569748198581 Eh       

---------------
SCF CONVERGENCE
---------------

  Last Energy change         ...   -1.1439e-06  Tolerance :   1.0000e-05
  Last MAX-Density change    ...    9.4777e-04  Tolerance :   1.0000e-03
  Last RMS-Density change    ...    4.6333e-05  Tolerance :   1.0000e-04
  Last DIIS Error            ...    1.9674e-03  Tolerance :   5.0000e-04
  Last Orbital Gradient      ...    2.6994e-04  Tolerance :   1.0000e-04
  Last Orbital Rotation      ...    2.1958e-04  Tolerance :   1.0000e-04


----------------
ORBITAL ENERGIES
----------------

  NO   OCC          E(Eh)            E(eV) 
   0   2.0000      -9.888642      -269.0836 
   1   2.0000      -9.886487      -269.0250 
   2   2.0000      -9.877989      -268.7937 
   3   2.0000      -9.869452      -268.5615 
   4   2.0000      -9.868044      -268.5231 
   5   2.0000      -9.867882      -268.5187 
   6   2.0000      -9.867250      -268.5015 
   7   2.0000      -0.740239       -20.1429 
   8   2.0000      -0.682919       -18.5832 
   9   2.0000      -0.643565       -17.5123 
  10   2.0000      -0.606023       -16.4907 
  11   2.0000      -0.562454       -15.3051 
  12   2.0000      -0.525826       -14.3084 
  13   2.0000      -0.481672       -13.1070 
  14   2.0000      -0.414431       -11.2772 
  15   2.0000      -0.411202       -11.1894 
  16   2.0000      -0.383509       -10.4358 
  17   2.0000      -0.375425       -10.2158 
  18   2.0000      -0.365498        -9.9457 
  19   2.0000      -0.350572        -9.5396 
  20   2.0000      -0.340796        -9.2735 
  21   2.0000      -0.329235        -8.9589 
  22   2.0000      -0.318650        -8.6709 
  23   2.0000      -0.309486        -8.4216 
  24   2.0000      -0.295803        -8.0492 
  25   2.0000      -0.291476        -7.9315 
  26   2.0000      -0.268276        -7.3002 
  27   2.0000      -0.263773        -7.1776 
  28   2.0000      -0.258790        -7.0420 
  29   0.0000       0.033585         0.9139 
  30   0.0000       0.054847         1.4925 
  31   0.0000       0.061853         1.6831 
  32   0.0000       0.063662         1.7323 
  33   0.0000       0.090085         2.4514 
  34   0.0000       0.096143         2.6162 
  35   0.0000       0.102690         2.7943 
  36   0.0000       0.108079         2.9410 
  37   0.0000       0.118264         3.2181 
  38   0.0000       0.132577         3.6076 
  39   0.0000       0.134288         3.6542 
*Only the first 10 virtual orbitals were printed.

                    ********************************
                    * MULLIKEN POPULATION ANALYSIS *
                    ********************************

-----------------------
MULLIKEN ATOMIC CHARGES
-----------------------
   0 C :   -0.265841
   1 C :   -0.184266
   2 C :   -0.140392
   3 H :    0.062243
   4 C :   -0.212887
   5 C :   -0.163675
   6 C :   -0.260795
   7 C :   -0.223987
   8 H :    0.096429
   9 H :    0.106563
  10 H :    0.100711
  11 H :    0.083367
  12 H :    0.076754
  13 H :    0.089721
  14 H :    0.093857
  15 H :    0.095746
  16 H :    0.073684
  17 H :    0.096216
  18 H :    0.101987
  19 H :    0.092981
  20 H :    0.096332
  21 H :    0.095128
  22 H :    0.090126
Sum of atomic charges:   -0.0000000

--------------------------------
MULLIKEN REDUCED ORBITAL CHARGES
--------------------------------
  0 C s       :     3.077043  s :     3.077043
      pz      :     1.062302  p :     3.159414
      px      :     1.059810
      py      :     1.037302
      dz2     :     0.003201  d :     0.029384
      dxz     :     0.006833
      dyz     :     0.007784
      dx2y2   :     0.005696
      dxy     :     0.005870

  1 C s       :     3.077670  s :     3.077670
      pz      :     1.023223  p :     3.069682
      px      :     1.009180
      py      :     1.037279
      dz2     :     0.006227  d :     0.036914
      dxz     :     0.006792
      dyz     :     0.008899
      dx2y2   :     0.006581
      dxy     :     0.008416

  2 C s       :     3.094123  s :     3.094123
      pz      :     1.001289  p :     3.004746
      px      :     0.997913
      py      :     1.005543
      dz2     :     0.006721  d :     0.041524
      dxz     :     0.007834
      dyz     :     0.010656
      dx2y2   :     0.009144
      dxy     :     0.007170

  3 H s       :     0.937757  s :     0.937757

  4 C s       :     3.033645  s :     3.033645
      pz      :     1.053000  p :     3.149803
      px      :     1.046536
      py      :     1.050267
      dz2     :     0.001762  d :     0.029439
      dxz     :     0.008162
      dyz     :     0.008577
      dx2y2   :     0.007335
      dxy     :     0.003604

  5 C s       :     3.094417  s :     3.094417
      pz      :     1.019374  p :     3.027001
      px      :     0.989159
      py      :     1.018468
      dz2     :     0.009260  d :     0.042257
      dxz     :     0.007921
      dyz     :     0.007100
      dx2y2   :     0.008332
      dxy     :     0.009644

  6 C s       :     3.091121  s :     3.091121
      pz      :     1.050688  p :     3.140144
      px      :     1.056063
      py      :     1.033392
      dz2     :     0.007396  d :     0.029531
      dxz     :     0.005677
      dyz     :     0.004034
      dx2y2   :     0.003245
      dxy     :     0.009179

  7 C s       :     3.042972  s :     3.042972
      pz      :     1.056675  p :     3.151623
      px      :     1.049182
      py      :     1.045766
      dz2     :     0.003517  d :     0.029391
      dxz     :     0.007610
      dyz     :     0.006654
      dx2y2   :     0.005395
      dxy     :     0.006215

  8 H s       :     0.903571  s :     0.903571

  9 H s       :     0.893437  s :     0.893437

 10 H s       :     0.899289  s :     0.899289

 11 H s       :     0.916633  s :     0.916633

 12 H s       :     0.923246  s :     0.923246

 13 H s       :     0.910279  s :     0.910279

 14 H s       :     0.906143  s :     0.906143

 15 H s       :     0.904254  s :     0.904254

 16 H s       :     0.926316  s :     0.926316

 17 H s       :     0.903784  s :     0.903784

 18 H s       :     0.898013  s :     0.898013

 19 H s       :     0.907019  s :     0.907019

 20 H s       :     0.903668  s :     0.903668

 21 H s       :     0.904872  s :     0.904872

 22 H s       :     0.909874  s :     0.909874


------------------------
MULLIKEN OVERLAP CHARGES
------------------------
B(  0-C ,  1-C ) :   0.8843 B(  0-C ,  2-C ) :  -0.1150 B(  0-C ,  8-H ) :   0.7516 
B(  0-C ,  9-H ) :   0.7490 B(  0-C , 10-H ) :   0.7247 B(  0-C , 11-H ) :  -0.0506 
B(  1-C ,  2-C ) :   0.8272 B(  1-C ,  3-H ) :  -0.0707 B(  1-C ,  4-C ) :  -0.1118 
B(  1-C ,  5-C ) :  -0.0625 B(  1-C , 11-H ) :   0.6994 B(  1-C , 12-H ) :   0.7052 
B(  2-C ,  3-H ) :   0.7051 B(  2-C ,  4-C ) :   0.8608 B(  2-C ,  5-C ) :   0.5564 
B(  2-C ,  6-C ) :  -0.0699 B(  2-C ,  7-C ) :  -0.0790 B(  2-C , 12-H ) :  -0.0550 
B(  2-C , 16-H ) :  -0.1030 B(  3-H ,  4-C ) :  -0.0540 B(  3-H ,  5-C ) :  -0.1076 
B(  4-C ,  5-C ) :  -0.0775 B(  4-C , 13-H ) :   0.7212 B(  4-C , 14-H ) :   0.7146 
B(  4-C , 15-H ) :   0.7314 B(  5-C ,  6-C ) :   0.8604 B(  5-C ,  7-C ) :   0.8944 
B(  5-C , 16-H ) :   0.6997 B(  6-C ,  7-C ) :  -0.1337 B(  6-C , 16-H ) :  -0.0665 
B(  6-C , 17-H ) :   0.7435 B(  6-C , 18-H ) :   0.7294 B(  6-C , 19-H ) :   0.7271 
B(  7-C , 16-H ) :  -0.0560 B(  7-C , 20-H ) :   0.7357 B(  7-C , 21-H ) :   0.7130 
B(  7-C , 22-H ) :   0.7252 B(  8-H ,  9-H ) :  -0.0556 B( 11-H , 12-H ) :  -0.0679 
B( 13-H , 14-H ) :  -0.0516 B( 13-H , 15-H ) :  -0.0505 B( 17-H , 18-H ) :  -0.0511 
B( 17-H , 19-H ) :  -0.0519 B( 20-H , 22-H ) :  -0.0509 B( 21-H , 22-H ) :  -0.0502 



                     *******************************
                     * LOEWDIN POPULATION ANALYSIS *
                     *******************************

----------------------
LOEWDIN ATOMIC CHARGES
----------------------
   0 C :   -0.341992
   1 C :   -0.223613
   2 C :   -0.142700
   3 H :    0.112633
   4 C :   -0.328302
   5 C :   -0.149704
   6 C :   -0.328724
   7 C :   -0.328475
   8 H :    0.116197
   9 H :    0.116140
  10 H :    0.119009
  11 H :    0.112290
  12 H :    0.111868
  13 H :    0.116127
  14 H :    0.115716
  15 H :    0.116827
  16 H :    0.113311
  17 H :    0.115269
  18 H :    0.114931
  19 H :    0.114322
  20 H :    0.117337
  21 H :    0.116007
  22 H :    0.115526

-------------------------------
LOEWDIN REDUCED ORBITAL CHARGES
-------------------------------
  0 C s       :     2.943809  s :     2.943809
      pz      :     1.121816  p :     3.327075
      px      :     1.116235
      py      :     1.089023
      dz2     :     0.008496  d :     0.071108
      dxz     :     0.016791
      dyz     :     0.017356
      dx2y2   :     0.014700
      dxy     :     0.013766

  1 C s       :     2.912378  s :     2.912378
      pz      :     1.086910  p :     3.222050
      px      :     1.064177
      py      :     1.070963
      dz2     :     0.014627  d :     0.089186
      dxz     :     0.017929
      dyz     :     0.019648
      dx2y2   :     0.017904
      dxy     :     0.019079

  2 C s       :     2.882736  s :     2.882736
      pz      :     1.063225  p :     3.158960
      px      :     1.040273
      py      :     1.055462
      dz2     :     0.013750  d :     0.101004
      dxz     :     0.021788
      dyz     :     0.025496
      dx2y2   :     0.024976
      dxy     :     0.014994

  3 H s       :     0.887367  s :     0.887367

  4 C s       :     2.945592  s :     2.945592
      pz      :     1.113750  p :     3.311138
      px      :     1.115557
      py      :     1.081831
      dz2     :     0.004205  d :     0.071573
      dxz     :     0.020003
      dyz     :     0.020396
      dx2y2   :     0.019157
      dxy     :     0.007812

  5 C s       :     2.878622  s :     2.878622
      pz      :     1.071141  p :     3.168870
      px      :     1.044642
      py      :     1.053086
      dz2     :     0.021584  d :     0.102213
      dxz     :     0.018921
      dyz     :     0.017374
      dx2y2   :     0.018198
      dxy     :     0.026135

  6 C s       :     2.950442  s :     2.950442
      pz      :     1.113334  p :     3.306480
      px      :     1.110825
      py      :     1.082321
      dz2     :     0.017182  d :     0.071802
      dxz     :     0.013646
      dyz     :     0.010686
      dx2y2   :     0.007749
      dxy     :     0.022540

  7 C s       :     2.945926  s :     2.945926
      pz      :     1.120354  p :     3.311089
      px      :     1.092076
      py      :     1.098659
      dz2     :     0.009409  d :     0.071460
      dxz     :     0.017510
      dyz     :     0.015502
      dx2y2   :     0.011917
      dxy     :     0.017122

  8 H s       :     0.883803  s :     0.883803

  9 H s       :     0.883860  s :     0.883860

 10 H s       :     0.880991  s :     0.880991

 11 H s       :     0.887710  s :     0.887710

 12 H s       :     0.888132  s :     0.888132

 13 H s       :     0.883873  s :     0.883873

 14 H s       :     0.884284  s :     0.884284

 15 H s       :     0.883173  s :     0.883173

 16 H s       :     0.886689  s :     0.886689

 17 H s       :     0.884731  s :     0.884731

 18 H s       :     0.885069  s :     0.885069

 19 H s       :     0.885678  s :     0.885678

 20 H s       :     0.882663  s :     0.882663

 21 H s       :     0.883993  s :     0.883993

 22 H s       :     0.884474  s :     0.884474


---------------------------------
LOEWDIN BOND ORDERS (THRESH 0.050000)
---------------------------------
B(  0-C ,  1-C ) :   1.1294 B(  0-C ,  2-C ) :   0.0519 B(  0-C ,  8-H ) :   0.9392 
B(  0-C ,  9-H ) :   0.9361 B(  0-C , 10-H ) :   0.9377 B(  1-C ,  2-C ) :   1.0609 
B(  1-C ,  4-C ) :   0.0598 B(  1-C ,  5-C ) :   0.0540 B(  1-C , 11-H ) :   0.9042 
B(  1-C , 12-H ) :   0.9011 B(  2-C ,  3-H ) :   0.8681 B(  2-C ,  4-C ) :   1.0961 
B(  2-C ,  5-C ) :   1.0075 B(  2-C ,  6-C ) :   0.0579 B(  4-C , 13-H ) :   0.9342 
B(  4-C , 14-H ) :   0.9327 B(  4-C , 15-H ) :   0.9323 B(  5-C ,  6-C ) :   1.0966 
B(  5-C ,  7-C ) :   1.0986 B(  5-C , 16-H ) :   0.8688 B(  6-C ,  7-C ) :   0.0578 
B(  6-C , 17-H ) :   0.9364 B(  6-C , 18-H ) :   0.9353 B(  6-C , 19-H ) :   0.9350 
B(  7-C , 20-H ) :   0.9328 B(  7-C , 21-H ) :   0.9339 B(  7-C , 22-H ) :   0.9340 


------------------------------------------
LOEWDIN REDUCED ORBITAL POPULATIONS PER MO
-------------------------------------------
THRESHOLD FOR PRINTING IS 0.1%%
                      0         1         2         3         4         5   
                  -9.88864  -9.88649  -9.87799  -9.86945  -9.86804  -9.86788
                   2.00000   2.00000   2.00000   2.00000   2.00000   2.00000
                  --------  --------  --------  --------  --------  --------
 0 C  s               0.0       0.0       0.0      99.7       0.0       0.0
 1 C  s               0.0       0.0      99.6       0.0       0.0       0.0
 2 C  s               0.0      99.5       0.0       0.0       0.0       0.0
 4 C  s               0.0       0.0       0.0       0.0       0.0       0.2
 5 C  s              99.5       0.0       0.0       0.0       0.0       0.0
 6 C  s               0.0       0.0       0.0       0.0      99.5       0.2
 7 C  s               0.0       0.0       0.0       0.0       0.2      99.3

                      6         7         8         9        10        11   
                  -9.86725  -0.74024  -0.68292  -0.64356  -0.60602  -0.56245
                   2.00000   2.00000   2.00000   2.00000   2.00000   2.00000
                  --------  --------  --------  --------  --------  --------
 0 C  s               0.0       3.2      11.7      14.5       1.1      10.7
 0 C  pz              0.0       0.1       0.1       0.0       0.0       0.1
 0 C  px              0.0       0.2       0.1       0.0       0.0       0.6
 0 C  py              0.0       0.9       1.3       0.1       0.0       2.1
 1 C  s               0.0       9.8      15.1       2.8       0.1       3.0
 1 C  pz              0.0       0.5       0.0       1.3       0.2       0.4
 1 C  px              0.0       1.3       0.1       1.6       0.3       2.6
 1 C  py              0.0       0.1       0.6       3.7       0.1       2.1
 1 C  dx2y2           0.0       0.0       0.0       0.1       0.0       0.1
 2 C  s               0.0      19.3       1.9       5.2       0.8       5.1
 2 C  pz              0.0       0.7       0.0       2.1       0.2       2.5
 2 C  px              0.0       0.1       5.8       0.2       0.0       0.2
 2 C  py              0.1       0.0       0.3       5.9       0.4       3.8
 2 C  dxz             0.0       0.0       0.1       0.0       0.0       0.0
 2 C  dx2y2           0.0       0.0       0.0       0.1       0.0       0.2
 3 H  s               0.0       3.7       0.4       0.9       0.7       1.0
 4 C  s              99.4       6.4       1.3      22.5       0.0      13.8
 4 C  pz              0.0       0.4       0.0       0.0       0.0       0.7
 4 C  px              0.0       0.0       0.3       0.0       0.1       0.1
 4 C  py              0.0       1.9       0.2       0.2       0.1       3.0
 5 C  s               0.0      17.1       9.5       0.8       0.0       2.0
 5 C  pz              0.0       0.6       0.0       0.2       2.4       0.2
 5 C  px              0.0       0.3       3.8       1.1       2.0       3.8
 5 C  py              0.0       0.1       0.1       1.6      10.2       0.5
 5 C  dxy             0.0       0.0       0.0       0.0       0.3       0.0
 6 C  s               0.0       5.6       9.0       4.1      17.9       4.3
 6 C  pz              0.0       0.3       0.3       0.1       0.2       0.2
 6 C  px              0.0       0.3       0.0       0.0       0.1       0.6
 6 C  py              0.0       1.4       0.8       0.0       0.5       0.6
 7 C  s               0.3       5.7       9.5       0.4      25.2       0.3
 7 C  px              0.0       1.2       0.3       0.0       0.1       0.4
 7 C  py              0.0       0.7       0.8       0.3       0.5       0.1
 8 H  s               0.0       0.6       2.3       3.2       0.2       3.6
 9 H  s               0.0       0.7       2.1       3.5       0.2       3.3
10 H  s               0.0       0.5       2.3       3.4       0.4       4.3
11 H  s               0.0       1.8       2.8       0.6       0.0       1.1
12 H  s               0.0       1.7       3.3       0.4       0.0       0.6
13 H  s               0.1       1.2       0.2       5.0       0.0       4.6
14 H  s               0.1       1.2       0.1       5.2       0.0       5.6
15 H  s               0.1       1.1       0.4       5.3       0.0       4.7
16 H  s               0.0       3.3       1.5       0.5       0.0       1.0
17 H  s               0.0       1.0       1.8       0.8       4.6       1.6
18 H  s               0.0       1.0       1.5       1.0       5.7       1.3
19 H  s               0.0       0.9       2.0       1.0       4.2       1.8
20 H  s               0.0       0.9       2.1       0.2       6.6       0.2
21 H  s               0.0       1.0       1.7       0.0       7.6       0.1
22 H  s               0.0       1.1       1.9       0.0       6.4       0.4

                     12        13        14        15        16        17   
                  -0.52583  -0.48167  -0.41443  -0.41120  -0.38351  -0.37542
                   2.00000   2.00000   2.00000   2.00000   2.00000   2.00000
                  --------  --------  --------  --------  --------  --------
 0 C  s               5.0       0.2       0.0       0.0       0.3       0.0
 0 C  pz              0.1       1.0       4.8       0.1       0.0      14.7
 0 C  px              0.0       0.0       0.1       6.7       6.5       5.1
 0 C  py              6.1       0.8       0.1       2.6       5.2       0.5
 0 C  dx2y2           0.1       0.0       0.0       0.0       0.1       0.0
 1 C  s              11.5       0.9       0.1       0.4       0.6       0.0
 1 C  pz              0.1       5.4      10.9       0.0       1.8       6.2
 1 C  px              1.4       0.3       0.9      12.3       0.1       6.5
 1 C  py              5.5       0.9       0.1       0.2       5.2       0.1
 2 C  s               1.9       6.3       0.0       0.3       1.2       0.5
 2 C  pz              0.2       8.1       3.9       3.2       0.8       0.5
 2 C  px              7.4       0.7       7.4       2.6       0.1       0.5
 2 C  py              1.5       1.8       0.5       0.0      12.4       0.5
 2 C  dxz             0.2       0.0       0.0       0.0       0.0       0.0
 2 C  dyz             0.0       0.1       0.0       0.0       0.0       0.0
 3 H  s               1.0       9.6       1.7       0.1       1.4       0.2
 4 C  s               0.0       2.0       0.1       0.0       0.2       0.0
 4 C  pz              0.0       0.1       3.5       2.0      13.8       1.3
 4 C  px              0.6       0.0       7.6       0.8       2.3       1.6
 4 C  py              0.5       6.3       0.0       0.4       5.1       2.2
 4 C  dx2y2           0.0       0.1       0.0       0.0       0.2       0.0
 5 C  s               5.1       6.2       0.3       1.9       0.0       0.3
 5 C  pz              0.0       8.7       6.1       6.9       0.3       0.1
 5 C  px              4.1       0.0       2.8       4.8       1.4       1.8
 5 C  py              0.2       0.7       4.3       0.2       4.4       0.3
 5 C  dx2y2           0.0       0.0       0.0       0.0       0.0       0.1
 6 C  s               4.5       0.3       0.2       0.3       0.1       0.1
 6 C  pz              0.5       3.9       7.0       0.3       0.0       0.4
 6 C  px              1.9       0.1       0.1       0.3       9.1       5.6
 6 C  py              1.8       0.5       0.2      13.2       0.2       2.1
 7 C  s               2.3       2.3       0.0       0.3       0.1       0.0
 7 C  pz              0.0       0.5       4.2       7.6       0.3       0.8
 7 C  px              2.4       3.7       1.4       0.8       3.4       5.9
 7 C  py              0.4       2.6       5.7       5.0       1.1       7.5
 7 C  dxy             0.1       0.1       0.0       0.2       0.0       0.0
 8 H  s               2.8       0.9       1.5       0.0       1.6       4.7
 9 H  s               3.5       0.0       0.4       3.5       0.0       6.3
10 H  s               1.9       0.0       0.3       1.2       3.0       0.1
11 H  s               5.2       3.2       4.3       0.0       0.3       2.8
12 H  s               7.1       0.3       1.5       4.4       0.2       3.9
13 H  s               0.2       3.0       0.8       1.0       0.3       1.8
14 H  s               0.0       0.7       0.4       0.9       7.7       0.1
15 H  s               0.2       1.0       4.5       0.0       1.2       0.6
16 H  s               2.0       8.7       2.5       1.7       0.2       0.2
17 H  s               2.1       1.6       2.7       0.3       0.5       0.1
18 H  s               1.2       0.5       0.4       5.0       1.1       3.6
19 H  s               2.9       0.0       0.4       1.3       3.3       1.0
20 H  s               1.6       1.1       3.3       1.3       0.3       2.6
21 H  s               0.9       1.0       0.8       4.8       0.0       5.7
22 H  s               1.3       3.2       1.5       0.4       1.8       0.4

                     18        19        20        21        22        23   
                  -0.36550  -0.35057  -0.34080  -0.32924  -0.31865  -0.30949
                   2.00000   2.00000   2.00000   2.00000   2.00000   2.00000
                  --------  --------  --------  --------  --------  --------
 0 C  pz             12.4       2.6       0.0       0.0       5.3       3.5
 0 C  px              9.2       1.5       1.7       4.5       0.9      14.7
 0 C  py              0.6       2.2       0.7       4.4       9.3       0.0
 0 C  dxz             0.1       0.0       0.0       0.1       0.2       0.1
 0 C  dyz             0.0       0.0       0.0       0.0       0.1       0.2
 0 C  dxy             0.0       0.0       0.0       0.1       0.0       0.2
 1 C  s               0.2       0.3       0.0       0.0       0.1       0.0
 1 C  pz              3.2       0.0       0.1       0.3       0.5       0.8
 1 C  px              3.6       0.0       0.0       0.1       0.0       5.5
 1 C  py              1.7       4.2       1.6       2.6       8.0       0.0
 1 C  dxz             0.0       0.0       0.0       0.0       0.1       0.0
 1 C  dyz             0.0       0.0       0.0       0.0       0.1       0.1
 1 C  dxy             0.0       0.0       0.0       0.1       0.0       0.1
 2 C  s               0.3       0.1       0.2       0.7       0.1       0.2
 2 C  pz              6.2       0.2       0.2       0.1       0.0       6.8
 2 C  px              1.3       0.1       0.0       0.4       0.6       0.0
 2 C  py              0.4       0.1       0.8       1.5       3.5       0.2
 2 C  dyz             0.0       0.0       0.0       0.1       0.0       0.1
 2 C  dxy             0.0       0.3       0.0       0.0       0.0       0.0
 3 H  s               1.8       0.0       0.3       0.8       1.0       1.4
 4 C  s               0.0       0.0       0.0       0.1       0.0       0.0
 4 C  pz              4.0       2.9       2.9       8.7       0.8       8.0
 4 C  px              0.0      18.4       2.5       4.7       6.1       1.7
 4 C  py              6.6       2.5       0.5       2.9       3.7       0.0
 4 C  dxz             0.0       0.3       0.0       0.0       0.2       0.0
 4 C  dyz             0.0       0.0       0.0       0.2       0.1       0.2
 4 C  dx2y2           0.0       0.0       0.0       0.1       0.0       0.1
 5 C  s               0.0       0.3       0.0       0.2       0.0       0.0
 5 C  pz              1.5       2.3       0.5       0.4       0.1       1.6
 5 C  px              0.7       0.2       0.2       0.5       0.1       6.4
 5 C  py              0.0       2.2       3.9       1.1       0.1       0.4
 5 C  dxz             0.1       0.0       0.0       0.1       0.0       0.0
 5 C  dx2y2           0.1       0.0       0.0       0.1       0.0       0.1
 6 C  pz              0.4       3.3      22.3       0.1       4.2       2.3
 6 C  px              2.1      16.1       2.7       0.2       4.8       1.7
 6 C  py              4.3       3.1       2.7       1.1       0.0       1.0
 6 C  dz2             0.0       0.0       0.3       0.0       0.0       0.0
 6 C  dxz             0.0       0.1       0.1       0.0       0.0       0.0
 6 C  dxy             0.0       0.1       0.0       0.0       0.2       0.0
 7 C  s               0.0       0.1       0.0       0.1       0.0       0.0
 7 C  pz              8.0       0.1      12.4      10.1       2.6       2.0
 7 C  px              0.2       2.4       7.1       9.3       2.1       3.6
 7 C  py              1.1       0.0       0.0       3.6       6.2       0.1
 7 C  dz2             0.0       0.0       0.1       0.0       0.0       0.0
 7 C  dxz             0.0       0.0       0.0       0.3       0.1       0.0
 7 C  dyz             0.0       0.0       0.1       0.0       0.0       0.1
 7 C  dxy             0.0       0.0       0.0       0.2       0.0       0.0
 8 H  s               3.8       0.1       0.2       0.2       6.5       3.2
 9 H  s               0.3       0.3       0.1       4.2       0.8       9.6
10 H  s               9.4       2.0       0.7       2.0       2.9       3.1
11 H  s               1.1       0.1       0.0       0.0       2.9       0.6
12 H  s               0.4       0.4       0.2       1.6       0.9       3.3
13 H  s               4.5       2.0       0.3       8.2       1.9       3.6
14 H  s               0.3       9.1       0.1       0.0       3.6       0.4
15 H  s               0.0       4.6       3.1       5.1       2.4       4.1
16 H  s               0.7       0.1       0.0       0.4       0.0       1.7
17 H  s               1.0       0.3      15.1       0.2       0.7       1.6
18 H  s               2.5       1.4       2.0       1.0       2.4       0.1
19 H  s               0.0      11.7       1.5       0.0       4.6       0.2
20 H  s               0.4       0.4       0.0      12.9       5.4       0.2
21 H  s               2.5       0.0       3.1       0.5       2.2       1.3
22 H  s               2.3       0.5       8.9       3.4       1.2       3.2

                     24        25        26        27        28        29   
                  -0.29580  -0.29148  -0.26828  -0.26377  -0.25879   0.03358
                   2.00000   2.00000   2.00000   2.00000   2.00000   0.00000
                  --------  --------  --------  --------  --------  --------
 0 C  s               0.3       0.1       0.4       0.0       0.0       2.9
 0 C  pz              0.1       8.6       0.4       1.7       0.7       0.0
 0 C  px              0.7       0.0       1.1       0.1       2.3       0.0
 0 C  py             11.8       0.3       3.3       1.8       0.0       1.6
 0 C  dxz             0.0       0.0       0.0       0.0       0.2       0.0
 0 C  dyz             0.1       0.3       0.0       0.1       0.0       0.0
 0 C  dx2y2           0.0       0.1       0.0       0.0       0.1       0.1
 0 C  dxy             0.0       0.1       0.0       0.0       0.1       0.0
 1 C  s               0.0       0.0       0.0       0.1       0.8       2.5
 1 C  pz              0.3      15.5       0.3       4.3       2.4       0.6
 1 C  px              0.3       0.5       1.0       0.1      14.8       1.0
 1 C  py             11.7       0.4       3.3       1.2       0.1       0.9
 1 C  dz2             0.1       0.1       0.2       0.1       0.0       0.0
 1 C  dxz             0.0       0.0       0.0       0.0       0.3       0.1
 1 C  dyz             0.2       0.3       0.2       0.0       0.0       0.0
 1 C  dx2y2           0.0       0.2       0.0       0.2       0.0       0.0
 1 C  dxy             0.1       0.1       0.1       0.2       0.1       0.0
 2 C  s               0.0       0.0       0.0       0.4       0.0       1.7
 2 C  pz              0.2       1.0       2.2      11.2       2.7       1.1
 2 C  px              0.1       2.6       2.7       2.8      16.0       0.1
 2 C  py              3.4       0.0      11.6       3.5       0.6       0.6
 2 C  dz2             0.0       0.0       0.2       0.1       0.0       0.0
 2 C  dxz             0.0       0.0       0.0       0.0       0.5       0.0
 2 C  dyz             0.1       0.0       0.8       0.0       0.0       0.0
 2 C  dx2y2           0.0       0.0       0.0       0.6       0.1       0.0
 3 H  s               1.5       0.4      12.0       3.0       1.5       4.3
 4 C  s               0.2       0.0       0.6       0.2       0.0       5.3
 4 C  pz              0.6       0.0       0.0       4.6       1.2       0.2
 4 C  px              1.2       4.7       0.6       0.0       2.2       0.0
 4 C  py              1.7       0.1      11.7       4.2       0.1       1.1
 4 C  dxz             0.0       0.2       0.0       0.0       0.2       0.0
 4 C  dyz             0.0       0.0       0.2       0.1       0.1       0.0
 4 C  dx2y2           0.0       0.0       0.0       0.2       0.1       0.1
 4 C  dxy             0.0       0.1       0.0       0.1       0.2       0.0
 5 C  s               0.0       0.0       0.1       0.3       0.0       2.4
 5 C  pz              0.5       6.7       2.3      11.4       0.7       1.7
 5 C  px              0.7       1.9       2.7       2.1      10.8       0.1
 5 C  py              8.0       0.4       7.0       5.3       1.5       0.4
 5 C  dz2             0.0       0.2       0.0       0.4       0.2       0.0
 5 C  dxz             0.0       0.1       0.0       0.3       0.0       0.1
 5 C  dyz             0.0       0.1       0.0       0.0       0.3       0.0
 5 C  dx2y2           0.0       0.0       0.1       0.1       0.1       0.0
 5 C  dxy             0.2       0.0       0.5       0.0       0.0       0.1
 6 C  s               0.1       0.1       0.5       0.0       0.7       3.3
 6 C  pz              1.7       5.9       0.6       1.3       0.6       0.5
 6 C  px              3.9       0.5       0.1       0.4       4.9       0.3
 6 C  py              9.7       0.0       6.5       1.3       3.0       1.5
 6 C  dz2             0.0       0.2       0.0       0.2       0.0       0.0
 6 C  dxz             0.0       0.1       0.1       0.1       0.0       0.1
 6 C  dyz             0.0       0.0       0.0       0.0       0.1       0.1
 6 C  dxy             0.4       0.0       0.1       0.1       0.1       0.1
 7 C  s               0.3       0.1       0.4       0.1       0.1       6.5
 7 C  pz              1.3       1.1       1.9       2.3       0.3       0.1
 7 C  px              0.2       1.7       4.2       0.0       4.0       0.6
 7 C  py             11.0       0.1       6.6       1.2       0.0       0.6
 7 C  dxz             0.0       0.1       0.0       0.3       0.0       0.0
 7 C  dyz             0.1       0.1       0.0       0.0       0.1       0.0
 7 C  dx2y2           0.1       0.0       0.0       0.1       0.2       0.0
 7 C  dxy             0.1       0.0       0.1       0.0       0.0       0.1
 8 H  s               2.3       5.3       0.2       0.7       0.3       3.0
 9 H  s               0.3       2.6       0.0       1.3       1.0       2.9
10 H  s               0.1       2.0       0.9       0.2       3.2       1.8
11 H  s               3.8       8.5       2.8       2.0       0.3       4.4
12 H  s               0.7       5.3       0.1       3.7       4.5       3.6
13 H  s               0.3       0.0       3.4       0.8       0.9       3.3
14 H  s               1.2       2.9       0.3       0.9       3.4       3.8
15 H  s               0.2       2.2       0.2       2.4       0.8       4.3
16 H  s               0.1       6.8       0.0       9.7       3.1       6.1
17 H  s               0.1       5.2       0.1       2.2       0.4       3.2
18 H  s               9.2       0.3       2.1       0.1       0.6       3.1
19 H  s               1.2       0.7       0.1       2.4       2.8       3.5
20 H  s               0.4       0.0       0.6       2.4       1.0       5.0
21 H  s               6.5       0.8       2.2       0.1       1.2       5.4
22 H  s               0.1       2.3       0.1       2.8       1.0       3.5

                     30        31        32        33        34        35   
                   0.05485   0.06185   0.06366   0.09009   0.09614   0.10269
                   0.00000   0.00000   0.00000   0.00000   0.00000   0.00000
                  --------  --------  --------  --------  --------  --------
 0 C  s              13.1       0.3       0.1       1.9       0.2       0.3
 0 C  pz              0.0       1.9       0.8       0.7       3.9       0.3
 0 C  px              0.1       0.3       2.1       0.2       3.1       4.6
 0 C  py              0.9       0.4       0.1       0.3       0.5       1.7
 0 C  dxz             0.0       0.0       0.0       0.0       0.2       0.5
 0 C  dyz             0.0       0.2       0.1       0.0       0.0       0.0
 0 C  dx2y2           0.1       0.0       0.1       0.0       0.2       0.0
 1 C  s               1.4       1.1       4.1       0.0       2.3       0.1
 1 C  pz              0.0       4.2       0.6       0.2       0.0       0.5
 1 C  px              0.3       0.1       1.4       1.8       0.9       0.2
 1 C  py              0.9       0.8       0.9       0.1       0.8       0.0
 1 C  dz2             0.1       0.1       0.0       0.0       0.0       0.0
 1 C  dxz             0.0       0.0       0.1       0.1       0.0       0.0
 1 C  dyz             0.0       0.2       0.1       0.1       0.1       0.0
 1 C  dx2y2           0.3       0.0       0.0       0.0       0.1       0.0
 1 C  dxy             0.1       0.0       0.0       0.0       0.3       0.5
 2 C  s               0.0       0.6       0.6       1.5       0.1       0.2
 2 C  pz              0.1       3.4       1.0       0.1       0.9       0.1
 2 C  px              0.1       0.1       0.1       0.1       0.2       0.1
 2 C  py              0.0       0.7       0.3       0.4       2.2       1.4
 2 C  dz2             0.0       0.0       0.2       0.0       0.3       0.0
 2 C  dxz             0.0       0.0       0.1       0.0       0.0       0.0
 2 C  dyz             0.1       0.1       0.0       0.2       0.1       0.6
 2 C  dx2y2           0.1       0.3       0.1       0.1       0.3       0.3
 2 C  dxy             0.2       0.0       0.1       0.1       0.0       0.0
 3 H  s               0.1      11.1       3.7       2.2       5.8       0.5
 4 C  s               5.2       0.3       3.5       0.0       0.7       1.7
 4 C  pz              0.0       3.0       0.4       1.4       3.5       2.4
 4 C  px              1.7       0.1       1.6       3.8       0.8       0.8
 4 C  py              0.1       0.5       1.5       0.4       0.1       2.6
 4 C  dxz             0.1       0.0       0.0       0.1       0.1       0.1
 4 C  dyz             0.0       0.1       0.0       0.0       0.0       0.2
 4 C  dx2y2           0.0       0.1       0.0       0.1       0.2       0.0
 5 C  s               0.3       0.2       0.8       0.9       0.4       0.9
 5 C  pz              0.6       2.0       2.6       0.5       0.0       1.9
 5 C  px              0.1       0.0       0.0       0.0       0.1       0.4
 5 C  py              0.0       0.3       0.2       0.3       0.6       1.7
 5 C  dz2             0.1       0.2       0.2       0.1       0.0       0.1
 5 C  dxz             0.1       0.1       0.0       0.1       0.4       0.0
 5 C  dx2y2           0.1       0.0       0.0       0.5       0.1       0.1
 5 C  dxy             0.1       0.0       0.2       0.0       0.4       0.2
 6 C  s               0.0       3.9       5.8       1.2       0.0       4.6
 6 C  pz              0.5       1.9       0.3       2.2       0.2       1.0
 6 C  px              1.6       0.2       0.7       3.7       2.0       0.8
 6 C  py              0.8       0.8       0.6       0.1       1.0       0.4
 6 C  dxz             0.0       0.0       0.0       0.3       0.0       0.0
 6 C  dyz             0.0       0.0       0.1       0.1       0.0       0.2
 6 C  dxy             0.0       0.0       0.0       0.1       0.2       0.0
 7 C  s               4.6       0.5       0.7       0.0       0.5       0.4
 7 C  pz              1.0       1.7       0.3       2.4       3.3       4.0
 7 C  px              0.4       0.5       1.6       1.9       3.9       0.3
 7 C  py              0.4       0.9       0.4       4.2       0.3       0.5
 7 C  dz2             0.0       0.0       0.0       0.0       0.3       0.1
 7 C  dxz             0.0       0.0       0.0       0.3       0.0       0.0
 7 C  dyz             0.1       0.1       0.0       0.2       0.2       0.0
 7 C  dxy             0.0       0.0       0.0       0.1       0.0       0.1
 8 H  s               9.1       6.1       0.8       0.3       4.2       0.6
 9 H  s               7.3       0.2       5.2       2.0       0.4       9.9
10 H  s              10.1       0.0       0.3       4.4      14.2       4.6
11 H  s               0.9      14.6       0.8       0.7       2.8       0.1
12 H  s               2.3       0.0      14.1       1.9       5.4       1.6
13 H  s               3.7       7.5       2.1       3.5       4.8       2.9
14 H  s               9.9       1.4       0.4       1.6       3.0       8.0
15 H  s               0.2       0.1      11.1       8.0       0.1       0.5
16 H  s               1.8       5.8       6.8       4.1       0.4       9.8
17 H  s               3.0       8.0       1.4       4.4       2.3       0.3
18 H  s               3.0       4.4       1.9       6.5       5.2       1.9
19 H  s               0.3       1.1      10.7       5.5       0.6      10.6
20 H  s               1.2       0.0       5.6      13.1       0.1       4.3
21 H  s               1.7       6.7       0.2       4.3       9.3       4.9
22 H  s               9.4       0.9       0.1       4.1       5.3       1.8

                     36        37        38        39        40        41   
                   0.10808   0.11826   0.13258   0.13429   0.13981   0.14609
                   0.00000   0.00000   0.00000   0.00000   0.00000   0.00000
                  --------  --------  --------  --------  --------  --------
 0 C  s               1.0       1.7       1.2       2.4       2.1       0.4
 0 C  pz              2.6       0.0       4.9       0.6       6.1       1.7
 0 C  px              2.6       0.2       1.2       1.4       1.1       2.0
 0 C  py              0.1       1.0       1.0       0.7       0.0       0.5
 0 C  dz2             0.2       0.3       0.1       0.0       0.1       0.0
 0 C  dxz             0.0       0.0       0.2       0.0       0.3       0.1
 0 C  dyz             0.1       0.2       0.3       0.0       0.0       0.0
 0 C  dx2y2           0.1       0.1       0.0       0.0       0.2       0.4
 0 C  dxy             0.0       0.2       0.0       0.0       0.4       0.0
 1 C  s               0.3       3.4       3.6       2.4       0.6       0.7
 1 C  pz              0.1       6.7       0.6       0.0       0.1       1.6
 1 C  px              1.7       1.3       0.7       0.4       1.2       3.9
 1 C  py              0.0       0.3       0.1       0.8       0.8       1.7
 1 C  dz2             0.1       0.0       0.0       0.0       0.2       1.0
 1 C  dxz             0.1       0.0       0.0       0.0       0.1       0.5
 1 C  dyz             0.0       0.1       0.5       0.0       0.2       0.1
 1 C  dx2y2           0.0       0.2       0.0       0.1       0.1       0.2
 1 C  dxy             0.0       0.3       0.0       0.0       0.1       0.1
 2 C  s               0.1       4.6       0.4       0.1       0.1       2.0
 2 C  pz              0.1       2.6       0.4       0.8       1.3       0.8
 2 C  px              1.6       0.3       0.8       0.1       0.1       3.6
 2 C  py              0.2       1.0       1.1       0.9       0.6       0.3
 2 C  dz2             0.0       0.0       0.1       0.0       0.0       0.2
 2 C  dxz             0.7       0.4       0.0       0.0       0.1       1.0
 2 C  dyz             0.0       0.0       0.2       0.0       0.3       0.1
 2 C  dx2y2           0.0       0.0       0.2       0.3       0.3       0.1
 2 C  dxy             0.0       0.1       0.5       0.3       0.0       0.1
 3 H  s               0.7      14.5       4.4       0.3       0.7       6.0
 4 C  s               1.4       0.7       0.0       8.2       0.2       0.7
 4 C  pz              0.1       0.6       0.3       0.5       2.9       0.4
 4 C  px              2.8       1.0       2.8       1.5       0.1       2.6
 4 C  py              0.6       0.5       0.3       2.1       0.1       0.3
 4 C  dz2             0.0       0.4       0.0       0.0       0.0       0.1
 4 C  dxz             0.1       0.2       0.6       0.2       0.0       0.2
 4 C  dyz             0.0       0.0       0.0       0.1       0.2       0.0
 4 C  dx2y2           0.0       0.1       0.0       0.1       0.1       0.0
 4 C  dxy             0.1       0.0       0.1       0.0       0.0       0.1
 5 C  s               1.0       0.1       0.0       1.5       0.1       4.1
 5 C  pz              0.3       0.1       1.1       0.2       0.8       0.9
 5 C  px              0.4       1.7       0.1       0.3       0.1       0.8
 5 C  py              1.6       0.5       0.7       0.1       0.2       0.6
 5 C  dz2             0.0       0.2       0.1       0.1       0.0       0.2
 5 C  dxz             0.1       0.1       0.0       0.0       0.0       0.0
 5 C  dyz             0.5       0.2       0.1       0.0       0.1       0.0
 5 C  dx2y2           0.1       0.2       0.4       0.1       0.1       0.2
 5 C  dxy             0.2       0.0       0.6       0.3       0.2       0.0
 6 C  s               5.6       0.1       1.7       0.0       0.1       0.6
 6 C  pz              1.6       0.6       5.2       3.8       2.5       0.6
 6 C  px              0.1       1.9       0.3       0.8       5.1       0.5
 6 C  py              0.8       0.2       1.1       0.3       7.5       0.7
 6 C  dz2             0.1       0.0       0.4       0.0       0.3       0.0
 6 C  dxz             0.2       0.0       0.0       0.0       0.1       0.5
 6 C  dyz             0.0       0.1       0.1       0.0       0.0       0.1
 6 C  dx2y2           0.0       0.1       0.0       0.0       0.1       0.0
 6 C  dxy             0.0       0.1       0.2       0.5       0.3       0.0
 7 C  s               6.7       3.3       1.5       2.8       0.2       0.0
 7 C  pz              0.4       0.1       0.9       0.3       0.2       0.3
 7 C  px              1.4       0.6       0.2       0.1       0.1       1.6
 7 C  py              0.2       0.3       0.9       1.2       0.4       2.0
 7 C  dxz             0.0       0.0       0.1       0.2       0.0       0.1
 7 C  dyz             0.0       0.0       0.0       0.1       0.0       0.2
 7 C  dx2y2           0.1       0.1       0.1       0.0       0.0       0.1
 7 C  dxy             0.1       0.0       0.0       0.0       0.0       0.0
 8 H  s               9.7       1.2       4.8       1.0      15.5       2.4
 9 H  s               2.5       0.7       0.8       0.9       0.1       1.2
10 H  s               1.7       0.7      13.2       8.6       1.1       5.3
11 H  s               1.2      20.1       0.6       2.4       0.6      11.2
12 H  s               1.3       3.1       8.2       5.2       1.0       2.4
13 H  s               1.8       0.0       0.0      12.2       2.4       0.0
14 H  s               0.8       0.4       4.7      10.3       2.0       0.3
15 H  s               8.7       5.6       2.6       1.4       3.7       7.9
16 H  s               1.4       0.5       0.5       1.2       0.6       8.9
17 H  s              12.6       2.4       4.2       3.8      13.7       2.1
18 H  s               1.0       1.0       2.0       1.6      19.3       1.1
19 H  s               0.8       2.2       9.3       5.3       0.1       0.5
20 H  s               8.7       2.2       6.0       0.6       0.1       4.6
21 H  s               1.2       1.5       0.4       4.0       0.3       4.2
22 H  s               7.1       4.2       0.1       4.6       0.1       0.2

                     42        43        44        45        46        47   
                   0.15532   0.16338   0.17490   0.18101   0.18973   0.21338
                   0.00000   0.00000   0.00000   0.00000   0.00000   0.00000
                  --------  --------  --------  --------  --------  --------
 0 C  s               0.2       1.3       0.1       0.2       0.5       0.9
 0 C  pz              2.2       0.1       0.4       1.8       0.4       0.9
 0 C  px              5.9       0.7       1.2       1.6       2.3       1.3
 0 C  py              0.6       0.7       0.3       0.1       2.7      23.1
 0 C  dz2             0.2       0.0       0.1       0.0       0.2       1.2
[...]
 6 C  py              0.0       0.0       0.3       0.3       0.4       0.1
 6 C  dz2             7.4       2.5       0.9       0.1       5.1       0.2
 6 C  dxz             2.3       3.7       2.5       0.8       0.9       0.3
 6 C  dyz             1.3       0.8       6.5       0.4       1.1       2.5
 6 C  dx2y2           2.8       0.4       1.1       0.8       2.2       1.1
 6 C  dxy             2.0       3.5       0.0      15.8       0.8       0.0
 7 C  s               0.1       0.0       0.1       0.0       0.2       0.8
 7 C  pz              0.0       0.1       0.1       0.0       0.0       0.0
 7 C  px              0.2       0.0       0.1       0.1       0.1       1.0
 7 C  py              0.0       0.0       0.2       0.1       0.1       0.5
 7 C  dz2             0.1       1.0       2.7       0.1       0.4       4.1
 7 C  dxz             1.1       6.8       1.8       1.0       3.4       0.2
 7 C  dyz             6.8       0.7       0.0       4.7       0.0       1.7
 7 C  dx2y2           7.4       0.3       0.0       3.8       6.0       0.0
 7 C  dxy             1.4       2.2       0.6       2.5       0.2       7.4
 8 H  s               0.0       0.4       0.1       0.3       0.0       0.0
 9 H  s               0.1       1.0       0.5       0.0       0.0       0.0
10 H  s               0.1       1.2       0.1       0.0       0.0       0.0
11 H  s               1.4       0.0       0.4       0.3       0.7       0.0
12 H  s               2.0       0.0       0.4       0.0       0.1       0.1
13 H  s               1.5       0.5       0.0       0.2       0.1       0.3
14 H  s               0.1       0.3       0.2       0.1       0.0       0.1
15 H  s               0.7       0.4       0.0       0.0       0.5       0.0
16 H  s               0.1       0.0       1.7       0.9       0.1       1.3
17 H  s               1.1       0.5       0.0       0.0       0.6       0.1
18 H  s               0.8       0.1       0.0       0.9       0.0       0.1
19 H  s               0.0       0.9       0.5       0.2       0.0       0.2
20 H  s               1.2       0.6       0.1       0.0       0.3       0.2
21 H  s               0.9       0.0       0.0       0.6       0.2       0.0
22 H  s               0.0       0.8       0.5       0.1       0.1       0.2

                    126       127       128       129   
                   2.56952   2.61062   2.66368   2.69137
                   0.00000   0.00000   0.00000   0.00000
                  --------  --------  --------  --------
 0 C  s               0.9       0.6       0.0       0.4
 0 C  px              0.1       0.2       0.0       0.2
 0 C  py              1.9       0.6       0.1       0.5
 0 C  dz2             3.5       0.8       0.2       0.4
 0 C  dxz             0.0       0.1       0.4       0.0
 0 C  dyz             0.2       1.1       0.1       0.6
 0 C  dx2y2          11.7       0.9       1.4       0.7
 0 C  dxy             1.0       1.9       0.0       1.6
 1 C  s               2.0       0.0       0.0       0.2
 1 C  pz              0.0       0.5       0.0       0.5
 1 C  px              0.0       0.7       0.4       1.5
 1 C  py              1.0       0.7       0.1       0.7
 1 C  dz2             2.3       0.6       0.4       1.2
 1 C  dxz             4.5       3.7       0.3       5.8
 1 C  dyz             5.5       0.1       1.4       0.1
 1 C  dx2y2           4.9       8.4       1.3       9.2
 1 C  dxy            14.5       0.3       1.6       0.0
 2 C  s               0.0       0.2       0.0       0.0
 2 C  pz              0.0       0.4       0.5       0.7
 2 C  px              0.9       0.6       1.6       1.1
 2 C  py              0.3       0.5       1.2       0.7
 2 C  dz2             1.7       0.0       0.0       1.5
 2 C  dxz             8.8       5.1      11.4       6.8
 2 C  dyz             5.0       1.2       0.5       4.5
 2 C  dx2y2           0.1       4.4      12.3      17.5
 2 C  dxy             2.6       0.5      12.5       2.9
 3 H  s               0.0       0.2       0.0       0.1
 4 C  s               0.0       0.3       0.7       0.8
 4 C  pz              0.0       0.1       0.3       0.2
 4 C  px              0.1       0.0       0.1       0.2
 4 C  py              0.0       0.2       1.0       1.3
 4 C  dz2             0.6       0.0       0.4       0.9
 4 C  dxz             1.6       0.1       0.1       0.2
 4 C  dyz             0.5       0.9       1.3       2.0
 4 C  dx2y2           1.2       0.5       5.1       4.1
 4 C  dxy             0.5       0.0       0.6       2.1
 5 C  s               0.1       0.0       0.1       0.0
 5 C  pz              0.1       0.3       0.3       0.1
 5 C  px              0.3       0.1       3.1       0.0
 5 C  py              0.0       2.5       0.2       0.6
 5 C  dz2             4.6       0.1       0.3       1.5
 5 C  dxz             0.0       2.7       8.3       3.1
 5 C  dyz             0.2       4.3       5.2       0.0
 5 C  dx2y2           3.5       5.0       6.8       6.0
 5 C  dxy             4.3      19.5       9.7       6.8
 6 C  s               0.0       1.1       0.2       0.3
 6 C  pz              0.0       0.5       0.0       0.1
 6 C  px              0.0       0.2       0.2       0.0
 6 C  py              0.0       1.6       0.2       0.5
 6 C  dz2             0.1       0.2       0.4       0.0
 6 C  dxz             0.1       1.0       0.7       0.4
 6 C  dyz             1.1       6.4       0.4       1.0
 6 C  dx2y2           0.7       3.0       0.1       1.5
 6 C  dxy             1.7       2.6       0.9       0.7
 7 C  s               0.1       0.8       0.4       0.3
 7 C  pz              0.0       0.1       0.1       0.0
 7 C  px              0.1       0.6       0.6       0.2
 7 C  py              0.0       1.0       0.1       0.5
 7 C  dz2             0.0       1.3       0.4       1.1
 7 C  dxz             0.0       0.4       0.1       0.0
 7 C  dyz             0.4       0.1       0.3       0.0
 7 C  dx2y2           1.6       0.0       0.9       0.5
 7 C  dxy             0.5       7.5       2.2       3.2
10 H  s               0.3       0.0       0.1       0.0
11 H  s               0.4       0.0       0.0       0.0
12 H  s               0.7       0.0       0.0       0.0
14 H  s               0.3       0.0       0.1       0.1
16 H  s               0.3       0.0       0.0       0.1
18 H  s               0.1       0.1       0.0       0.1
21 H  s               0.1       0.1       0.0       0.0


                      *****************************
                      * MAYER POPULATION ANALYSIS *
                      *****************************

  NA   - Mulliken gross atomic population
  ZA   - Total nuclear charge
  QA   - Mulliken gross atomic charge
  VA   - Mayer's total valence
  BVA  - Mayer's bonded valence
  FA   - Mayer's free valence

  ATOM       NA         ZA         QA         VA         BVA        FA
  0 C      6.2658     6.0000    -0.2658     4.0090     4.0090    -0.0000
  1 C      6.1843     6.0000    -0.1843     4.1229     4.1229     0.0000
  2 C      6.1404     6.0000    -0.1404     4.1705     4.1705    -0.0000
  3 H      0.9378     1.0000     0.0622     0.9586     0.9586     0.0000
  4 C      6.2129     6.0000    -0.2129     4.0341     4.0341     0.0000
  5 C      6.1637     6.0000    -0.1637     4.2152     4.2152    -0.0000
  6 C      6.2608     6.0000    -0.2608     3.9747     3.9747    -0.0000
  7 C      6.2240     6.0000    -0.2240     4.0370     4.0370    -0.0000
  8 H      0.9036     1.0000     0.0964     0.9586     0.9586     0.0000
  9 H      0.8934     1.0000     0.1066     0.9605     0.9605     0.0000
 10 H      0.8993     1.0000     0.1007     0.9497     0.9497    -0.0000
 11 H      0.9166     1.0000     0.0834     0.9503     0.9503     0.0000
 12 H      0.9232     1.0000     0.0768     0.9518     0.9518     0.0000
 13 H      0.9103     1.0000     0.0897     0.9632     0.9632    -0.0000
 14 H      0.9061     1.0000     0.0939     0.9558     0.9558    -0.0000
 15 H      0.9043     1.0000     0.0957     0.9564     0.9564     0.0000
 16 H      0.9263     1.0000     0.0737     0.9508     0.9508    -0.0000
 17 H      0.9038     1.0000     0.0962     0.9588     0.9588    -0.0000
 18 H      0.8980     1.0000     0.1020     0.9592     0.9592    -0.0000
 19 H      0.9070     1.0000     0.0930     0.9575     0.9575    -0.0000
 20 H      0.9037     1.0000     0.0963     0.9553     0.9553    -0.0000
 21 H      0.9049     1.0000     0.0951     0.9562     0.9562    -0.0000
 22 H      0.9099     1.0000     0.0901     0.9642     0.9642    -0.0000

  Mayer bond orders larger than 0.100000
B(  0-C ,  1-C ) :   1.1594 B(  0-C ,  8-H ) :   0.9511 B(  0-C ,  9-H ) :   0.9441 
B(  0-C , 10-H ) :   0.9504 B(  1-C ,  2-C ) :   1.0833 B(  1-C , 11-H ) :   0.9209 
B(  1-C , 12-H ) :   0.9240 B(  2-C ,  3-H ) :   0.9024 B(  2-C ,  4-C ) :   1.1710 
B(  2-C ,  5-C ) :   0.9896 B(  4-C , 13-H ) :   0.9367 B(  4-C , 14-H ) :   0.9390 
B(  4-C , 15-H ) :   0.9426 B(  5-C ,  6-C ) :   1.1092 B(  5-C ,  7-C ) :   1.1698 
B(  5-C , 16-H ) :   0.8995 B(  6-C , 17-H ) :   0.9491 B(  6-C , 18-H ) :   0.9473 
B(  6-C , 19-H ) :   0.9497 B(  7-C , 20-H ) :   0.9457 B(  7-C , 21-H ) :   0.9393 
B(  7-C , 22-H ) :   0.9380 

-------
TIMINGS
-------

Total SCF time: 0 days 0 hours 0 min 6 sec 

Total time                  ....       6.649 sec
Sum of individual times     ....       6.249 sec  ( 94.0%)

SCF preparation             ....       0.162 sec  (  2.4%)
Fock matrix formation       ....       5.414 sec  ( 81.4%)
  Startup                   ....       0.049 sec  (  0.9% of F)
  Split-RI-J                ....       1.883 sec  ( 34.8% of F)
  XC integration            ....       3.089 sec  ( 57.1% of F)
    Basis function eval.    ....       1.098 sec  ( 35.5% of XC)
    Density eval.           ....       0.392 sec  ( 12.7% of XC)
    XC-Functional eval.     ....       0.258 sec  (  8.3% of XC)
    XC-Potential eval.      ....       0.673 sec  ( 21.8% of XC)
Diagonalization             ....       0.000 sec  (  0.0%)
Density matrix formation    ....       0.157 sec  (  2.4%)
Total Energy calculation    ....       0.026 sec  (  0.4%)
Population analysis         ....       0.066 sec  (  1.0%)
Orbital Transformation      ....       0.053 sec  (  0.8%)
Orbital Orthonormalization  ....       0.000 sec  (  0.0%)
DIIS solution               ....       0.308 sec  (  4.6%)
  MO trafo                  ....       0.000 sec  (  0.0 % of DIIS)
  Orb grad                  ....       0.000 sec  (  0.0 % of DIIS)
  Energy W gradient         ....       0.000 sec  (  0.0 % of DIIS)
  DIIS error                ....       0.002 sec  (  0.7 % of DIIS)
  DIIS work                 ....       0.269 sec  ( 87.3 % of DIIS)
  Form Q                    ....       0.000 sec  (  0.0 % of DIIS)
  Form QpQm                 ....       0.000 sec  (  0.0 % of DIIS)
  Exp/Cayley                ....       0.000 sec  (  0.0 % of DIIS)
  Orb update                ....       0.000 sec  (  0.0 % of DIIS)
  Wake-sleep                ....       0.013 sec  (  4.1 % of DIIS)
SOSCF solution              ....       0.063 sec  (  0.9%)
  MO trafo                  ....       0.035 sec  ( 55.3 % of SOSCF)
  Orb grad                  ....       0.001 sec  (  1.5 % of SOSCF)
  Rot update                ....       0.014 sec  ( 21.5 % of SOSCF)
  Step                      ....       0.014 sec  ( 21.6 % of SOSCF)
Finished LeanSCF after   6.7 sec

Maximum memory used throughout the entire LEANSCF-calculation: 13.2 MB


-------------------------------------------------------------------------------
                          DFT DISPERSION CORRECTION                            
                                                                               
                                DFTD4 V3.4.0                                   
-------------------------------------------------------------------------------
The PBE functional is recognized
Active option DFTDOPT                   ...         5   

-------------------------   ----------------
Dispersion correction           -0.019074809
-------------------------   ----------------

------------------   -----------------
gCP correction             0.096519236
------------------   -----------------

-------------------------   --------------------
FINAL SINGLE POINT ENERGY      -275.655436277258
-------------------------   --------------------


------------------------------------------------------------------------------
                              ORCA PROPERTY CALCULATIONS
------------------------------------------------------------------------------

GBWName                                 ... sp.gbw
Number of atoms                         ...     23
Number of basis functions               ...    130
Max core memory                         ...   1024 MB

Electric properties:
Dipole moment                           ... YES
Quadrupole moment                       ...  NO
Static polarizability (Dipole/Dipole)   ...  NO
Static polarizability (Dipole/Quad.)    ...  NO
Static polarizability (Quad./Quad.)     ...  NO
Static polarizability (Velocity)        ...  NO

Atomic electric properties:
Dipole moment                           ...  NO
Quadrupole moment                       ...  NO
Static polarizability                   ...  NO

Choice of electric origin               ... Center of mass
Position of electric origin             ...    -0.000001     0.000001    -0.000000

General magnetic properties:
Magnetizability                         ...  NO

EPR properties:
g-Tensor (aka g-matrix)                 ...  NO
Zero-Field splitting spin-orbit         ...  NO
Zero-field splitting spin-spin          ...  NO
Hyperfine couplings                     ...  NO (   0 nuclei)
Quadrupole couplings                    ...  NO (   0 nuclei)
Contact density                         ...  NO (   0 nuclei)

NMR properties:
Chemical shifts                         ...  NO (   0 nuclei)
Spin-rotation constants                 ...  NO (   0 nuclei)
Spin-spin couplings                     ...  NO (   0 nuclei,    0 pairs)

Choice of magnetic origin               ... GIAO
Position of magnetic origin             ...     0.000000     0.000000     0.000000

Properties with geometric perturbations:
SCF Hessian                             ...  NO
IR spectrum                             ...  NO
VCD spectrum                            ...  NO
X-ray spectroscopy properties:
SCF XES/XAS/RIXS spectra                ...  NO


-------------
DIPOLE MOMENT
-------------

Method             : SCF
Type of density    : Electron Density
Multiplicity       :   1
Irrep              :   0
Energy             :  -275.7328807046253019 Eh
Relativity type    : 
Basis              : AO
                                X                 Y                 Z
Electronic contribution:      0.437589541      -0.312446176       0.077085058
Nuclear contribution   :     -0.414856823       0.308165808      -0.060596234
                        -----------------------------------------
Total Dipole Moment    :      0.022732718      -0.004280368       0.016488824
                        -----------------------------------------
Magnitude (a.u.)       :      0.028407382
Magnitude (Debye)      :      0.072205826



--------------------
Rotational spectrum 
--------------------
 
Rotational constants in cm-1:             0.100243             0.064408             0.047477 
Rotational constants in MHz :          3005.205915          1930.889353          1423.316000 

Dipole components along the rotational axes: 
x,y,z [a.u.] :     0.023211    -0.005163     0.015543 
x,y,z [Debye]:     0.058996    -0.013125     0.039508 

 

Dipole moment calculation done in   0.0 sec 

Maximum memory used throughout the entire PROP-calculation: 8.2 MB

--------------------------------
SUGGESTED CITATIONS FOR THIS RUN
--------------------------------

Below you find a list of papers that are relevant to this ORCA run
We neither can nor want to force you to cite these papers, but we appreciate if you do
You receive ORCA, which is the product of decades of hard work by many enthusiastic individuals, for free
The only thing we kindly ask in return is that you cite our papers,
We deeply appreciate it, if you show your appreciation for ORCA by not just citing the generic ORCA reference.

Please note that relegating all ORCA citations to the supporting information does *not* help us.
SI sections are not indexed - citations you put there will not count into any citation statistics
But we need these citations in order to attract the funding resources that allow us to do what we are doing

Therefore, if you are a happy ORCA user, please consider citing a few of the papers listed below in the main body of your paper

In addition to the list printed below, the program has created the file sp.bibtex that contains the list in bibtex format
You can import this file easily into all common literature databanks and citation aid programs


List of essential papers. We consider these as the minimum necessary citations

  1. Neese,F.
     Software update: the ORCA program system, version 5.0
     WIRES Comput. Molec. Sci., 2022 12(1)e1606
     doi.org/10.1002/wcms.1606

List of papers to cite with high priority. The work reported in these papers was absolutely
necessary for this run to complete.
Our perspective: the developers of density functionals and basis sets usually get cited in chemistry papers
Good! But without the algorithms to do something with them, the functionals or basis sets would not do anything.
Hence, in our opinion, the algorithm design and method developments papers are equally worthy of getting cited

  1. Neese,F.
     An improvement of the resolution of the identity approximation for the formation of the Coulomb matrix
     J. Comp. Chem., 2003 24(14)1740-1747
     doi.org/10.1002/jcc.10318
  2. Neese,F.
     The SHARK Integral Generation and Digestion System
     J. Comp. Chem., 2022  1-16
     doi.org/10.1002/jcc.26942
  3. Caldeweyher,E.; Bannwarth,C.; Grimme,S.
     Extension of the D3 dispersion coefficient model
     J. Chem. Phys., 2017 147 034112-XXXX
     doi.org/10.1063/1.4993215
  4. Caldeweyher,E.; Ehlert,S.; Hansen,A.; Neugebauer,H.; Spicher,S.; Bannwarth,C.; Grimme,S.
     A generally applicable atomic-charge dependent London dispersion correction
     J. Chem. Phys., 2019 150 154122-XXXX
     doi.org/10.1063/1.5090222
  5. Caldeweyher,E.; Mewes,J.; Ehlert,S.; Grimme,S.
     Extension and evaluation of the D4 London-dispersion model for periodic systems
     Phys. Chem. Chem. Phys., 2020 22(16)8499-8512
     doi.org/10.1039/D0CP00502A

List of suggested additional citations. These are papers that are important in the 'surrounding' of 
of this run, or papers that preceded the highly important papers. If you like your results we are grateful for a citation.

  1. Neese,F.
     The ORCA program system
     WIRES Comput. Molec. Sci., 2012 2(1)73-78
     doi.org/10.1002/wcms.81
  2. Neese,F.
     Software update: the ORCA program system, version 4.0
     WIRES Comput. Molec. Sci., 2018 8(1)1-6
     doi.org/10.1002/wcms.1327
  3. Neese,F.; Wennmohs,F.; Becker,U.; Riplinger,C.
     The ORCA quantum chemistry program package
     J. Chem. Phys., 2020 152 Art. No. L224108
     doi.org/10.1063/5.0004608

List of optional additional citations

  1. Neese,F.
     Approximate second-order SCF convergence for spin unrestricted wavefunctions
     Chem. Phys. Lett., 2000 325(1-3)93-98
     doi.org/10.1016/s0009-2614(00)00662-x

Timings for individual modules:

Sum of individual times          ...        8.333 sec (=   0.139 min)
Startup calculation              ...        0.724 sec (=   0.012 min)   8.7 %
SCF iterations                   ...        7.514 sec (=   0.125 min)  90.2 %
Property calculations            ...        0.095 sec (=   0.002 min)   1.1 %
                             ****ORCA TERMINATED NORMALLY****
TOTAL RUN TIME: 0 days 0 hours 0 minutes 9 seconds 7 msec
