15
 energy: -196.456327611315 gnorm: 0.026558304859 xtb: 6.7.1 (edcfbbe)
C            2.35153834734203       -0.28901838292807       -0.05539916382455
C            0.84958159567647       -0.54291321704058        0.00523198190232
C            0.06423349312846        0.76426859943867       -0.04684865522076
C           -1.42537333443162        0.62166347237548        0.00826472750366
C           -2.11304600903635       -0.50189264202240        0.09411521824170
H            2.66862472688254        0.32781523364526        0.78273764244685
H            2.61508146895881        0.22445523989946       -0.97754927743318
H            2.89918420388471       -1.22748535694393       -0.01688497720748
H            0.55587528254632       -1.17578263442102       -0.83450859676979
H            0.60975369307020       -1.07298688117547        0.92903606581168
H            0.31968179434166        1.30166663087680       -0.96593712362803
H            0.37442178386592        1.40417497252223        0.78567600434815
H           -1.95613884006682        1.56583184799386       -0.02924615011296
H           -3.18939920951331       -0.49960436642139        0.12790631365668
H           -1.64320068892815       -1.46900747605096        0.13485077275976
15
 energy: -196.457063124763 gnorm: 0.006828988208 xtb: 6.7.1 (edcfbbe)
C            2.35844621996665       -0.29224517985789       -0.05542520648044
C            0.85328080180158       -0.54128629665514        0.00478642661280
C            0.06032868488244        0.76133919052940       -0.04657432711332
C           -1.43162842720965        0.62856792234254        0.00741113063066
C           -2.12279922223067       -0.50467921417759        0.09541333892155
H            2.68273897062385        0.32846758989300        0.78479373293622
H            2.62953094840335        0.22478921649301       -0.98041006963012
H            2.91644724469666       -1.23122808597270       -0.01714456129966
H            0.55381542454867       -1.18259040167320       -0.83137851693402
H            0.60738432521440       -1.08076318813713        0.92600386783068
H            0.32092057361621        1.31055506405091       -0.96160723234115
H            0.37480673750834        1.41198583655363        0.78085375145378
H           -1.97191781501690        1.57383421671190       -0.02974429920381
H           -3.20711254063854       -0.49822186578983        0.12833919174114
H           -1.64342368303403       -1.47733955109530        0.13612738211163
15
 energy: -196.457115281512 gnorm: 0.001318894353 xtb: 6.7.1 (edcfbbe)
C            2.35811073633823       -0.29191181955790       -0.05543941493820
C            0.85287441023143       -0.54143237049254        0.00440714426327
C            0.06030648514345        0.76085243993757       -0.04648799433625
C           -1.43169453818544        0.62902046106534        0.00704201306009
C           -2.12490927807368       -0.50620640184840        0.09564160842573
H            2.68705275193563        0.32919303646837        0.78522821228878
H            2.63432859080832        0.22554681787793       -0.98098648273072
H            2.91859004809102       -1.23141731438228       -0.01712518521504
H            0.55252446052342       -1.18644356772285       -0.83064273802783
H            0.60585361844577       -1.08556462821310        0.92446622962317
H            0.32291569558790        1.31594116864562       -0.95951383155650
H            0.37606041687381        1.41611879390580        0.77911895582923
H           -1.97681210363473        1.57321467469687       -0.03089921673569
H           -3.21116899652479       -0.49595228954840        0.12882698964774
H           -1.64321402300732       -1.47977373809225        0.13780822778093
15
 energy: -196.457118024327 gnorm: 0.000469882916 xtb: 6.7.1 (edcfbbe)
C            2.35852554281334       -0.29233846201900       -0.05544597880796
C            0.85361885076531       -0.54017901760508        0.00392217827784
C            0.05968343070987        0.76053275986325       -0.04640980784668
C           -1.43173813928305        0.62839884028864        0.00681979453863
C           -2.12552003163383       -0.50649788431330        0.09665777707319
H            2.68788989314290        0.32858990143515        0.78528525985292
H            2.63565827692654        0.22508089440694       -0.98082894118251
H            2.91888836344163       -1.23202915579629       -0.01702451990486
H            0.55332520276248       -1.18548276058579       -0.83117206674738
H            0.60644538653818       -1.08547379971386        0.92346883924286
H            0.32290209628765        1.31693909464139       -0.95880879458363
H            0.37558734498224        1.41617001863649        0.77926090555572
H           -1.97884917331448        1.57135572692397       -0.03207426127090
H           -3.21152333903496       -0.49401647562215        0.12860050722331
H           -1.64407539852058       -1.47986442349604        0.13919355573673
15
 energy: -196.457118024327 gnorm: 0.000469882916 xtb: 6.7.1 (edcfbbe)
C            2.35852554281334       -0.29233846201900       -0.05544597880796
C            0.85361885076531       -0.54017901760508        0.00392217827784
C            0.05968343070987        0.76053275986325       -0.04640980784668
C           -1.43173813928305        0.62839884028864        0.00681979453863
C           -2.12552003163383       -0.50649788431330        0.09665777707319
H            2.68788989314290        0.32858990143515        0.78528525985292
H            2.63565827692654        0.22508089440694       -0.98082894118251
H            2.91888836344163       -1.23202915579629       -0.01702451990486
H            0.55332520276248       -1.18548276058579       -0.83117206674738
H            0.60644538653818       -1.08547379971386        0.92346883924286
H            0.32290209628765        1.31693909464139       -0.95880879458363
H            0.37558734498224        1.41617001863649        0.77926090555572
H           -1.97884917331448        1.57135572692397       -0.03207426127090
H           -3.21152333903496       -0.49401647562215        0.12860050722331
H           -1.64407539852058       -1.47986442349604        0.13919355573673
