      -----------------------------------------------------------      
     |                   =====================                   |     
     |                           x T B                           |     
     |                   =====================                   |     
     |                         S. Grimme                         |     
     |          Mulliken Center for Theoretical Chemistry        |     
     |                    University of Bonn                     |     
      -----------------------------------------------------------      

   * xtb version 6.7.1 (edcfbbe) compiled by 'albert@albert-system' on 2024-07-22

   xtb is free software: you can redistribute it and/or modify it under
   the terms of the GNU Lesser General Public License as published by
   the Free Software Foundation, either version 3 of the License, or
   (at your option) any later version.
   
   xtb is distributed in the hope that it will be useful,
   but WITHOUT ANY WARRANTY; without even the implied warranty of
   MERCHANTABILITY or FITNESS FOR A PARTICULAR PURPOSE.  See the
   GNU Lesser General Public License for more details.
   
   Cite this work as:
   * C. Bannwarth, E. Caldeweyher, S. Ehlert, A. Hansen, P. Pracht,
     J. Seibert, S. Spicher, S. Grimme, WIREs Comput. Mol. Sci., 2020, 11,
     e01493. DOI: 10.1002/wcms.1493
   
   for GFN2-xTB:
   * C. Bannwarth, S. Ehlert and S. Grimme., J. Chem. Theory Comput., 2019,
     15, 1652-1671. DOI: 10.1021/acs.jctc.8b01176
   for GFN1-xTB:
   * S. Grimme, C. Bannwarth, P. Shushkov, J. Chem. Theory Comput., 2017,
     13, 1989-2009. DOI: 10.1021/acs.jctc.7b00118
   for GFN0-xTB:
   * P. Pracht, E. Caldeweyher, S. Ehlert, S. Grimme, ChemRxiv, 2019, preprint.
     DOI: 10.26434/chemrxiv.8326202.v1
   for GFN-FF:
   * S. Spicher and S. Grimme, Angew. Chem. Int. Ed., 2020, 59, 15665-15673.
     DOI: 10.1002/anie.202004239
   
   for ALPB and GBSA implicit solvation:
   * S. Ehlert, M. Stahn, S. Spicher, S. Grimme, J. Chem. Theory Comput.,
     2021, 17, 4250-4261. DOI: 10.1021/acs.jctc.1c00471
   
   for ddCOSMO and CPCM-X implicit solvation:
   * M. Stahn, S. Ehlert, S. Grimme, J. Phys. Chem. A,
     2023, XX, XXXX-XXXX. DOI: 10.1021/acs.jpca.3c04382
   
   for DFT-D4:
   * E. Caldeweyher, C. Bannwarth and S. Grimme, J. Chem. Phys., 2017,
     147, 034112. DOI: 10.1063/1.4993215
   * E. Caldeweyher, S. Ehlert, A. Hansen, H. Neugebauer, S. Spicher,
     C. Bannwarth and S. Grimme, J. Chem. Phys., 2019, 150, 154122.
     DOI: 10.1063/1.5090222
   * E. Caldeweyher, J.-M. Mewes, S. Ehlert and S. Grimme, Phys. Chem. Chem. Phys.
     2020, 22, 8499-8512. DOI: 10.1039/D0CP00502A
   
   for sTDA-xTB:
   * S. Grimme and C. Bannwarth, J. Chem. Phys., 2016, 145, 054103.
     DOI: 10.1063/1.4959605
   
   in the mass-spec context:
   * V. Asgeirsson, C. Bauer and S. Grimme, Chem. Sci., 2017, 8, 4879.
     DOI: 10.1039/c7sc00601b
   * J. Koopman and S. Grimme, ACS Omega 2019, 4, 12, 15120-15133.
     DOI: 10.1021/acsomega.9b02011
   
   for metadynamics refer to:
   * S. Grimme, J. Chem. Theory Comput., 2019, 155, 2847-2862
     DOI: 10.1021/acs.jctc.9b00143
   
   for SPH calculations refer to:
   * S. Spicher and S. Grimme, J. Chem. Theory Comput., 2021, 17, 1701-1714
     DOI: 10.1021/acs.jctc.0c01306
   
   for ONIOM refer to:
   * C. Plett, A. Katbashev, S. Ehlert, S. Grimme, M. Bursch,
     Phys. Chem. Chem. Phys., 2023, 25, 17860-17868. DOI: 10.1039/D3CP02178E
   
   for DIPRO refer to:
   * J. Kohn, N. Gildemeister, S. Grimme, D. Fazzi, A. Hansen,
     J. Chem. Phys., 2023, just accepted.
   
   for PTB refer to:
   * S. Grimme, M. Mueller, A. Hansen, J. Chem. Phys., 2023, 158, 124111.
     DOI: 10.1063/5.0137838
   
   with help from (in alphabetical order)
   P. Atkinson, C. Bannwarth, F. Bohle, G. Brandenburg, E. Caldeweyher
   M. Checinski, S. Dohm, S. Ehlert, S. Ehrlich, I. Gerasimov, C. Hölzer
   A. Katbashev, J. Kohn, J. Koopman, C. Lavigne, S. Lehtola, F. März, M. Müller,
   F. Musil, H. Neugebauer, J. Pisarek, C. Plett, P. Pracht, F. Pultar,
   J. Seibert, P. Shushkov, S. Spicher, M. Stahn, M. Steiner, T. Strunk,
   J. Stückrath, T. Rose, and J. Unsleber
   
 * started run on 2025/04/11 at 12:21:33.102     
   ID    Z sym.   atoms
    1    6 C      1-4
    2    8 O      5, 6
    3    1 H      7-14

           -------------------------------------------------
          |                Calculation Setup                |
           -------------------------------------------------

          program call               : /srv/scratch/z5358697/.xtb/bin/xtb solv.coord --gfn2 --sp --chrg 0 --norestart --parallel 1 --alpb water reference -I xtb_sp-xcontrol-inp
          hostname                   : k112
          coordinate file            : solv.coord
          omp threads                :                     1


           -------------------------------------------------
          |                 G F N 2 - x T B                 |
           -------------------------------------------------

        Reference                      10.1021/acs.jctc.8b01176
      * Hamiltonian:
        H0-scaling (s, p, d)           1.850000    2.230000    2.230000
        zeta-weighting                 0.500000
      * Dispersion:
        s8                             2.700000
        a1                             0.520000
        a2                             5.000000
        s9                             5.000000
      * Repulsion:
        kExp                           1.500000    1.000000
        rExp                           1.000000
      * Coulomb:
        alpha                          2.000000
        third order                    shell-resolved
        anisotropic                    true
        a3                             3.000000
        a5                             4.000000
        cn-shift                       1.200000
        cn-exp                         4.000000
        max-rad                        5.000000

      * Solvation model:               ALPB
        Solvent                        water
        Parameter file                 internal GFN2-xTB/ALPB
        Dielectric constant                8.0200E+01
        Reference state                gsolv=reference [X=1]
        Free energy shift                  2.8945E-03 Eh       1.8164E+00 kcal/mol
        Temperature                        2.9815E+02 K
        Density                            1.0000E+00 kg/L
        Solvent mass                       1.8000E+01 g/mol
        Interaction kernel             P16
        Born radius scaling (c1)           1.4744E+00
        Born radii integrator          GBOBC
        Born offset                        0.0000E+00 a0       0.0000E+00 AA
        H-bond correction              true
        Ion screening                  false
        Surface tension                    1.0000E-05 Eh       1.5569E+01 dyn/cm
        Grid points                               974 per atom

          ...................................................
          :                      SETUP                      :
          :.................................................:
          :  # basis functions                  32          :
          :  # atomic orbitals                  32          :
          :  # shells                           20          :
          :  # electrons                        36          :
          :  max. iterations                   250          :
          :  Hamiltonian                  GFN2-xTB          :
          :  restarted?                      false          :
          :  GBSA solvation                   true          :
          :  PC potential                    false          :
          :  electronic temp.          300.0000000     K    :
          :  accuracy                    1.0000000          :
          :  -> integral cutoff          0.2500000E+02      :
          :  -> integral neglect         0.1000000E-07      :
          :  -> SCF convergence          0.1000000E-05 Eh   :
          :  -> wf. convergence          0.1000000E-03 e    :
          :  Broyden damping             0.4000000          :
          :  net charge                          0          :
          :  unpaired electrons                  0          :
          ...................................................

 iter      E             dE          RMSdq      gap      omega  full diag
   1    -20.9780787 -0.209781E+02  0.432E+00    5.87       0.0  T
   2    -21.0221743 -0.440955E-01  0.214E+00    4.99       1.0  T
   3    -21.0236213 -0.144703E-02  0.109E+00    5.29       1.0  T
   4    -21.0249168 -0.129545E-02  0.169E-01    5.08       1.0  T
   5    -21.0250323 -0.115538E-03  0.789E-02    5.13       1.0  T
   6    -21.0250345 -0.221416E-05  0.212E-02    5.12       1.3  T
   7    -21.0250358 -0.126827E-05  0.634E-03    5.12       4.2  T
   8    -21.0250359 -0.988799E-07  0.247E-03    5.12      10.8  T
   9    -21.0250359 -0.726468E-08  0.942E-04    5.12      28.4  T
  10    -21.0250359 -0.487967E-08  0.305E-04    5.12      87.5  T

   *** convergence criteria satisfied after 10 iterations ***

         #    Occupation            Energy/Eh            Energy/eV
      -------------------------------------------------------------
         1        2.0000           -0.7458001             -20.2943
       ...           ...                  ...                  ...
        12        2.0000           -0.4850403             -13.1986
        13        2.0000           -0.4791823             -13.0392
        14        2.0000           -0.4660871             -12.6829
        15        2.0000           -0.4591333             -12.4937
        16        2.0000           -0.4409652             -11.9993
        17        2.0000           -0.4284363             -11.6583
        18        2.0000           -0.4251289             -11.5683 (HOMO)
        19                         -0.2369453              -6.4476 (LUMO)
        20                          0.0467272               1.2715
        21                          0.1158052               3.1512
        22                          0.1377122               3.7473
        23                          0.1384080               3.7663
       ...                                ...                  ...
        32                          0.6134564              16.6930
      -------------------------------------------------------------
                  HL-Gap            0.1881836 Eh            5.1207 eV
             Fermi-level           -0.3310371 Eh           -9.0080 eV

 SCC (total)                   0 d,  0 h,  0 min,  0.010 sec
 SCC setup                      ...        0 min,  0.001 sec (  8.945%)
 Dispersion                     ...        0 min,  0.000 sec (  0.754%)
 classical contributions        ...        0 min,  0.000 sec (  0.210%)
 integral evaluation            ...        0 min,  0.001 sec ( 10.256%)
 iterations                     ...        0 min,  0.005 sec ( 49.629%)
 molecular gradient             ...        0 min,  0.003 sec ( 28.459%)
 printout                       ...        0 min,  0.000 sec (  1.571%)

         :::::::::::::::::::::::::::::::::::::::::::::::::::::
         ::                     SUMMARY                     ::
         :::::::::::::::::::::::::::::::::::::::::::::::::::::
         :: total energy             -20.798412138260 Eh    ::
         :: total w/o Gsasa/hb       -20.794204741933 Eh    ::
         :: gradient norm              0.000390019334 Eh/a0 ::
         :: HOMO-LUMO gap              5.120736909944 eV    ::
         ::.................................................::
         :: SCC energy               -21.025036105695 Eh    ::
         :: -> isotropic ES            0.066131589758 Eh    ::
         :: -> anisotropic ES          0.001108066203 Eh    ::
         :: -> anisotropic XC          0.004048957824 Eh    ::
         :: -> dispersion             -0.006939632651 Eh    ::
         :: -> Gsolv                  -0.014271285515 Eh    ::
         ::    -> Gelec               -0.010063889188 Eh    ::
         ::    -> Gsasa                0.002567090371 Eh    ::
         ::    -> Ghb                 -0.009669035858 Eh    ::
         ::    -> Gshift               0.002894549160 Eh    ::
         :: repulsion energy           0.226623967435 Eh    ::
         :: add. restraining           0.000000000000 Eh    ::
         :: total charge               0.000000000000 e     ::
         :::::::::::::::::::::::::::::::::::::::::::::::::::::

           -------------------------------------------------
          |                Property Printout                |
           -------------------------------------------------

    * Orbital Energies and Occupations

         #    Occupation            Energy/Eh            Energy/eV
      -------------------------------------------------------------
         1        2.0000           -0.7458001             -20.2943
       ...           ...                  ...                  ...
         6        2.0000           -0.5851402             -15.9225
         7        2.0000           -0.5814282             -15.8215
         8        2.0000           -0.5610327             -15.2665
         9        2.0000           -0.5571098             -15.1597
        10        2.0000           -0.5125668             -13.9477
        11        2.0000           -0.5027266             -13.6799
        12        2.0000           -0.4850403             -13.1986
        13        2.0000           -0.4791823             -13.0392
        14        2.0000           -0.4660871             -12.6829
        15        2.0000           -0.4591333             -12.4937
        16        2.0000           -0.4409652             -11.9993
        17        2.0000           -0.4284363             -11.6583
        18        2.0000           -0.4251289             -11.5683 (HOMO)
        19                         -0.2369453              -6.4476 (LUMO)
        20                          0.0467272               1.2715
        21                          0.1158052               3.1512
        22                          0.1377122               3.7473
        23                          0.1384080               3.7663
        24                          0.1594925               4.3400
        25                          0.1610979               4.3837
        26                          0.1944607               5.2915
        27                          0.2271311               6.1806
        28                          0.2288870               6.2283
        29                          0.2616543               7.1200
       ...                                ...                  ...
        32                          0.6134564              16.6930
      -------------------------------------------------------------
                  HL-Gap            0.1881836 Eh            5.1207 eV
             Fermi-level           -0.3310371 Eh           -9.0080 eV

     #   Z          covCN         q      C6AA      α(0)
     1   6 C        3.753    -0.118    22.822     6.812
     2   6 C        3.802    -0.055    21.564     6.611
     3   6 C        3.805    -0.102    22.447     6.745
     4   6 C        2.690     0.370    20.728     7.451
     5   8 O        0.856    -0.491    23.578     6.510
     6   8 O        1.659    -0.423    21.306     6.231
     7   1 H        0.925     0.046     2.376     2.411
     8   1 H        0.925     0.046     2.371     2.408
     9   1 H        0.925     0.046     2.371     2.408
    10   1 H        0.924     0.042     2.423     2.434
    11   1 H        0.924     0.042     2.424     2.435
    12   1 H        0.924     0.091     1.866     2.136
    13   1 H        0.924     0.091     1.865     2.136
    14   1 H        0.803     0.415     0.457     1.062

 Mol. C6AA /au·bohr⁶  :       1537.648102
 Mol. C8AA /au·bohr⁸  :      32921.869652
 Mol. α(0) /au        :         57.790715


Wiberg/Mayer (AO) data.
largest (>0.10) Wiberg bond orders for each atom

 ---------------------------------------------------------------------------
     #   Z sym  total        # sym  WBO       # sym  WBO       # sym  WBO
 ---------------------------------------------------------------------------
     1   6 C    3.994 --     2 C    1.020     9 H    0.987     8 H    0.987
                             7 H    0.986
     2   6 C    3.994 --     1 C    1.020     3 C    1.008    11 H    0.978
                            10 H    0.978
     3   6 C    3.991 --     2 C    1.008     4 C    0.990    12 H    0.945
                            13 H    0.945
     4   6 C    3.904 --     5 O    1.703     6 O    1.170     3 C    0.990
     5   8 O    1.972 --     4 C    1.703     6 O    0.169
     6   8 O    2.174 --     4 C    1.170    14 H    0.803     5 O    0.169
     7   1 H    0.998 --     1 C    0.986
     8   1 H    0.998 --     1 C    0.987
     9   1 H    0.998 --     1 C    0.987
    10   1 H    0.998 --     2 C    0.978
    11   1 H    0.998 --     2 C    0.978
    12   1 H    0.992 --     3 C    0.945
    13   1 H    0.992 --     3 C    0.945
    14   1 H    0.827 --     6 O    0.803
 ---------------------------------------------------------------------------

Topologies differ in total number of bonds
Writing topology from bond orders to xtbtopo.mol

molecular dipole:
                 x           y           z       tot (Debye)
 q only:       -0.100       1.025       0.000
   full:        0.031       1.025       0.000       2.607
molecular quadrupole (traceless):
                xx          xy          yy          xz          yz          zz
 q only:        7.304       2.782      -5.923      -0.009       0.002      -1.382
  q+dip:        7.113       2.372      -7.419      -0.009       0.001       0.306
   full:        7.356       2.528      -7.731      -0.008       0.002       0.375


           -------------------------------------------------
          | TOTAL ENERGY              -20.798412138260 Eh   |
          | GRADIENT NORM               0.000390019334 Eh/α |
          | HOMO-LUMO GAP               5.120736909944 eV   |
           -------------------------------------------------

------------------------------------------------------------------------
 * finished run on 2025/04/11 at 12:21:33.147     
------------------------------------------------------------------------
 total:
 * wall-time:     0 d,  0 h,  0 min,  0.045 sec
 *  cpu-time:     0 d,  0 h,  0 min,  0.017 sec
 * ratio c/w:     0.382 speedup
 SCF:
 * wall-time:     0 d,  0 h,  0 min,  0.010 sec
 *  cpu-time:     0 d,  0 h,  0 min,  0.010 sec
 * ratio c/w:     0.989 speedup

