
                                 *****************
                                 * O   R   C   A *
                                 *****************

                                            #,                                       
                                            ###                                      
                                            ####                                     
                                            #####                                    
                                            ######                                   
                                           ########,                                 
                                     ,,################,,,,,                         
                               ,,#################################,,                 
                          ,,##########################################,,             
                       ,#########################################, ''#####,          
                    ,#############################################,,   '####,        
                  ,##################################################,,,,####,       
                ,###########''''           ''''###############################       
              ,#####''   ,,,,##########,,,,          '''####'''          '####       
            ,##' ,,,,###########################,,,                        '##       
           ' ,,###''''                  '''############,,,                           
         ,,##''                                '''############,,,,        ,,,,,,###''
      ,#''                                            '''#######################'''  
     '                                                          ''''####''''         
             ,#######,   #######,   ,#######,      ##                                
            ,#'     '#,  ##    ##  ,#'     '#,    #''#        ,####,   ,####,        
            ##       ##  ##   ,#'  ##            #'  '#       #'       #'  '#        
            ##       ##  #######   ##           ,######,      #####,   #    #        
            '#,     ,#'  ##    ##  '#,     ,#' ,#      #,     #,   #   #,  ,#        
             '#######'   ##     ##  '#######'  #'      '#     '####' # '####'        



                #########################################################
                #                        -***-                          #
                #          Department of theory and spectroscopy        #
                #                                                       #
                #                      Frank Neese                      #
                #                                                       #
                #     Directorship, Architecture, Infrastructure        #
                #                    SHARK, DRIVERS                     #
                #        Core code/Algorithms in most modules           #
                #                                                       #
                #        Max Planck Institute fuer Kohlenforschung      #
                #                Kaiser Wilhelm Platz 1                 #
                #                 D-45470 Muelheim/Ruhr                 #
                #                      Germany                          #
                #                                                       #
                #                  All rights reserved                  #
                #                        -***-                          #
                #########################################################


                         Program Version 6.0.0  -   RELEASE  -


 With contributions from (in alphabetic order):
   Daniel Aravena         : Magnetic Suceptibility
   Michael Atanasov       : Ab Initio Ligand Field Theory (pilot matlab implementation)
   Alexander A. Auer      : GIAO ZORA, VPT2 properties, NMR spectrum
   Ute Becker             : All parallelization in ORCA, NUMFREQ, NUMCALC
   Giovanni Bistoni       : ED, misc. LED, open-shell LED, HFLD
   Martin Brehm           : Molecular dynamics
   Dmytro Bykov           : pre 5.0 version of the SCF Hessian
   Marcos Casanova-Páez   : Triplet and SCS-CIS(D). UHF-(DLPNO)-IP/EA/STEOM-CCSD. UHF-CVS-IP/STEOM-CCSD
   Vijay G. Chilkuri      : MRCI spin determinant printing, contributions to CSF-ICE
   Pauline Colinet        : FMM embedding
   Dipayan Datta          : RHF DLPNO-CCSD density
   Achintya Kumar Dutta   : EOM-CC, STEOM-CC
   Nicolas Foglia         : Exact transition moments, OPA infrastructure, MCD improvements
   Dmitry Ganyushin       : Spin-Orbit,Spin-Spin,Magnetic field MRCI
   Miquel Garcia          : C-PCM and meta-GGA Hessian, CCSD/C-PCM, Gaussian charge scheme
   Tiago L. C. Gouveia    : GS-ROHF, GS-ROCIS
   Yang Guo               : DLPNO-NEVPT2, F12-NEVPT2, CIM, IAO-localization
   Andreas Hansen         : Spin unrestricted coupled pair/coupled cluster methods
   Ingolf Harden          : AUTO-CI MPn and infrastructure 
   Benjamin Helmich-Paris : MC-RPA, TRAH-(SCF,CASSCF), AVAS, COSX integrals, SCF dyn. polar.
   Lee Huntington         : MR-EOM, pCC
   Robert Izsak           : Overlap fitted RIJCOSX, COSX-SCS-MP3, EOM
   Riya Kayal             : Wick's Theorem for AUTO-CI, AUTO-CI UHF-CCSDT
   Emily Kempfer          : AUTO-CI, RHF CISDT and CCSDT
   Christian Kollmar      : KDIIS, OOCD, Brueckner-CCSD(T), CCSD density, CASPT2, CASPT2-K, improved NEVPT2
   Axel Koslowski         : Symmetry handling
   Simone Kossmann        : Meta GGA functionals, TD-DFT gradient, OOMP2, (MP2 Hessian; deprecated post 5.0)
   Lucas Lang             : DCDCAS
   Marvin Lechner         : AUTO-CI (C++ implementation), FIC-MRCC
   Spencer Leger          : CASSCF response
   Dagmar Lenk            : GEPOL surface, SMD, ORCA-2-JSON
   Dimitrios Liakos       : Extrapolation schemes; Compound Job, initial MDCI parallelization
   Dimitrios Manganas     : Further ROCIS development; embedding schemes. LFT, Crystal Embedding
   Dimitrios Pantazis     : SARC Basis sets
   Anastasios Papadopoulos: AUTO-CI, single reference methods and gradients
   Taras Petrenko         : pre 6.0 DFT Hessian and TD-DFT gradient, (ASA, deprecated), ECA, 1-Electron XAS/XES, NRVS
   Peter Pinski           : DLPNO-MP2, DLPNO-MP2 Gradient
   Christoph Reimann      : Effective Core Potentials
   Marius Retegan         : Local ZFS, SOC
   Christoph Riplinger    : Optimizer, TS searches, QM/MM, DLPNO-CCSD(T), (RO)-DLPNO pert. Triples
   Michael Roemelt        : Original ROCIS implementation
   Masaaki Saitow         : Open-shell DLPNO-CCSD energy and density
   Barbara Sandhoefer     : DKH picture change effects
   Kantharuban Sivalingam : CASSCF convergence/infrastructure, NEVPT2 and variants, FIC-MRCI
   Bernardo de Souza      : ESD, SOC TD-DFT
   Georgi Stoychev        : AutoAux, RI-MP2 NMR, DLPNO-MP2 response, X2C
   Van Anh Tran           : RI-MP2 g-tensors
   Willem Van den Heuvel  : Paramagnetic NMR
   Zikuan Wang            : NOTCH, Electric field optimization 
   Frank Wennmohs         : Technical directorship and infrastructure
   Hang Xu                : AUTO-CI-Response properties 


 We gratefully acknowledge several colleagues who have allowed us to
 interface, adapt or use parts of their codes:
   Stefan Grimme, W. Hujo, H. Kruse, P. Pracht,  : VdW corrections, initial TS optimization,
                  C. Bannwarth, S. Ehlert,         DFT functionals, gCP, sTDA/sTD-DF
                  L. Wittmann, M. Mueller
   Ed Valeev, F. Pavosevic, A. Kumar             : LibInt (2-el integral package), F12 methods
   Garnet Chan, S. Sharma, J. Yang, R. Olivares  : DMRG
   Ulf Ekstrom                                   : XCFun DFT Library
   Mihaly Kallay                                 : mrcc  (arbitrary order and MRCC methods)
   Frank Weinhold                                : gennbo (NPA and NBO analysis)
   Simon Mueller                                 : openCOSMO-RS
   Christopher J. Cramer and Donald G. Truhlar   : smd solvation model
   Lars Goerigk                                  : TD-DFT with DH, B97 family of functionals
   V. Asgeirsson, H. Jonsson                     : NEB implementation
   FAccTs GmbH                                   : IRC, NEB, NEB-TS, DLPNO-Multilevel, CI-OPT
                                                   MM, QMMM, 2- and 3-layer-ONIOM, Crystal-QMMM,
                                                   LR-CPCM, SF, NACMEs, symmetry and pop. for TD-DFT,
                                                   nearIR, NL-DFT gradient (VV10), updates on ESD,
                                                   ML-optimized integration grids, MBIS, APM,
                                                   GOAT, DOCKER, SOLVATOR, interface openCOSMO-RS
   S Lehtola, MJT Oliveira, MAL Marques          : LibXC Library
   Liviu Ungur et al                             : ANISO software


 Your calculation uses the libint2 library for the computation of 2-el integrals
 For citations please refer to: http://libint.valeyev.net

 Your ORCA version has been built with support for libXC version: 6.2.2
 For citations please refer to: https://libxc.gitlab.io

 This ORCA versions uses:
   CBLAS   interface :  Fast vector & matrix operations
   LAPACKE interface :  Fast linear algebra routines
   SCALAPACK package :  Parallel linear algebra routines
   Shared memory     :  Shared parallel matrices
   BLAS/LAPACK       :  OpenBLAS 0.3.27  USE64BITINT DYNAMIC_ARCH NO_AFFINITY SkylakeX SINGLE_THREADED
        Core in use  :  SkylakeX
   Copyright (c) 2011-2014, The OpenBLAS Project


Your calculation utilizes the geometrical counterpoise correction gCP
Please cite in your paper:
H.Kruse, S. Grimme J.Chem.Phys., 136, (2012), 154101 
   

Your calculation utilizes the atom-pairwise dispersion correction
based on EEQ partial charges (D4)


Your calculation utilizes the SMD solvation module
Please cite in your paper:
A.V. Marenich, C.J. Cramer, D.G. Truhlar J. Phys. Chem. B, 113, (2009), 6378 

================================================================================

----- Orbital basis set information -----
Your calculation utilizes the basis: def2-mTZVPP
   Stefan Grimme, Andreas Hansen, Sebastian Ehlert, and Jan-Michael Mewes 
   J. Chem. Phys. 154, 064103 (2021). DOI: 10.1063/5.0040021

----- AuxJ basis set information -----
Your calculation utilizes the auxiliary basis: def2/J
   F. Weigend, Phys. Chem. Chem. Phys. 8, 1057 (2006).

================================================================================
                                        WARNINGS
                       Please study these warnings very carefully!
================================================================================

Using LibXC functional ID 497 : Re-regularized SCAN exchange by Furness et al
[ 1]  J. W. Furness, A. D. Kaplan, J. Ning, J. P. Perdew, and J. Sun.,  J. Phys. Chem. Lett. 11, 8208-8215 (2020)
[ 2]  J. W. Furness, A. D. Kaplan, J. Ning, J. P. Perdew, and J. Sun.,  J. Phys. Chem. Lett. 11, 9248-9248 (2020)
Using LibXC functional ID 498 : Re-regularized SCAN correlation by Furness et al
[ 1]  J. W. Furness, A. D. Kaplan, J. Ning, J. P. Perdew, and J. Sun.,  J. Phys. Chem. Lett. 11, 8208-8215 (2020)
[ 2]  J. W. Furness, A. D. Kaplan, J. Ning, J. P. Perdew, and J. Sun.,  J. Phys. Chem. Lett. 11, 9248-9248 (2020)
Using LibXC functional ID 497 : Re-regularized SCAN exchange by Furness et al
[ 1]  J. W. Furness, A. D. Kaplan, J. Ning, J. P. Perdew, and J. Sun.,  J. Phys. Chem. Lett. 11, 8208-8215 (2020)
[ 2]  J. W. Furness, A. D. Kaplan, J. Ning, J. P. Perdew, and J. Sun.,  J. Phys. Chem. Lett. 11, 9248-9248 (2020)
Using LibXC functional ID 498 : Re-regularized SCAN correlation by Furness et al
[ 1]  J. W. Furness, A. D. Kaplan, J. Ning, J. P. Perdew, and J. Sun.,  J. Phys. Chem. Lett. 11, 8208-8215 (2020)
[ 2]  J. W. Furness, A. D. Kaplan, J. Ning, J. P. Perdew, and J. Sun.,  J. Phys. Chem. Lett. 11, 9248-9248 (2020)

================================================================================
                                       INPUT FILE
================================================================================
NAME = sp_solv.inp
|  1> ! r2scan-3c def2/J RI DEFGRID2 scfconv6 printgap
|  2> %output
|  3>     printlevel normal
|  4> end
|  5> %cpcm
|  6>     smd true
|  7>     smdsolvent "water"
|  8> end
|  9> * xyz 0 1
| 10> C -1.3634810396 -0.3619040421 -0.4244857005
| 11> C -0.0121797662 -0.061978118 0.2460309278
| 12> C 1.1184382897 -0.842765162 -0.4375247527
| 13> O 2.3938237617 -0.5087579689 0.0521786222
| 14> O 0.2266658046 1.3303978842 0.2560029888
| 15> O -2.4229127078 0.269078844 0.2533841532
| 16> H -1.5716659214 -1.4323595497 -0.398415167
| 17> H -1.3345265404 -0.030249356 -1.4723920536
| 18> H -0.0789338572 -0.3411942839 1.3041890516
| 19> H 1.1439084484 -0.5973807993 -1.5028543194
| 20> H 0.9245856589 -1.917594593 -0.332773128
| 21> H 2.4364330665 -0.6906769061 1.0011302408
| 22> H 0.5649001463 1.6056534373 -0.6080641587
| 23> H -2.1558167422 1.1839447618 0.435326457
| 24> *
| 25> 
| 26>                          ****END OF INPUT****
================================================================================

                       ****************************
                       * Single Point Calculation *
                       ****************************

---------------------------------
CARTESIAN COORDINATES (ANGSTROEM)
---------------------------------
  C     -1.363481   -0.361904   -0.424486
  C     -0.012180   -0.061978    0.246031
  C      1.118438   -0.842765   -0.437525
  O      2.393824   -0.508758    0.052179
  O      0.226666    1.330398    0.256003
  O     -2.422913    0.269079    0.253384
  H     -1.571666   -1.432360   -0.398415
  H     -1.334527   -0.030249   -1.472392
  H     -0.078934   -0.341194    1.304189
  H      1.143908   -0.597381   -1.502854
  H      0.924586   -1.917595   -0.332773
  H      2.436433   -0.690677    1.001130
  H      0.564900    1.605653   -0.608064
  H     -2.155817    1.183945    0.435326

----------------------------
CARTESIAN COORDINATES (A.U.)
----------------------------
  NO LB      ZA    FRAG     MASS         X           Y           Z
   0 C     6.0000    0    12.011   -2.576606   -0.683900   -0.802162
   1 C     6.0000    0    12.011   -0.023016   -0.117122    0.464931
   2 C     6.0000    0    12.011    2.113542   -1.592595   -0.826802
   3 O     8.0000    0    15.999    4.523671   -0.961413    0.098603
   4 O     8.0000    0    15.999    0.428336    2.514088    0.483776
   5 O     8.0000    0    15.999   -4.578641    0.508485    0.478827
   6 H     1.0000    0     1.008   -2.970018   -2.706767   -0.752896
   7 H     1.0000    0     1.008   -2.521890   -0.057163   -2.782418
   8 H     1.0000    0     1.008   -0.149163   -0.644764    2.464560
   9 H     1.0000    0     1.008    2.161674   -1.128886   -2.839983
  10 H     1.0000    0     1.008    1.747214   -3.623729   -0.628850
  11 H     1.0000    0     1.008    4.604191   -1.305190    1.891862
  12 H     1.0000    0     1.008    1.067507    3.034245   -1.149075
  13 H     1.0000    0     1.008   -4.073903    2.237331    0.822648

--------------------------------
INTERNAL COORDINATES (ANGSTROEM)
--------------------------------
 C      0   0   0     0.000000000000     0.00000000     0.00000000
 C      1   0   0     1.538038764228     0.00000000     0.00000000
 C      2   1   0     1.534657605054   110.72499101     0.00000000
 O      3   2   1     1.406406165594   113.08973379   174.26861092
 O      2   1   3     1.412748236663   110.10908321   124.83560582
 O      1   2   3     1.407139794296   111.34771641   175.61257408
 H      1   2   3     1.090823364014   110.40320012    57.46985714
 H      1   2   3     1.099518494025   109.48343415   297.59783553
 H      2   1   3     1.096410685341   108.51740255   238.94101557
 H      3   2   1     1.093521513335   109.68945740    56.99130216
 H      3   2   1     1.097182779253   109.00879639   298.34971168
 H      4   3   2     0.967170733124   109.68913448    59.39136069
 H      5   2   1     0.967874023211   109.45526732   279.17761171
 H      6   1   2     0.970269500862   107.81149263    45.74406015

---------------------------
INTERNAL COORDINATES (A.U.)
---------------------------
 C      0   0   0     0.000000000000     0.00000000     0.00000000
 C      1   0   0     2.906472047745     0.00000000     0.00000000
 C      2   1   0     2.900082582891   110.72499101     0.00000000
 O      3   2   1     2.657722486030   113.08973379   174.26861092
 O      2   1   3     2.669707263473   110.10908321   124.83560582
 O      1   2   3     2.659108843362   111.34771641   175.61257408
 H      1   2   3     2.061357418469   110.40320012    57.46985714
 H      1   2   3     2.077788832889   109.48343415   297.59783553
 H      2   1   3     2.071915925599   108.51740255   238.94101557
 H      3   2   1     2.066456181755   109.68945740    56.99130216
 H      3   2   1     2.073374971643   109.00879639   298.34971168
 H      4   3   2     1.827687810348   109.68913448    59.39136069
 H      5   2   1     1.829016836005   109.45526732   279.17761171
 H      6   1   2     1.833543632727   107.81149263    45.74406015

---------------------
BASIS SET INFORMATION
---------------------
There are 3 groups of distinct atoms

 Group   1 Type C   : 11s6p1d contracted to 5s3p1d pattern {62111/411/1}
 Group   2 Type O   : 11s6p2d contracted to 5s3p2d pattern {62111/411/11}
 Group   3 Type H   : 4s1p contracted to 2s1p pattern {31/1}

Atom   0C    basis set group =>   1
Atom   1C    basis set group =>   1
Atom   2C    basis set group =>   1
Atom   3O    basis set group =>   2
Atom   4O    basis set group =>   2
Atom   5O    basis set group =>   2
Atom   6H    basis set group =>   3
Atom   7H    basis set group =>   3
Atom   8H    basis set group =>   3
Atom   9H    basis set group =>   3
Atom  10H    basis set group =>   3
Atom  11H    basis set group =>   3
Atom  12H    basis set group =>   3
Atom  13H    basis set group =>   3
---------------------------------
AUXILIARY/J BASIS SET INFORMATION
---------------------------------
There are 3 groups of distinct atoms

 Group   1 Type C   : 12s5p4d2f1g contracted to 6s4p3d1f1g pattern {711111/2111/211/2/1}
 Group   2 Type O   : 12s5p4d2f1g contracted to 6s4p3d1f1g pattern {711111/2111/211/2/1}
 Group   3 Type H   : 5s2p1d contracted to 3s1p1d pattern {311/2/1}

Atom   0C    basis set group =>   1
Atom   1C    basis set group =>   1
Atom   2C    basis set group =>   1
Atom   3O    basis set group =>   2
Atom   4O    basis set group =>   2
Atom   5O    basis set group =>   2
Atom   6H    basis set group =>   3
Atom   7H    basis set group =>   3
Atom   8H    basis set group =>   3
Atom   9H    basis set group =>   3
Atom  10H    basis set group =>   3
Atom  11H    basis set group =>   3
Atom  12H    basis set group =>   3
Atom  13H    basis set group =>   3

Checking for AutoStart:
The File: sp_solv.gbw exists
Trying to determine its content:
     ... Fine, the file contains calculation information
     ... Fine, the calculation information was read
     ... Fine, the file contains a basis set
     ... Fine, the basis set was read
     ... Fine, the file contains a geometry
     ... Fine, the geometry was read
     ... Fine, the file contains a set of orbitals
     ... Fine, the orbitals can be read
     => possible old guess file was deleted
     => GBW file was renamed to GES file
     => GES file is set as startup file
     => Guess is set to MORead
     ... now leaving AutoStart

------------------------------------------------------------------------------
                             ORCA STARTUP CALCULATIONS
                           -- RI-GTO INTEGRALS CHOSEN --
------------------------------------------------------------------------------
------------------------------------------------------------------------------
                   ___                                                        
                  /   \      - P O W E R E D   B Y -                         
                 /     \                                                     
                 |  |  |   _    _      __       _____    __    __             
                 |  |  |  | |  | |    /  \     |  _  \  |  |  /  |          
                  \  \/   | |  | |   /    \    | | | |  |  | /  /          
                 / \  \   | |__| |  /  /\  \   | |_| |  |  |/  /          
                |  |  |   |  __  | /  /__\  \  |    /   |      \           
                |  |  |   | |  | | |   __   |  |    \   |  |\   \          
                \     /   | |  | | |  |  |  |  | |\  \  |  | \   \       
                 \___/    |_|  |_| |__|  |__|  |_| \__\ |__|  \__/        
                                                                              
                      - O R C A' S   B I G   F R I E N D -                    
                                      &                                       
                       - I N T E G R A L  F E E D E R -                       
                                                                              
 v1 FN, 2020, v2 2021, v3 2022-2024                                           
------------------------------------------------------------------------------


----------------------
SHARK INTEGRAL PACKAGE
----------------------

Number of atoms                             ...     14
Number of basis functions                   ...    169
Number of shells                            ...     81
Maximum angular momentum                    ...      2
Integral batch strategy                     ... SHARK/LIBINT Hybrid
RI-J (if used) integral strategy            ... SPLIT-RIJ (Revised 2003 algorithm where possible)
Printlevel                                  ...      1
Contraction scheme used                     ... SEGMENTED contraction
Prescreening option                         ... SCHWARTZ
   Thresh                                   ... 1.000e-10
   Tcut                                     ... 1.000e-11
   Tpresel                                  ... 1.000e-11 
Coulomb Range Separation                    ... NOT USED
Exchange Range Separation                   ... NOT USED
Multipole approximations                    ... NOT USED
Finite Nucleus Model                        ... NOT USED
CABS basis                                  ... NOT available
Auxiliary Coulomb fitting basis             ... AVAILABLE
   # of basis functions in Aux-J            ...    382
   # of shells in Aux-J                     ...    130
   Maximum angular momentum in Aux-J        ...      4
Auxiliary J/K fitting basis                 ... NOT available
Auxiliary Correlation fitting basis         ... NOT available
Auxiliary 'external' fitting basis          ... NOT available

Checking pre-screening integrals            ... done (  0.0 sec) Dimension = 81
Check shell pair data                       ... done (  0.0 sec)
Shell pair information
Shell pair cut-off parameter TPreSel        ...   1.0e-11
Total number of shell pairs                 ...      3321
Shell pairs after pre-screening             ...      3093
Total number of primitive shell pairs       ...     11632
Primitive shell pairs kept                  ...      8082
          la=0 lb=0:    984 shell pairs
          la=1 lb=0:   1116 shell pairs
          la=1 lb=1:    335 shell pairs
          la=2 lb=0:    390 shell pairs
          la=2 lb=1:    224 shell pairs
          la=2 lb=2:     44 shell pairs

Calculating one electron integrals          ... done (  0.0 sec)
Calculating RI/J V-Matrix + Cholesky decomp.... done (  0.1 sec)
Calculating Nuclear repulsion               ... done (  0.0 sec) ENN=    260.647748647604 Eh

Diagonalization of the overlap matrix:
Smallest eigenvalue                        ... 2.480e-04
Time for diagonalization                   ...    0.003 sec
Threshold for overlap eigenvalues          ... 1.000e-07
Number of eigenvalues below threshold      ... 0
Time for construction of square roots      ...    0.015 sec
Total time needed                          ...    0.026 sec

-------------------
DFT GRID GENERATION
-------------------

General Integration Accuracy     IntAcc      ... 4.388
Radial Grid Type                 RadialGrid  ... OptM3 with GC (2021)
Angular Grid (max. ang.)         AngularGrid ... 4 (Lebedev-302)
Angular grid pruning method      GridPruning ... 4 (adaptive)
Weight generation scheme         WeightScheme... mBecke (2022)
Basis function cutoff            BFCut       ... 1.0000e-10
Integration weight cutoff        WCut        ... 1.0000e-14
Partially contracted basis set               ... off
Rotationally invariant grid construction     ... off
Angular grids for H and He will be reduced by one unit
Diffuse basis detected: some atoms will have their outermost
                        angular grid increased by 1.

Total number of grid points                  ...    62978
Total number of batches                      ...      993
Average number of points per batch           ...       63
Average number of grid points per atom       ...     4498
Initializing property integral containers    ... done (  0.0 sec)

SHARK setup successfully completed in   0.9 seconds

Maximum memory used throughout the entire STARTUP-calculation: 27.8 MB
-------------------------------------------------------------------------------
                                 ORCA GUESS
                   Start orbitals & Density for SCF / CASSCF
-------------------------------------------------------------------------------

------------
SCF SETTINGS
------------
Hamiltonian:
 Density Functional     Method          .... DFT(GTOs)
  Functional kind                       .... Exchange
  Functional name                       .... Re-regularized SCAN exchange by Furness et al
  Functional family                     .... MGGA
  Functional refs                              
    [ 0] J. W. Furness, A. D. Kaplan, J. Ning, J. P. Perdew, and J. Sun.,  J. Phys. Chem. Lett. 11, 8208-8215 (2020), doi: 10.1021/acs.jpclett.0c02405
    [ 1] J. W. Furness, A. D. Kaplan, J. Ning, J. P. Perdew, and J. Sun.,  J. Phys. Chem. Lett. 11, 9248-9248 (2020), doi: 10.1021/acs.jpclett.0c03077
  Functional external parameters        .... 6
    Parameter  0 _c1        =  6.670000e-01 : c1 parameter        
    Parameter  1 _c2        =  8.000000e-01 : c2 parameter        
    Parameter  2 _d         =  1.240000e+00 : d parameter         
    Parameter  3 _k1        =  6.500000e-02 : k1 parameter        
    Parameter  4 _eta       =  1.000000e-03 : eta parameter       
    Parameter  5 _dp2       =  3.610000e-01 : dp2 parameter       
  Functional kind                       .... Correlation
  Functional name                       .... Re-regularized SCAN correlation by Furness et al
  Functional family                     .... MGGA
  Functional refs                              
    [ 0] J. W. Furness, A. D. Kaplan, J. Ning, J. P. Perdew, and J. Sun.,  J. Phys. Chem. Lett. 11, 8208-8215 (2020), doi: 10.1021/acs.jpclett.0c02405
    [ 1] J. W. Furness, A. D. Kaplan, J. Ning, J. P. Perdew, and J. Sun.,  J. Phys. Chem. Lett. 11, 9248-9248 (2020), doi: 10.1021/acs.jpclett.0c03077
  Functional external parameters        .... 1
    Parameter  0 _eta       =  1.000000e-03 : Regularization parameter
 Gradients option       PostSCFGGA      .... off
 RI-approximation to the Coulomb term is turned on
   Number of AuxJ basis functions       .... 382


General Settings:
 Integral files         IntName         .... sp_solv
 Hartree-Fock type      HFTyp           .... RHF
 Total Charge           Charge          ....    0
 Multiplicity           Mult            ....    1
 Number of Electrons    NEL             ....   50
 Basis Dimension        Dim             ....  169
 Nuclear Repulsion      ENuc            ....    260.6477486476 Eh

Convergence Acceleration:
 AO-DIIS                CNVDIIS         .... on
   Start iteration      DIISMaxIt       ....    12
   Startup error        DIISStart       ....  0.200000
   # of expansion vecs  DIISMaxEq       ....     5
   Bias factor          DIISBfac        ....   1.050
   Max. coefficient     DIISMaxC        ....  10.000
 MO-DIIS                CNVKDIIS        .... off
 Trust-Rad. Augm. Hess. CNVTRAH         .... auto
   Auto Start mean grad. ratio tolernc. ....  1.125000
   Auto Start start iteration           ....     1
   Auto Start num. interpolation iter.  ....    10
   Max. Number of Micro iterations      ....    24
   Max. Number of Macro iterations      .... Maxiter - #DIIS iter
   Number of Davidson start vectors     ....     2
   Converg. threshold    (grad. norm)   ....   3.330e-04
   Grad. Scal. Fac. for Micro threshold ....   0.100
   Minimum threshold for Micro iter.    ....   1.000e-02
   NR start threshold (gradient norm)   ....   1.000e-04
   Initial trust radius                 ....   0.400
   Minimum AH scaling param. (alpha)    ....   1.000
   Maximum AH scaling param. (alpha)    .... 1000.000
   Quad. conv. algorithm                .... NR
   White noise on init. David. guess    .... on
   Maximum white noise                  ....   0.010
   Pseudo random numbers                .... off
   Inactive MOs                         .... canonical
   Orbital update algorithm             .... Taylor
   Preconditioner                       .... Diag
   Full preconditioner red. dimension   ....   250
   COSX micro iterations for RIJONX calc.... off
 SOSCF                  CNVSOSCF        .... on
   Start iteration      SOSCFMaxIt      ....   150
   Startup grad/error   SOSCFStart      ....  0.003300
   Hessian update       SOSCFHessUp     .... L-BFGS
 Level Shifting         CNVShift        .... on
   Level shift para.    LevelShift      ....    0.2500
   Turn off err/grad.   ShiftErr        ....    0.0010
 Zerner damping         CNVZerner       .... off
 Static damping         CNVDamp         .... on
   Fraction old density DampFac         ....    0.7000
   Max. Damping (<1)    DampMax         ....    0.9800
   Min. Damping (>=0)   DampMin         ....    0.0000
   Turn off err/grad.   DampErr         ....    0.1000

SCF Procedure:
 Maximum # iterations   MaxIter         ....   125
 SCF integral mode      SCFMode         .... Direct
   Integral package                     .... SHARK and LIBINT hybrid scheme
 Reset frequency        DirectResetFreq ....    20
 Integral Threshold     Thresh          ....  1.000e-10 Eh
 Primitive CutOff       TCut            ....  1.000e-11 Eh

Convergence Tolerance:
 Convergence Check Mode ConvCheckMode   .... Total+1el-Energy
 Convergence forced     ConvForced      .... 0
 Energy Change          TolE            ....  1.000e-06 Eh
 1-El. energy change                    ....  1.000e-03 Eh
 Orbital Gradient       TolG            ....  3.330e-04
 Orbital Rotation angle TolX            ....  3.330e-04
 DIIS Error             TolErr          ....  1.000e-06

---------------------
INITIAL GUESS: MOREAD
---------------------
Guess MOs are being read from file: sp_solv.ges
Input Geometry matches current geometry (good)
Atom 0: N(Shells)= 9 and 6 - projection required
Input basis set needs projection
NBasis(read)= 100
NBasis(calc)= 169
Basis set overlap was calculated
Using GuessMode=FMatrix for the initial guess
C*T matrix was formed
Effective Fockian was calculated
Effective Fockian was diagonalized
Initial density was built
                      ------------------
                      INITIAL GUESS DONE (   0.3 sec)
                      ------------------
             **** ENERGY FILE WAS UPDATED (sp_solv.en.tmp) ****
Finished Guess after   0.6 sec
Maximum memory used throughout the entire GUESS-calculation: 11.4 MB

-------------------------------------------------------------------------------------------
                                      ORCA LEAN-SCF
                              memory conserving SCF solver
-------------------------------------------------------------------------------------------

--------------------
CPCM SOLVATION MODEL
--------------------
CPCM parameters:
  Epsilon                                         ...      78.3550
  Refrac                                          ...       1.3328
  Rsolv                                           ...       1.3000
  Surface type                                    ... GAUSSIAN VDW
  Discretization scheme                           ... Constant charge density
    Threshold for H atoms                         ...       5.0000 (charges/Ang^2)
    Threshold for non-H atoms                     ...       5.0000 (charges/Ang^2)
  Epsilon function type                           ...         CPCM
Solvent:                                          ... WATER
SMD-CDS solvent descriptors:
  Soln                                            ...       1.3328
  Soln25                                          ...       1.3323
  Sola                                            ...       0.0000
  Solb                                            ...       0.0000
  Solg                                            ...       0.0000
  Solc                                            ...       0.0000
  Solh                                            ...       0.0000
Radii:
  Scheme                                          ... Element-dependent radii
  Radius for C  used is    3.4960 Bohr (=   1.8500 Ang.)
  Radius for O  used is    2.8724 Bohr (=   1.5200 Ang.)
  Radius for H  used is    2.2677 Bohr (=   1.2000 Ang.)
Calculating surface                               ...        done! (  0.0s)
Cavity surface points                             ...         1006
Cavity Volume                                     ...     604.7946
Cavity Surface-area                               ...     427.8996
Calculating surface distance matrix               ...        done! (  0.0s)
Performing Cholesky decomposition & store         ...        done! (  0.1s)
Overall time for CPCM initialization              ...                 0.1s

----------------------------------------D-I-I-S--------------------------------------------
Iteration    Energy (Eh)           Delta-E    RMSDP     MaxDP     DIISErr   Damp  Time(sec)
-------------------------------------------------------------------------------------------
               ***  Starting incremental Fock matrix formation  ***
    1    -344.5415766782642208     0.00e+00  3.93e-03  1.23e-01  6.27e-01  0.700   2.2
    2    -344.6051611588157471    -6.36e-02  3.33e-03  7.74e-02  4.41e-01  0.700   2.1
    3    -344.6504690039552656    -4.53e-02  2.50e-03  4.95e-02  3.10e-01  0.700   2.0
    4    -344.6824256038939325    -3.20e-02  1.81e-03  3.30e-02  2.17e-01  0.700   2.0
                               ***Turning on AO-DIIS***
    5    -344.7049140259878754    -2.25e-02  1.31e-03  2.25e-02  1.52e-01  0.700   2.0
    6    -344.7207115079652908    -1.58e-02  9.37e-04  1.62e-02  1.06e-01  0.700   2.0
    7    -344.7318134806387775    -1.11e-02  6.63e-04  1.15e-02  7.42e-02  0.700   1.9
    8    -344.7396033013537249    -7.79e-03  1.56e-03  2.73e-02  5.20e-02  0.000   1.9
                              *** Initializing SOSCF ***
---------------------------------------S-O-S-C-F--------------------------------------
Iteration    Energy (Eh)           Delta-E    RMSDP     MaxDP     MaxGrad    Time(sec)
--------------------------------------------------------------------------------------
    9    -344.7578471776909623    -1.82e-02  1.68e-05  2.56e-04  1.39e-04     2.1
               *** Restarting incremental Fock matrix formation ***
   10    -344.7578474249398255    -2.47e-07  1.00e-05  1.59e-04  2.30e-05     2.1
                  *** Gradient check signals convergence ***

               *****************************************************
               *                     SUCCESS                       *
               *           SCF CONVERGED AFTER  10 CYCLES          *
               *****************************************************


SMD CDS free energy correction energy :                 2.96841     Kcal/mol
Total Energy after SMD CDS correction =              -344.753116961 Eh
             **** ENERGY FILE WAS UPDATED (sp_solv.en.tmp) ****

----------------
TOTAL SCF ENERGY
----------------

Total Energy       :       -344.75311696065046 Eh           -9381.20924 eV

Components:
Nuclear Repulsion  :        260.64774864760449 Eh            7092.58582 eV
Electronic Energy  :       -605.37276294908600 Eh          -16473.03035 eV
One Electron Energy:       -987.83782550524575 Eh          -26880.43381 eV
Two Electron Energy:        382.46506255615975 Eh           10407.40345 eV
CPCM Dielectric    :         -0.03283312345836 Eh              -0.89343 eV
SMD CDS (Gcds)     :          0.00473046428935 Eh               0.12872 eV

Virial components:
Potential Energy   :       -688.10517237132785 Eh          -18724.29366 eV
Kinetic Energy     :        343.35205541067745 Eh            9343.08442 eV
Virial Ratio       :          2.00408053928292

DFT components:
N(Alpha)           :       25.000006474345 electrons
N(Beta)            :       25.000006474345 electrons
N(Total)           :       50.000012948690 electrons
E(X)               :      -43.327026044285 Eh       
E(C)               :       -1.628550409226 Eh       
E(XC)              :      -44.955576453511 Eh       

CPCM Solvation Model Properties:
Surface-charge          :         -0.04117596267543
Corrected charge        :         -0.00000000000000
Outlying charge corr.   :          0.00015019429021 Eh               0.00409 eV
Free-energy (cav+disp)  :          0.00473046428935 Eh               0.12872 eV

---------------
SCF CONVERGENCE
---------------

  Last Energy change         ...    2.4725e-07  Tolerance :   1.0000e-06
  Last MAX-Density change    ...    1.5871e-04  Tolerance :   1.0000e-05
  Last RMS-Density change    ...    1.0028e-05  Tolerance :   1.0000e-06
  Last DIIS Error            ...    1.3850e-04  Tolerance :   1.0000e-06
  Last Orbital Gradient      ...    2.2977e-05  Tolerance :   3.3300e-04
  Last Orbital Rotation      ...    5.8110e-05  Tolerance :   3.3300e-04


----------------
ORBITAL ENERGIES
----------------

  NO   OCC          E(Eh)            E(eV) 
   0   2.0000     -18.957376      -515.8564 
   1   2.0000     -18.955049      -515.7931 
   2   2.0000     -18.952847      -515.7332 
   3   2.0000     -10.080151      -274.2948 
   4   2.0000     -10.074407      -274.1385 
   5   2.0000     -10.071047      -274.0471 
   6   2.0000      -1.007708       -27.4211 
   7   2.0000      -0.990431       -26.9510 
   8   2.0000      -0.977774       -26.6066 
   9   2.0000      -0.721533       -19.6339 
  10   2.0000      -0.633706       -17.2440 
  11   2.0000      -0.584834       -15.9141 
  12   2.0000      -0.494322       -13.4512 
  13   2.0000      -0.479251       -13.0411 
  14   2.0000      -0.440597       -11.9893 
  15   2.0000      -0.432516       -11.7694 
  16   2.0000      -0.410902       -11.1812 
  17   2.0000      -0.399784       -10.8787 
  18   2.0000      -0.361661        -9.8413 
  19   2.0000      -0.335999        -9.1430 
  20   2.0000      -0.310516        -8.4496 
  21   2.0000      -0.296601        -8.0709 
  22   2.0000      -0.264554        -7.1989 
  23   2.0000      -0.249863        -6.7991 
  24   2.0000      -0.228683        -6.2228 
  25   0.0000       0.057944         1.5767 
  26   0.0000       0.084592         2.3019 
  27   0.0000       0.099401         2.7048 
  28   0.0000       0.117488         3.1970 
  29   0.0000       0.126486         3.4419 
  30   0.0000       0.143760         3.9119 
  31   0.0000       0.153780         4.1846 
  32   0.0000       0.169533         4.6132 
  33   0.0000       0.186611         5.0780 
  34   0.0000       0.194770         5.3000 
  35   0.0000       0.209269         5.6945 
*Only the first 10 virtual orbitals were printed.

                    ********************************
                    * MULLIKEN POPULATION ANALYSIS *
                    ********************************

-----------------------
MULLIKEN ATOMIC CHARGES
-----------------------
   0 C :   -0.175237
   1 C :    0.032941
   2 C :   -0.214449
   3 O :   -0.487392
   4 O :   -0.490795
   5 O :   -0.501121
   6 H :    0.154668
   7 H :    0.148599
   8 H :    0.158236
   9 H :    0.165456
  10 H :    0.152682
  11 H :    0.352256
  12 H :    0.352471
  13 H :    0.351686
Sum of atomic charges:    0.0000000

--------------------------------
MULLIKEN REDUCED ORBITAL CHARGES
--------------------------------
  0 C s       :     3.312990  s :     3.312990
      pz      :     0.973814  p :     2.804609
      px      :     0.816142
      py      :     1.014653
      dz2     :     0.015159  d :     0.057638
      dxz     :     0.013098
      dyz     :     0.005249
      dx2y2   :     0.014694
      dxy     :     0.009439

  1 C s       :     3.142412  s :     3.142412
      pz      :     1.085408  p :     2.758868
      px      :     0.952574
      py      :     0.720886
      dz2     :     0.012616  d :     0.065780
      dxz     :     0.008002
      dyz     :     0.010635
      dx2y2   :     0.017233
      dxy     :     0.017293

  2 C s       :     3.340141  s :     3.340141
      pz      :     1.007088  p :     2.816289
      px      :     0.752079
      py      :     1.057122
      dz2     :     0.013003  d :     0.058019
      dxz     :     0.011263
      dyz     :     0.003485
      dx2y2   :     0.015777
      dxy     :     0.014492

  3 O s       :     3.750078  s :     3.750078
      pz      :     1.387729  p :     4.717700
      px      :     1.459750
      py      :     1.870220
      dz2     :     0.007805  d :     0.019614
      dxz     :     0.001991
      dyz     :     0.002181
      dx2y2   :     0.005255
      dxy     :     0.002383

  4 O s       :     3.748385  s :     3.748385
      pz      :     1.545085  p :     4.724728
      px      :     1.850387
      py      :     1.329257
      dz2     :     0.007457  d :     0.017682
      dxz     :     0.002680
      dyz     :    -0.001326
      dx2y2   :     0.004737
      dxy     :     0.004134

  5 O s       :     3.755989  s :     3.755989
      pz      :     1.768217  p :     4.724291
      px      :     1.584871
      py      :     1.371203
      dz2     :     0.005825  d :     0.020841
      dxz     :     0.003487
      dyz     :     0.000894
      dx2y2   :     0.006712
      dxy     :     0.003922

  6 H s       :     0.827755  s :     0.827755
      pz      :     0.003121  p :     0.017577
      px      :     0.002958
      py      :     0.011498

  7 H s       :     0.834280  s :     0.834280
      pz      :     0.010842  p :     0.017122
      px      :     0.002675
      py      :     0.003604

  8 H s       :     0.824636  s :     0.824636
      pz      :     0.011163  p :     0.017128
      px      :     0.003198
      py      :     0.002767

  9 H s       :     0.817190  s :     0.817190
      pz      :     0.011338  p :     0.017354
      px      :     0.002341
      py      :     0.003675

 10 H s       :     0.830014  s :     0.830014
      pz      :     0.003206  p :     0.017304
      px      :     0.002721
      py      :     0.011377

 11 H s       :     0.604891  s :     0.604891
      pz      :     0.022694  p :     0.042853
      px      :     0.008144
      py      :     0.012015

 12 H s       :     0.604882  s :     0.604882
      pz      :     0.020613  p :     0.042646
      px      :     0.013165
      py      :     0.008868

 13 H s       :     0.605575  s :     0.605575
      pz      :     0.011449  p :     0.042739
      px      :     0.009772
      py      :     0.021518


------------------------
MULLIKEN OVERLAP CHARGES
------------------------
B(  0-C ,  1-C ) :   0.4928 B(  0-C ,  2-C ) :  -0.1214 B(  0-C ,  4-O ) :  -0.1512 
B(  0-C ,  5-O ) :   0.4359 B(  0-C ,  6-H ) :   0.8011 B(  0-C ,  7-H ) :   0.8749 
B(  0-C , 13-H ) :  -0.0856 B(  1-C ,  2-C ) :   0.4664 B(  1-C ,  3-O ) :  -0.1349 
B(  1-C ,  4-O ) :   0.4432 B(  1-C ,  5-O ) :  -0.0815 B(  1-C ,  6-H ) :  -0.0561 
B(  1-C ,  7-H ) :  -0.1169 B(  1-C ,  8-H ) :   0.8068 B(  1-C ,  9-H ) :  -0.0532 
B(  1-C , 10-H ) :  -0.1504 B(  1-C , 12-H ) :  -0.1313 B(  2-C ,  3-O ) :   0.4570 
B(  2-C ,  4-O ) :  -0.1101 B(  2-C ,  9-H ) :   0.8441 B(  2-C , 10-H ) :   0.8677 
B(  2-C , 11-H ) :  -0.0794 B(  3-O ,  9-H ) :  -0.1090 B(  3-O , 10-H ) :  -0.0960 
B(  3-O , 11-H ) :   0.6323 B(  4-O ,  8-H ) :  -0.1259 B(  4-O , 12-H ) :   0.6424 
B(  5-O ,  6-H ) :  -0.0928 B(  5-O ,  7-H ) :  -0.1191 B(  5-O , 13-H ) :   0.6181 
B(  6-H ,  7-H ) :  -0.0657 B(  9-H , 10-H ) :  -0.0622 


                     *******************************
                     * LOEWDIN POPULATION ANALYSIS *
                     *******************************

----------------------
LOEWDIN ATOMIC CHARGES
----------------------
   0 C :    0.017985
   1 C :    0.065618
   2 C :    0.019237
   3 O :   -0.629844
   4 O :   -0.609321
   5 O :   -0.640499
   6 H :    0.187609
   7 H :    0.170571
   8 H :    0.191778
   9 H :    0.188451
  10 H :    0.175950
  11 H :    0.285801
  12 H :    0.289422
  13 H :    0.287242

-------------------------------
LOEWDIN REDUCED ORBITAL CHARGES
-------------------------------
  0 C s       :     2.875297  s :     2.875297
      pz      :     1.021396  p :     2.977193
      px      :     0.921818
      py      :     1.033979
      dz2     :     0.035116  d :     0.129526
      dxz     :     0.028967
      dyz     :     0.010181
      dx2y2   :     0.035766
      dxy     :     0.019496

  1 C s       :     2.846570  s :     2.846570
      pz      :     1.076628  p :     2.945783
      px      :     1.002079
      py      :     0.867076
      dz2     :     0.027999  d :     0.142029
      dxz     :     0.016853
      dyz     :     0.023503
      dx2y2   :     0.037450
      dxy     :     0.036224

  2 C s       :     2.871244  s :     2.871244
      pz      :     1.040043  p :     2.978794
      px      :     0.878598
      py      :     1.060153
      dz2     :     0.031167  d :     0.130724
      dxz     :     0.023851
      dyz     :     0.006295
      dx2y2   :     0.037609
      dxy     :     0.031802

  3 O s       :     3.512013  s :     3.512013
      pz      :     1.454066  p :     4.844894
      px      :     1.541645
      py      :     1.849183
      dz2     :     0.072142  d :     0.272937
      dxz     :     0.064117
      dyz     :     0.011797
      dx2y2   :     0.060155
      dxy     :     0.064725

  4 O s       :     3.506503  s :     3.506503
      pz      :     1.579468  p :     4.819163
      px      :     1.791152
      py      :     1.448544
      dz2     :     0.039998  d :     0.283654
      dxz     :     0.015768
      dyz     :     0.083019
      dx2y2   :     0.075910
      dxy     :     0.068960

  5 O s       :     3.513737  s :     3.513737
      pz      :     1.780062  p :     4.851955
      px      :     1.627138
      py      :     1.444755
      dz2     :     0.055159  d :     0.274807
      dxz     :     0.051394
      dyz     :     0.028062
      dx2y2   :     0.083472
      dxy     :     0.056720

  6 H s       :     0.771735  s :     0.771735
      pz      :     0.006932  p :     0.040656
      px      :     0.007501
      py      :     0.026223

  7 H s       :     0.788998  s :     0.788998
      pz      :     0.025415  p :     0.040431
      px      :     0.006353
      py      :     0.008663

  8 H s       :     0.768456  s :     0.768456
      pz      :     0.026890  p :     0.039766
      px      :     0.007113
      py      :     0.005762

  9 H s       :     0.771608  s :     0.771608
      pz      :     0.026147  p :     0.039941
      px      :     0.005335
      py      :     0.008459

 10 H s       :     0.782796  s :     0.782796
      pz      :     0.007470  p :     0.041254
      px      :     0.006480
      py      :     0.027304

 11 H s       :     0.591119  s :     0.591119
      pz      :     0.068458  p :     0.123080
      px      :     0.021992
      py      :     0.032630

 12 H s       :     0.587708  s :     0.587708
      pz      :     0.062798  p :     0.122870
      px      :     0.036161
      py      :     0.023911

 13 H s       :     0.590024  s :     0.590024
      pz      :     0.030543  p :     0.122733
      px      :     0.027392
      py      :     0.064799


---------------------------------
LOEWDIN BOND ORDERS (THRESH 0.050000)
---------------------------------
B(  0-C ,  1-C ) :   0.9376 B(  0-C ,  2-C ) :   0.0828 B(  0-C ,  4-O ) :   0.1596 
B(  0-C ,  5-O ) :   1.4564 B(  0-C ,  6-H ) :   0.8184 B(  0-C ,  7-H ) :   0.8246 
B(  1-C ,  2-C ) :   0.9469 B(  1-C ,  3-O ) :   0.1574 B(  1-C ,  4-O ) :   1.4161 
B(  1-C ,  5-O ) :   0.1603 B(  1-C ,  8-H ) :   0.7872 B(  2-C ,  3-O ) :   1.4585 
B(  2-C ,  4-O ) :   0.1452 B(  2-C ,  9-H ) :   0.8160 B(  2-C , 10-H ) :   0.8214 
B(  3-O ,  4-O ) :   0.0640 B(  3-O ,  9-H ) :   0.0997 B(  3-O , 10-H ) :   0.1041 
B(  3-O , 11-H ) :   0.9597 B(  4-O ,  5-O ) :   0.0670 B(  4-O ,  8-H ) :   0.0956 
B(  4-O , 12-H ) :   0.9520 B(  5-O ,  6-H ) :   0.0988 B(  5-O ,  7-H ) :   0.1039 
B(  5-O , 13-H ) :   0.9489 

------------------------------------------
LOEWDIN REDUCED ORBITAL POPULATIONS PER MO
-------------------------------------------
THRESHOLD FOR PRINTING IS 0.1%%
                      0         1         2         3         4         5   
                 -18.95738 -18.95505 -18.95285 -10.08015 -10.07441 -10.07105
                   2.00000   2.00000   2.00000   2.00000   2.00000   2.00000
                  --------  --------  --------  --------  --------  --------
 0 C  s               0.0       0.0       0.0       0.0       0.0      99.4
 1 C  s               0.0       0.0       0.0      99.3       0.0       0.0
 2 C  s               0.0       0.0       0.0       0.0      99.4       0.0
 3 O  s               0.0      99.9       0.0       0.0       0.0       0.0
 3 O  px              0.0       0.0       0.0       0.0       0.1       0.0
 3 O  dx2y2           0.0       0.0       0.0       0.0       0.1       0.0
 4 O  s              99.9       0.0       0.0       0.0       0.0       0.0
 4 O  py              0.0       0.0       0.0       0.1       0.0       0.0
 4 O  dx2y2           0.0       0.0       0.0       0.2       0.0       0.0
 5 O  s               0.0       0.0      99.9       0.0       0.0       0.0
 5 O  dxz             0.0       0.0       0.0       0.0       0.0       0.1

                      6         7         8         9        10        11   
                  -1.00771  -0.99043  -0.97777  -0.72153  -0.63371  -0.58483
                   2.00000   2.00000   2.00000   2.00000   2.00000   2.00000
                  --------  --------  --------  --------  --------  --------
 0 C  s               4.2       3.8       2.0      10.5      14.2       5.1
 0 C  pz              1.0       1.0       0.4       0.0       0.3       2.9
 0 C  px              0.2       2.4       3.2       4.9       0.1       2.3
 0 C  py              1.1       1.1       0.4       0.4       0.5       1.2
 0 C  dxz             0.0       0.1       0.2       0.1       0.0       0.1
 0 C  dxy             0.0       0.1       0.2       0.0       0.0       0.0
 1 C  s               8.6       0.0       1.7      18.2       0.0       8.8
 1 C  pz              0.2       0.0       0.0       0.9       0.1       7.2
 1 C  px              0.1       2.8       0.3       0.2       8.9       0.0
 1 C  py              3.5       0.2       5.1       5.1       0.3       0.6
 1 C  dz2             0.1       0.0       0.1       0.0       0.0       0.0
 1 C  dxz             0.0       0.0       0.0       0.0       0.2       0.0
 1 C  dx2y2           0.2       0.0       0.4       0.1       0.0       0.1
 1 C  dxy             0.0       0.0       0.0       0.0       0.1       0.0
 2 C  s               4.3       4.6       1.2      11.4      15.4       2.8
 2 C  pz              0.7       0.7       0.1       0.0       0.9       3.6
 2 C  px              0.5       4.8       2.6       5.3       0.1       1.0
 2 C  py              1.0       0.2       0.1       0.1       0.1       0.6
 2 C  dxz             0.0       0.2       0.1       0.1       0.0       0.0
 2 C  dx2y2           0.1       0.2       0.1       0.0       0.0       0.0
 3 O  s              12.9      34.1      14.4       2.3       2.5       0.1
 3 O  pz              0.0       0.2       0.1       1.1       6.4       4.5
 3 O  px              0.6       0.9       0.3       2.3       6.6       1.2
 3 O  py              0.1       0.2       0.1       0.0       0.2       0.1
 3 O  dz2             0.0       0.0       0.0       0.2       0.3       0.0
 3 O  dxz             0.0       0.0       0.0       0.1       0.5       0.4
 3 O  dx2y2           0.1       0.1       0.0       0.6       0.6       0.0
 3 O  dxy             0.0       0.0       0.1       0.1       0.2       0.1
 4 O  s              31.5       0.2      28.8       4.3       0.0       0.6
 4 O  pz              0.5       0.0       0.5       0.4       0.0       6.8
 4 O  px              0.0       0.0       0.0       0.4       0.5       1.8
 4 O  py              1.1       0.0       0.4       5.2       0.0      12.7
 4 O  dz2             0.1       0.0       0.0       0.5       0.0       0.5
 4 O  dyz             0.0       0.0       0.0       0.1       0.0       0.2
 4 O  dx2y2           0.1       0.0       0.1       1.2       0.0       0.5
 4 O  dxy             0.0       0.2       0.0       0.1       0.4       0.0
 5 O  s              12.4      26.7      22.1       2.3       2.6       0.1
 5 O  pz              0.1       0.1       0.1       0.5       2.3       2.7
 5 O  px              0.6       0.9       0.6       1.2       2.7       0.3
 5 O  py              0.0       0.1       0.1       1.5       6.2       5.3
 5 O  dz2             0.0       0.0       0.0       0.1       0.0       0.1
 5 O  dxz             0.0       0.1       0.0       0.2       0.5       0.4
 5 O  dyz             0.0       0.0       0.0       0.1       0.1       0.1
 5 O  dx2y2           0.1       0.0       0.0       0.3       0.2       0.1
 5 O  dxy             0.0       0.0       0.0       0.4       0.6       0.2
 6 H  s               0.3       0.3       0.2       2.2       4.3       2.9
 6 H  py              0.0       0.0       0.0       0.2       0.4       0.2
 7 H  s               0.3       0.3       0.1       1.8       3.6       2.6
 7 H  pz              0.0       0.0       0.0       0.1       0.3       0.2
 8 H  s               0.6       0.0       0.1       3.2       0.0       5.9
 8 H  pz              0.0       0.0       0.0       0.3       0.0       0.4
 9 H  s               0.3       0.3       0.1       2.1       4.9       2.3
 9 H  pz              0.0       0.0       0.0       0.2       0.4       0.2
10 H  s               0.3       0.3       0.1       2.2       3.9       1.1
10 H  py              0.0       0.0       0.0       0.2       0.3       0.1
11 H  s               2.1       5.6       2.5       0.9       3.1       1.2
11 H  pz              0.4       1.2       0.5       0.2       0.4       0.1
12 H  s               5.1       0.0       4.9       1.7       0.0       5.0
12 H  pz              0.9       0.0       0.9       0.3       0.0       0.5
12 H  px              0.1       0.0       0.1       0.0       0.0       0.1
12 H  py              0.1       0.0       0.1       0.0       0.0       0.0
13 H  s               2.3       4.4       3.5       0.9       2.6       1.7
13 H  px              0.0       0.0       0.0       0.0       0.1       0.0
13 H  py              0.4       0.9       0.8       0.2       0.3       0.1

                     12        13        14        15        16        17   
                  -0.49432  -0.47925  -0.44060  -0.43252  -0.41090  -0.39978
                   2.00000   2.00000   2.00000   2.00000   2.00000   2.00000
                  --------  --------  --------  --------  --------  --------
 0 C  s               0.1       0.8       0.2       0.0       1.3       0.5
 0 C  pz              0.8       5.6       1.5       8.8      16.3       0.2
 0 C  px              5.6       7.9       1.2       3.4       0.5       0.4
 0 C  py              0.1       4.8       0.0       2.2       3.6      22.9
 0 C  dxz             0.1       0.1       0.1       0.1       0.0       0.0
 0 C  dyz             0.0       0.0       0.0       0.0       0.1       0.0
 0 C  dx2y2           0.0       0.0       0.1       0.0       0.3       0.1
 0 C  dxy             0.0       0.1       0.0       0.0       0.0       0.1
 1 C  s               0.3       0.1       0.7       1.0       0.2       0.1
 1 C  pz              4.4       6.6       4.0       1.7       2.9       0.0
 1 C  px              0.0       4.2      11.3       3.6       2.8       0.0
 1 C  py              7.4       3.6       0.1       7.3       0.3       0.2
 1 C  dyz             0.0       0.0       0.0       0.1       0.0       0.1
 1 C  dx2y2           0.1       0.0       0.0       0.4       0.0       0.1
 1 C  dxy             0.0       0.0       0.0       0.0       0.0       0.2
 2 C  s               0.2       0.4       0.4       1.3       0.2       0.3
 2 C  pz              0.5       4.9       0.4       1.5      12.2      10.2
 2 C  px             11.6       1.8       1.7       2.1       1.7       0.7
 2 C  py              1.1       2.4      25.7       4.6       0.0       0.2
 2 C  dx2y2           0.1       0.1       0.0       0.4       0.0       0.0
 2 C  dxy             0.1       0.0       0.1       0.1       0.0       0.0
 3 O  s               0.2       1.1       0.0       0.9       0.5       1.2
 3 O  pz             19.4       6.3       0.5      10.9       0.3       0.8
 3 O  px              4.0       0.4       0.4       1.4      11.1      10.2
 3 O  py              0.1       0.5       9.2       1.7       0.4       2.0
 3 O  dz2             0.1       0.1       0.0       0.1       0.3       0.2
 3 O  dxz             0.0       0.1       0.0       0.2       0.6       0.2
 3 O  dyz             0.1       0.0       0.1       0.0       0.0       0.0
 3 O  dx2y2           0.0       0.1       0.3       0.0       0.0       0.0
 3 O  dxy             0.0       0.1       1.2       0.2       0.0       0.1
 4 O  s               0.3       0.4       2.6       0.4       0.6       0.8
 4 O  pz              9.1       0.5       5.3       5.7       4.6       5.8
 4 O  px              1.2       3.5       6.7       1.3       1.0       0.1
 4 O  py              6.1       1.8       5.8       8.9       0.6       0.3
 4 O  dxz             0.0       0.1       0.0       0.2       0.0       0.0
 4 O  dyz             0.0       0.6       0.3       0.3       0.1       0.0
 4 O  dx2y2           0.0       0.2       0.3       0.1       0.0       0.0
 4 O  dxy             0.0       0.2       0.6       0.1       0.3       0.1
 5 O  s               0.0       1.5       1.0       0.1       0.1       1.4
 5 O  pz              1.6       0.3       1.0       5.7       0.5       7.7
 5 O  px              0.7       0.8       2.7       0.5       4.9      14.0
 5 O  py              9.5      20.3       1.9       0.3       8.6       0.2
 5 O  dz2             0.0       0.0       0.2       0.4       0.2       0.1
 5 O  dxz             0.0       0.3       0.0       0.2       0.2       0.1
 5 O  dyz             0.0       0.0       0.0       0.0       0.3       0.2
 5 O  dx2y2           0.1       0.1       0.0       0.0       0.5       0.5
 5 O  dxy             0.0       0.2       0.0       0.2       0.0       0.2
 6 H  s               0.0       0.7       0.1       0.6       3.7      10.2
 6 H  pz              0.0       0.0       0.0       0.0       0.1       0.0
 6 H  py              0.0       0.0       0.0       0.0       0.1       0.2
 7 H  s               0.2       4.5       0.2       3.0       7.3       0.3
 7 H  pz              0.0       0.2       0.0       0.1       0.1       0.1
 7 H  py              0.0       0.0       0.0       0.0       0.2       0.1
 8 H  s               0.1       2.4       0.6       3.6       0.6       0.0
 8 H  pz              0.0       0.1       0.0       0.2       0.0       0.0
 9 H  s               0.1       0.8       0.0       1.5       5.7       4.1
 9 H  pz              0.0       0.0       0.0       0.0       0.1       0.1
 9 H  py              0.0       0.0       0.2       0.1       0.0       0.0
10 H  s               1.3       2.1       9.2       4.2       0.0       0.1
10 H  py              0.1       0.1       0.3       0.1       0.0       0.0
11 H  s               5.5       1.1       0.0       3.2       0.4       0.0
11 H  pz              0.2       0.0       0.0       0.1       0.0       0.0
11 H  px              0.0       0.0       0.0       0.0       0.2       0.2
11 H  py              0.0       0.0       0.1       0.0       0.0       0.0
12 H  s               3.8       0.3       0.3       3.7       0.2       0.9
12 H  pz              0.2       0.1       0.0       0.1       0.0       0.0
12 H  py              0.0       0.0       0.1       0.0       0.0       0.0
13 H  s               2.7       4.4       0.7       0.4       1.9       0.3
13 H  pz              0.0       0.0       0.0       0.0       0.0       0.1
13 H  px              0.1       0.0       0.0       0.0       0.2       0.2
13 H  py              0.1       0.1       0.0       0.0       0.0       0.0

                     18        19        20        21        22        23   
                  -0.36166  -0.33600  -0.31052  -0.29660  -0.26455  -0.24986
                   2.00000   2.00000   2.00000   2.00000   2.00000   2.00000
                  --------  --------  --------  --------  --------  --------
 0 C  s               0.0       0.4       0.1       0.1       0.4       0.1
 0 C  pz              1.9       3.3       0.4       0.6       0.3       2.0
 0 C  px              1.6       0.1       3.6       0.3       3.7       0.0
 0 C  py              4.1       1.6       3.6       0.1       3.2       0.7
 0 C  dz2             0.1       0.0       0.0       0.1       0.5       0.6
 0 C  dx2y2           0.0       0.2       0.7       0.1       0.1       0.0
 0 C  dxy             0.2       0.0       0.0       0.0       0.0       0.1
 1 C  s               0.5       1.4       0.2       0.1       0.0       1.0
 1 C  pz              8.4       1.9       1.0      10.4       0.7       2.8
 1 C  px              0.9       0.1       3.1       1.1       0.1       0.3
 1 C  py              4.4       0.4       1.8       0.9       0.1       1.4
 1 C  dz2             0.4       0.2       0.0       0.4       0.0       0.0
 1 C  dxz             0.0       0.0       0.0       0.0       0.1       0.0
 1 C  dyz             0.0       0.3       0.0       0.4       0.1       0.1
 1 C  dx2y2           0.1       0.1       0.0       0.0       0.2       0.0
 1 C  dxy             0.0       0.0       0.3       0.1       0.3       0.0
 2 C  s               0.3       0.7       0.1       0.1       0.1       0.2
 2 C  pz              4.2       0.2       0.0      10.7       0.0       0.0
 2 C  px              1.6       0.2       0.2       6.0       0.3       0.2
 2 C  py              1.6       5.3       2.0       0.8       0.1       4.1
 2 C  dz2             0.2       0.2       0.0       0.9       0.0       0.0
 2 C  dxz             0.2       0.2       0.0       0.1       0.0       0.0
 2 C  dx2y2           0.0       0.0       0.1       0.0       0.0       0.7
 2 C  dxy             0.0       0.0       0.0       0.0       0.1       0.7
 3 O  s               0.6       1.9       0.2       2.8       0.0       0.0
 3 O  pz              0.3      11.1       1.1       7.5       0.1       0.8
 3 O  px              6.5      14.4       4.3       5.5       0.1       2.1
 3 O  py              7.7       2.2       0.0       8.8       7.8      42.1
 3 O  dz2             0.1       0.3       0.2       1.7       0.0       0.0
 3 O  dxz             0.0       0.2       0.0       0.5       0.0       0.0
 3 O  dx2y2           0.1       0.1       0.0       0.0       0.1       0.1
 3 O  dxy             0.1       0.1       0.0       0.1       0.2       0.6
 4 O  s               0.8       1.2       1.0       1.5       0.1       0.3
 4 O  pz              8.7       9.7       2.9       6.8       8.3       2.2
 4 O  px              2.7       0.3      15.0       0.4      37.4       0.4
 4 O  py             11.7       2.2      12.7       0.9       0.1       0.8
 4 O  dz2             0.0       0.2       0.0       0.4       0.0       0.0
 4 O  dxz             0.0       0.0       0.1       0.1       0.0       0.0
 4 O  dyz             0.3       0.4       0.2       1.0       0.2       0.4
 4 O  dx2y2           0.0       0.3       0.3       0.0       0.0       0.4
 4 O  dxy             0.0       0.2       0.0       0.1       0.4       0.0
 5 O  s               0.7       1.5       2.8       0.0       0.4       0.0
 5 O  pz              7.9       2.5       0.2       0.2      19.3      18.0
 5 O  px              3.2      17.1      21.1       0.6       0.6       0.6
 5 O  py              1.4       0.9       7.6       0.1       3.7       2.5
 5 O  dz2             0.2       0.3       0.1       0.0       0.3       0.3
 5 O  dxz             0.0       0.0       0.0       0.0       0.1       0.1
 5 O  dyz             0.0       0.1       0.2       0.0       0.0       0.0
 5 O  dx2y2           0.0       0.3       1.1       0.0       0.4       0.1
 5 O  dxy             0.0       0.0       0.2       0.0       0.0       0.0
 6 H  s               2.1       1.9       4.8       0.1       3.7       0.4
 7 H  s               1.8       1.8       0.7       0.9       3.1       4.1
 8 H  s               6.7       4.2       0.0       8.7       0.4       0.7
 8 H  pz              0.1       0.1       0.0       0.0       0.0       0.0
 9 H  s               3.9       1.5       0.2      10.6       0.0       0.1
10 H  s               0.4       1.7       1.7       2.7       0.1       6.0
11 H  s               0.0       1.3       0.1       2.3       0.0       0.0
11 H  px              0.1       0.3       0.1       0.1       0.0       0.0
11 H  py              0.1       0.1       0.0       0.1       0.1       0.8
12 H  s               0.1       1.2       0.4       1.4       0.1       0.2
12 H  px              0.1       0.0       0.2       0.0       0.7       0.0
12 H  py              0.2       0.1       0.3       0.1       0.0       0.0
13 H  s               0.0       0.9       2.3       0.0       0.4       0.0
13 H  pz              0.1       0.0       0.0       0.0       0.4       0.3
13 H  px              0.0       0.2       0.1       0.0       0.0       0.0
13 H  py              0.0       0.1       0.1       0.0       0.1       0.0

                     24        25        26        27        28        29   
                  -0.22868   0.05794   0.08459   0.09940   0.11749   0.12649
                   2.00000   0.00000   0.00000   0.00000   0.00000   0.00000
                  --------  --------  --------  --------  --------  --------
 0 C  s               0.4       2.0       3.3       3.0       1.6       8.2
 0 C  pz              3.7       2.9       0.9       3.7       3.7       5.3
 0 C  px              4.5       3.1       7.9      11.6       0.1       0.6
 0 C  py              0.1       4.5       1.1       1.5       6.5       0.4
 0 C  dz2             0.4       0.0       0.1       0.1       0.3       0.4
 0 C  dxz             0.3       0.2       0.3       0.9       0.1       0.0
 0 C  dyz             0.0       0.2       0.1       0.2       0.0       0.7
 0 C  dx2y2           0.1       0.2       0.0       0.0       0.0       0.0
 0 C  dxy             0.0       1.1       0.3       0.2       0.0       0.1
 1 C  s               0.0       2.4       0.2       1.7       3.3       3.1
 1 C  pz              0.2       1.2       0.7       0.3      16.7       0.3
 1 C  px             10.2       0.5       7.6       0.5       0.4       1.5
 1 C  py              0.3       7.1       2.2       2.4       2.0      18.5
 1 C  dz2             0.0       0.0       0.0       0.4       1.3       1.1
 1 C  dxz             0.2       0.0       0.8       0.0       0.1       0.0
 1 C  dyz             0.0       0.0       0.1       0.1       0.2       0.1
 1 C  dx2y2           0.1       1.3       0.0       0.0       0.0       0.9
 1 C  dxy             0.6       0.2       0.1       0.0       0.0       0.2
 2 C  s               0.2       2.8       2.8       7.0       0.1       3.5
 2 C  pz              0.9       3.3       1.7       3.9       9.2       1.8
 2 C  px              1.6       8.4       9.7       4.4       6.0       0.3
 2 C  py              2.7       1.6       1.7       0.3       6.2       0.3
 2 C  dz2             0.0       0.0       0.1       0.1       0.9       0.2
 2 C  dxz             0.1       0.3       0.6       0.6       0.3       0.0
 2 C  dyz             0.0       0.1       0.0       0.0       0.0       0.3
 2 C  dx2y2           0.1       1.3       0.1       0.0       0.0       0.1
 2 C  dxy             0.3       0.2       0.1       0.1       0.0       0.2
 3 O  s               0.1       5.3       5.5       0.6       0.4       0.1
 3 O  pz              1.3       0.4       2.4       0.2       2.0       0.7
 3 O  px              4.8       2.5       1.3       0.9       0.7       0.5
 3 O  py              9.2       0.0       0.7       1.1       0.1       0.0
 3 O  dz2             0.0       0.1       3.4       0.0       0.3       1.2
 3 O  dxz             0.0       0.0       0.3       1.2       0.1       0.4
 3 O  dyz             0.1       0.3       0.1       0.5       0.0       1.8
 3 O  dx2y2           0.6       0.2       0.1       1.1       0.1       0.0
 3 O  dxy             0.1       0.0       0.0       0.4       0.4       0.0
 4 O  s               0.0       5.4       0.8       3.2       0.0       4.0
 4 O  pz              1.2       1.3       0.4       2.9       2.1       0.7
 4 O  px             17.0       0.0       1.8       1.1       0.8       0.2
 4 O  py              1.1       1.5       0.5       1.1       0.5       3.7
 4 O  dz2             0.0       0.2       0.1       5.1       0.1       0.1
 4 O  dxz             0.0       0.1       0.9       0.6       0.4       0.3
 4 O  dyz             0.0       0.1       0.1       0.4       1.6       0.7
 4 O  dx2y2           0.2       0.4       0.1       0.0       0.0       3.0
 4 O  dxy             0.5       0.1       0.1       0.1       0.1       0.8
 5 O  s               0.1       4.2       4.2       2.9       0.2       1.0
 5 O  pz             18.3       0.1       0.2       1.4       0.8       0.1
 5 O  px              8.3       2.5       1.0       1.2       0.2       0.9
 5 O  py              2.0       0.3       0.8       0.3       0.3       0.4
 5 O  dz2             0.4       0.4       0.0       0.0       0.2       0.2
 5 O  dxz             0.0       0.0       0.9       0.6       0.2       0.3
 5 O  dyz             0.1       0.0       0.0       0.4       0.0       3.2
 5 O  dx2y2           0.4       0.4       0.9       0.0       0.3       0.7
 5 O  dxy             0.4       0.2       0.4       0.5       1.1       0.0
 6 H  s               0.0       1.4       0.2       1.1       1.7       0.7
 6 H  pz              0.1       0.1       0.0       0.1       0.0       0.7
 6 H  px              0.1       0.3       0.4       0.3       0.0       0.0
 6 H  py              0.0       0.0       0.0       0.5       0.8       0.3
 7 H  s               2.8       0.1       0.8       0.6       0.5       8.7
 7 H  pz              0.0       0.0       0.3       0.3       0.2       1.9
 7 H  px              0.0       0.0       0.2       0.7       0.0       0.0
 7 H  py              0.0       0.3       0.2       0.0       0.0       0.8
 8 H  s               0.5       0.5       0.1       0.9       7.9       0.8
 8 H  pz              0.0       0.1       0.1       0.5       3.1       0.0
 8 H  px              0.1       0.0       0.7       0.0       0.0       0.1
 8 H  py              0.0       0.1       0.2       0.1       0.0       1.4
 9 H  s               0.0       0.2       0.6       1.6       3.0       4.7
 9 H  pz              0.0       0.0       0.1       0.7       1.0       1.1
 9 H  px              0.0       0.2       0.5       0.3       0.2       0.0
 9 H  py              0.0       0.3       0.0       0.3       0.1       0.2
10 H  s               1.6       1.9       0.3       2.3       1.0       0.4
10 H  pz              0.0       0.2       0.1       0.0       0.1       0.5
10 H  px              0.0       0.3       0.2       0.3       0.2       0.3
10 H  py              0.0       0.2       0.3       0.6       0.4       0.1
11 H  s               0.0       5.4      12.3       0.2       1.4       0.9
11 H  pz              0.0       1.3       3.1       0.1       0.2       0.2
11 H  py              0.2       0.0       0.1       0.0       0.0       0.1
12 H  s               0.0       7.5       1.2      12.9       4.1       0.8
12 H  pz              0.0       1.1       0.2       2.7       0.8       0.2
12 H  px              0.3       0.3       0.1       0.4       0.1       0.0
12 H  py              0.0       0.2       0.0       0.2       0.1       0.5
13 H  s               0.1       5.7       6.5       0.7       0.8       1.0
13 H  pz              0.3       0.1       0.1       0.1       0.0       0.0
13 H  px              0.2       0.0       0.1       0.0       0.1       0.0
13 H  py              0.0       1.4       1.7       0.3       0.1       0.4

                     30        31        32        33        34        35   
                   0.14376   0.15378   0.16953   0.18661   0.19477   0.20927
                   0.00000   0.00000   0.00000   0.00000   0.00000   0.00000
                  --------  --------  --------  --------  --------  --------
 0 C  s               4.2       0.5       3.2       2.9       0.4       0.5
 0 C  pz              1.9       2.1      26.3       3.6       1.5       6.3
 0 C  px              7.6       1.3       5.8       2.4       2.2       0.0
 0 C  py             16.5       3.5       3.9       3.1       6.3      11.4
 0 C  dz2             0.0       0.0       0.1       0.1       0.3       0.5
 0 C  dxz             0.3       0.2       0.3       0.4       0.1       0.0
 0 C  dyz             0.1       0.0       0.9       0.2       0.2       0.3
 0 C  dx2y2           0.3       0.4       0.9       1.4       0.0       0.0
 0 C  dxy             0.3       0.1       0.0       0.1       0.2       0.0
 1 C  s               4.2       2.7       2.8       0.2       1.3       1.2
 1 C  pz              4.6       0.3       0.5       0.4      12.8       9.1
 1 C  px              0.0       3.2       4.4       6.7       0.5       1.7
 1 C  py              1.1       2.1       1.6       1.1       0.1       0.8
 1 C  dz2             0.0       0.0       0.0       0.0       0.0       0.2
 1 C  dxz             0.0       0.5       0.2       1.1       0.0       0.4
 1 C  dyz             0.1       0.0       0.2       0.0       0.1       0.1
 1 C  dx2y2           0.7       0.0       0.1       0.2       0.0       0.2
 1 C  dxy             0.1       0.2       0.1       0.0       0.4       0.3
 2 C  s               1.9       4.9       1.6       4.0       1.4       0.6
 2 C  pz              2.2      14.0       0.3       0.5      16.3       1.4
 2 C  px              1.7       1.1       0.6       2.7       2.1       4.8
 2 C  py             13.3      11.9       2.4       8.6       9.5       0.5
 2 C  dz2             0.0       0.0       0.2       0.3       0.9       0.5
 2 C  dyz             0.1       1.1       0.0       0.4       0.1       0.1
 2 C  dx2y2           0.4       0.1       0.5       0.3       0.0       0.6
 2 C  dxy             0.0       0.2       0.0       0.1       0.1       0.6
 3 O  s               0.0       0.1       0.8       0.1       0.0       0.1
 3 O  pz              0.9       0.0       3.8       1.3       2.0       2.7
 3 O  px              0.1       0.7       0.8       1.2       0.2       0.3
 3 O  py              0.2       0.2       0.1       0.4       0.4       0.2
 3 O  dz2             0.5       0.2       2.0       0.3       0.2       1.5
 3 O  dxz             0.0       2.1       0.2       0.5       2.4       0.3
 3 O  dyz             0.1       3.2       0.0       4.4       0.1       2.2
 3 O  dx2y2           0.0       0.3       0.0       1.4       0.0       0.0
 3 O  dxy             0.7       0.4       0.2       0.5       1.2       0.0
 4 O  s               0.4       0.2       0.1       0.3       0.1       0.0
 4 O  pz              0.2       2.3       0.7       0.1       1.5       0.1
 4 O  px              0.0       0.7       0.0       0.0       0.0       0.6
 4 O  py              4.1       0.2       0.0       0.5       0.1       0.8
 4 O  dz2             2.7       1.4       0.1       0.1       0.1       1.0
 4 O  dxz             0.1       1.3       0.6      11.2       0.2       0.1
 4 O  dyz             0.1       0.0       0.2       0.8       1.0       0.8
 4 O  dx2y2           1.3       0.1       0.0       0.1       0.4       1.2
 4 O  dxy             0.5       2.5       0.7       0.1       1.0       0.1
 5 O  s               0.0       0.3       0.1       0.0       0.2       0.5
 5 O  pz              0.7       0.2       0.1       0.7       0.5       0.1
 5 O  px              0.2       0.1       1.3       0.2       0.0       0.2
 5 O  py              2.2       6.1       0.1       0.1       0.9       2.7
 5 O  dz2             0.0       0.7       0.2       0.8       0.5       1.5
 5 O  dxz             0.0       0.0       4.0       1.3       0.2       2.1
 5 O  dyz             0.2       0.4       1.6       5.0       1.2       1.2
 5 O  dx2y2           1.0       2.0       0.1       0.1       0.3       0.2
 5 O  dxy             0.4       0.2       0.6       0.1       0.2       3.3
 6 H  s               5.8       1.3       1.0       8.2       0.1       1.8
 6 H  pz              0.0       0.1       1.0       0.4       0.2       0.2
 6 H  px              0.5       0.1       0.2       0.0       0.2       0.0
 6 H  py              2.4       0.4       0.0       1.6       0.0       1.0
 7 H  s               0.2       0.3       1.0       0.9       2.3       8.1
 7 H  pz              0.2       0.0       1.3       0.1       0.6       2.7
 7 H  px              0.1       0.1       0.3       0.3       0.1       0.0
 7 H  py              0.0       0.1       0.6       1.2       0.4       0.2
 8 H  s               1.1       0.0       0.4       0.0       3.0       4.3
 8 H  pz              0.9       0.1       0.2       0.0       1.2       1.6
 8 H  px              0.0       0.4       0.0       1.3       0.0       0.4
 8 H  py              0.1       0.0       0.2       0.1       0.0       0.0
 9 H  s               0.1       0.9       1.6       0.1       7.7       2.4
 9 H  pz              0.1       1.0       0.3       0.0       2.7       0.5
 9 H  py              0.0       0.8       0.1       0.7       0.1       0.0
10 H  s               2.8       0.4       2.1       7.3       3.0       0.6
10 H  pz              0.0       0.7       0.1       0.4       0.1       0.2
10 H  px              0.0       0.1       0.0       0.0       0.1       0.5
10 H  py              1.6       0.3       0.9       2.4       1.4       0.2
11 H  s               0.8       0.0      10.8       0.6       2.5       1.4
11 H  pz              0.2       0.0       2.6       0.1       0.5       0.4
11 H  px              0.0       0.1       0.0       0.0       0.1       0.0
12 H  s               0.2       1.8       0.1       0.1       1.0       0.5
12 H  pz              0.2       0.4       0.0       0.0       0.2       0.0
12 H  px              0.0       0.1       0.0       0.1       0.0       0.1
12 H  py              0.1       0.0       0.0       0.1       0.2       0.0
[...]
 5 O  dyz             0.0       2.7       0.1       3.4       0.5       0.1
 5 O  dx2y2           0.4       0.2       0.0       0.1       6.1       3.1
 5 O  dxy             0.5       1.5       0.1       1.3       4.5       2.4
 6 H  s               0.1       0.1       0.0       0.2       0.0       0.1
 6 H  pz              0.0       0.1       0.0       0.2       0.0       0.0
 6 H  px              0.2       0.1       0.0       0.4       0.0       0.0
 6 H  py              0.4       0.1       0.1       0.2       0.0       0.1
 7 H  s               0.7       0.2       0.0       0.3       0.0       0.0
 7 H  pz              2.0       0.1       0.0       0.3       0.0       0.0
 7 H  px              0.0       0.0       0.0       0.1       0.0       0.0
 7 H  py              0.3       0.2       0.0       0.4       0.0       0.0
 8 H  s               9.2       0.0       0.2       0.0       0.0       0.1
 8 H  pz             19.2       0.0       0.5       0.1       0.0       0.1
 8 H  px              0.1       0.0       0.0       0.0       0.0       0.0
 8 H  py              3.1       0.2       0.6       0.0       0.0       0.0
 9 H  s               1.0       0.1       0.1       0.0       0.1       0.1
 9 H  pz              3.0       0.0       0.1       0.0       0.1       0.1
 9 H  px              0.0       0.2       0.0       0.5       0.0       0.0
 9 H  py              0.2       0.2       0.0       0.1       0.0       0.0
10 H  s               0.1       0.3       0.1       0.3       0.0       0.0
10 H  px              0.3       0.0       0.0       0.1       0.0       0.0
10 H  py              0.3       0.4       0.3       0.4       0.0       0.0
11 H  s               0.0       0.3       0.0       0.4       7.2       5.7
11 H  pz              0.0       0.6       0.0       0.7       8.5       6.4
11 H  px              0.0       0.0       0.1       0.0       0.0       0.0
11 H  py              0.1       0.0       0.0       0.0       0.3       0.2
12 H  s               0.1       0.0       0.6       0.2       1.7       5.4
12 H  pz              0.0       0.0       0.7       0.2       1.9       5.3
12 H  px              0.1       0.0       0.1       0.1       0.3       0.9
12 H  py              0.1       0.1       0.1       0.1       0.2       0.5
13 H  s               0.0       0.2       0.0       0.4       4.5       2.1
13 H  pz              0.0       0.0       0.0       0.0       0.2       0.1
13 H  px              0.3       0.0       0.0       0.0       0.3       0.2
13 H  py              0.0       0.3       0.0       0.6       5.0       2.3

                    162       163       164       165       166       167   
                   4.59520  22.02933  22.03996  22.09011  43.56772  43.60634
                   0.00000   0.00000   0.00000   0.00000   0.00000   0.00000
                  --------  --------  --------  --------  --------  --------
 0 C  s               0.1      46.5      53.0       0.0       0.0       0.0
 0 C  px              0.2       0.0       0.0       0.0       0.0       0.0
 0 C  py              0.2       0.0       0.0       0.0       0.0       0.0
 0 C  dxz             0.3       0.0       0.0       0.0       0.0       0.0
 0 C  dx2y2           0.2       0.0       0.0       0.0       0.0       0.0
 0 C  dxy             0.3       0.0       0.0       0.0       0.0       0.0
 1 C  s               0.1       3.2       3.5      92.9       0.0       0.0
 1 C  py              0.5       0.0       0.0       0.0       0.0       0.0
 1 C  dz2             0.3       0.0       0.0       0.0       0.0       0.0
 1 C  dx2y2           0.5       0.0       0.0       0.0       0.0       0.0
 2 C  s               0.0      49.9      43.0       6.7       0.0       0.0
 3 O  s               0.3       0.1       0.1       0.0      53.1      27.7
 3 O  pz              0.9       0.0       0.0       0.0       0.0       0.0
 3 O  px              0.1       0.0       0.0       0.0       0.0       0.0
 3 O  dz2             1.8       0.0       0.0       0.0       0.0       0.0
 3 O  dyz             0.2       0.0       0.0       0.0       0.0       0.0
 4 O  s               3.9       0.0       0.0       0.1      33.4       1.8
 4 O  pz              5.5       0.0       0.0       0.0       0.0       0.0
 4 O  px              1.2       0.0       0.0       0.0       0.0       0.0
 4 O  py              2.2       0.0       0.0       0.0       0.0       0.0
 4 O  dz2            10.2       0.0       0.0       0.0       0.0       0.0
 4 O  dxz             4.4       0.0       0.0       0.0       0.0       0.0
 4 O  dyz             2.5       0.0       0.0       0.0       0.0       0.0
 4 O  dx2y2           0.7       0.0       0.0       0.0       0.0       0.0
 4 O  dxy             0.2       0.0       0.0       0.0       0.0       0.0
 5 O  s               3.7       0.0       0.1       0.0      13.4      70.4
 5 O  pz              0.9       0.0       0.0       0.0       0.0       0.0
 5 O  px              0.2       0.0       0.0       0.0       0.0       0.0
 5 O  py              8.6       0.0       0.0       0.0       0.0       0.0
 5 O  dz2             3.3       0.0       0.0       0.0       0.0       0.0
 5 O  dxz             0.7       0.0       0.0       0.0       0.0       0.0
 5 O  dyz             0.8       0.0       0.0       0.0       0.0       0.0
 5 O  dx2y2           8.7       0.0       0.0       0.0       0.0       0.0
 5 O  dxy             5.7       0.0       0.0       0.0       0.0       0.0
 8 H  pz              0.1       0.0       0.0       0.0       0.0       0.0
11 H  s               0.7       0.0       0.0       0.0       0.0       0.0
11 H  pz              0.8       0.0       0.0       0.0       0.0       0.0
12 H  s               6.2       0.0       0.0       0.0       0.0       0.0
12 H  pz              5.9       0.0       0.0       0.0       0.0       0.0
12 H  px              0.9       0.0       0.0       0.0       0.0       0.0
12 H  py              0.6       0.0       0.0       0.0       0.0       0.0
13 H  s               6.6       0.0       0.0       0.0       0.0       0.0
13 H  pz              0.3       0.0       0.0       0.0       0.0       0.0
13 H  px              0.6       0.0       0.0       0.0       0.0       0.0
13 H  py              7.2       0.0       0.0       0.0       0.0       0.0

                    168   
                  43.72707
                   0.00000
                  --------
 3 O  s              19.1
 4 O  s              64.7
 5 O  s              16.1


                      *****************************
                      * MAYER POPULATION ANALYSIS *
                      *****************************

  NA   - Mulliken gross atomic population
  ZA   - Total nuclear charge
  QA   - Mulliken gross atomic charge
  VA   - Mayer's total valence
  BVA  - Mayer's bonded valence
  FA   - Mayer's free valence

  ATOM       NA         ZA         QA         VA         BVA        FA
  0 C      6.1752     6.0000    -0.1752     3.8068     3.8068    -0.0000
  1 C      5.9671     6.0000     0.0329     3.7013     3.7013    -0.0000
  2 C      6.2144     6.0000    -0.2144     3.8623     3.8623     0.0000
  3 O      8.4874     8.0000    -0.4874     1.7993     1.7993    -0.0000
  4 O      8.4908     8.0000    -0.4908     1.7921     1.7921     0.0000
  5 O      8.5011     8.0000    -0.5011     1.7838     1.7838     0.0000
  6 H      0.8453     1.0000     0.1547     0.9518     0.9518     0.0000
  7 H      0.8514     1.0000     0.1486     0.9504     0.9504     0.0000
  8 H      0.8418     1.0000     0.1582     0.9534     0.9534    -0.0000
  9 H      0.8345     1.0000     0.1655     0.9491     0.9491     0.0000
 10 H      0.8473     1.0000     0.1527     0.9491     0.9491     0.0000
 11 H      0.6477     1.0000     0.3523     0.8794     0.8794    -0.0000
 12 H      0.6475     1.0000     0.3525     0.8795     0.8795    -0.0000
 13 H      0.6483     1.0000     0.3517     0.8851     0.8851     0.0000

  Mayer bond orders larger than 0.100000
B(  0-C ,  1-C ) :   0.9441 B(  0-C ,  5-O ) :   0.9379 B(  0-C ,  6-H ) :   0.9581 
B(  0-C ,  7-H ) :   0.9639 B(  1-C ,  2-C ) :   0.9539 B(  1-C ,  4-O ) :   0.9352 
B(  1-C ,  8-H ) :   0.9352 B(  2-C ,  3-O ) :   0.9569 B(  2-C ,  9-H ) :   0.9655 
B(  2-C , 10-H ) :   0.9609 B(  3-O , 11-H ) :   0.8672 B(  4-O , 12-H ) :   0.8676 
B(  5-O , 13-H ) :   0.8529 

-------
TIMINGS
-------

Total SCF time: 0 days 0 hours 0 min 20 sec 

Total time                  ....      20.840 sec
Sum of individual times     ....      20.362 sec  ( 97.7%)

SCF preparation             ....       0.265 sec  (  1.3%)
Fock matrix formation       ....      19.092 sec  ( 91.6%)
  Startup                   ....       0.074 sec  (  0.4% of F)
  Split-RI-J                ....       2.582 sec  ( 13.5% of F)
  XC integration            ....      13.166 sec  ( 69.0% of F)
    XC Preparation          ....       0.000 sec  (  0.0% of XC)
    Basis function eval.    ....       2.272 sec  ( 17.3% of XC)
    Density eval.           ....       3.748 sec  ( 28.5% of XC)
    XC-Functional eval.     ....       1.859 sec  ( 14.1% of XC)
    XC-Potential eval.      ....       4.381 sec  ( 33.3% of XC)
  CPCM terms                ....       2.693 sec  ( 14.1% of F)
Diagonalization             ....       0.000 sec  (  0.0%)
Density matrix formation    ....       0.267 sec  (  1.3%)
Total Energy calculation    ....       0.050 sec  (  0.2%)
Population analysis         ....       0.088 sec  (  0.4%)
Orbital Transformation      ....       0.060 sec  (  0.3%)
Orbital Orthonormalization  ....       0.000 sec  (  0.0%)
DIIS solution               ....       0.492 sec  (  2.4%)
  MO trafo                  ....       0.000 sec  (  0.0 % of DIIS)
  Orb grad                  ....       0.000 sec  (  0.0 % of DIIS)
  Energy W gradient         ....       0.000 sec  (  0.0 % of DIIS)
  DIIS error                ....       0.007 sec  (  1.4 % of DIIS)
  DIIS work                 ....       0.409 sec  ( 83.1 % of DIIS)
  Form Q                    ....       0.000 sec  (  0.0 % of DIIS)
  Form QpQm                 ....       0.000 sec  (  0.0 % of DIIS)
  Exp/Cayley                ....       0.000 sec  (  0.0 % of DIIS)
  Orb update                ....       0.000 sec  (  0.0 % of DIIS)
  Wake-sleep                ....       0.038 sec  (  7.8 % of DIIS)
SOSCF solution              ....       0.047 sec  (  0.2%)
  MO trafo                  ....       0.035 sec  ( 74.6 % of SOSCF)
  Orb grad                  ....       0.001 sec  (  1.1 % of SOSCF)
  Rot update                ....       0.000 sec  (  0.1 % of SOSCF)
  Step                      ....       0.011 sec  ( 24.1 % of SOSCF)
Finished LeanSCF after  20.9 sec

Maximum memory used throughout the entire LEANSCF-calculation: 17.5 MB


-------------------------------------------------------------------------------
                          DFT DISPERSION CORRECTION                            
                                                                               
                                DFTD4 V3.4.0                                   
-------------------------------------------------------------------------------
The R2SCAN3C composite method is recognized
Using three-body term ABC
Active option DFTDOPT                   ...         5   

-------------------------   ----------------
Dispersion correction           -0.002997109
-------------------------   ----------------

------------------   -----------------
gCP correction             0.010500643
------------------   -----------------

-------------------------   --------------------
FINAL SINGLE POINT ENERGY      -344.745613427525
-------------------------   --------------------


------------------------------------------------------------------------------
                              ORCA PROPERTY CALCULATIONS
------------------------------------------------------------------------------

GBWName                                 ... sp_solv.gbw
Number of atoms                         ...     14
Number of basis functions               ...    169
Max core memory                         ...   1024 MB

Electric properties:
Dipole moment                           ... YES
Quadrupole moment                       ...  NO
Static polarizability (Dipole/Dipole)   ...  NO
Static polarizability (Dipole/Quad.)    ...  NO
Static polarizability (Quad./Quad.)     ...  NO
Static polarizability (Velocity)        ...  NO

Atomic electric properties:
Dipole moment                           ...  NO
Quadrupole moment                       ...  NO
Static polarizability                   ...  NO

Choice of electric origin               ... Center of mass
Position of electric origin             ...    -0.000003    -0.000019    -0.000010

General magnetic properties:
Magnetizability                         ...  NO

EPR properties:
g-Tensor (aka g-matrix)                 ...  NO
Zero-Field splitting spin-orbit         ...  NO
Zero-field splitting spin-spin          ...  NO
Hyperfine couplings                     ...  NO (   0 nuclei)
Quadrupole couplings                    ...  NO (   0 nuclei)
Contact density                         ...  NO (   0 nuclei)

NMR properties:
Chemical shifts                         ...  NO (   0 nuclei)
Spin-rotation constants                 ...  NO (   0 nuclei)
Spin-spin couplings                     ...  NO (   0 nuclei,    0 pairs)

Choice of magnetic origin               ... GIAO
Position of magnetic origin             ...     0.000000     0.000000     0.000000

Properties with geometric perturbations:
SCF Hessian                             ...  NO
IR spectrum                             ...  NO
VCD spectrum                            ...  NO
X-ray spectroscopy properties:
SCF XES/XAS/RIXS spectra                ...  NO


-------------
DIPOLE MOMENT
-------------

Method             : SCF
Type of density    : Electron Density
Multiplicity       :   1
Irrep              :   0
Energy             :  -344.7531169606504591 Eh
Relativity type    : 
Basis              : AO
                                X                 Y                 Z
Electronic contribution:      0.401856378       1.628258887       1.102746172
Nuclear contribution   :     -0.063784615      -2.066412379      -1.468207054
                        -----------------------------------------
Total Dipole Moment    :      0.338071763      -0.438153492      -0.365460883
                        -----------------------------------------
Magnitude (a.u.)       :      0.663198806
Magnitude (Debye)      :      1.685717398



--------------------
Rotational spectrum 
--------------------
 
Rotational constants in cm-1:             0.264722             0.065139             0.056248 
Rotational constants in MHz :          7936.156722          1952.832498          1686.283308 

Dipole components along the rotational axes: 
x,y,z [a.u.] :     0.419524    -0.462047    -0.224376 
x,y,z [Debye]:     1.066345    -1.174431    -0.570319 

 

Dipole moment calculation done in   0.0 sec 

Maximum memory used throughout the entire PROP-calculation: 9.8 MB

--------------------------------
SUGGESTED CITATIONS FOR THIS RUN
--------------------------------

Below you find a list of papers that are relevant to this ORCA run
We neither can nor want to force you to cite these papers, but we appreciate if you do
You receive ORCA, which is the product of decades of hard work by many enthusiastic individuals, for free
The only thing we kindly ask in return is that you cite our papers,
We deeply appreciate it, if you show your appreciation for ORCA by not just citing the generic ORCA reference.

Please note that relegating all ORCA citations to the supporting information does *not* help us.
SI sections are not indexed - citations you put there will not count into any citation statistics
But we need these citations in order to attract the funding resources that allow us to do what we are doing

Therefore, if you are a happy ORCA user, please consider citing a few of the papers listed below in the main body of your paper

In addition to the list printed below, the program has created the file sp_solv.bibtex that contains the list in bibtex format
You can import this file easily into all common literature databanks and citation aid programs


List of essential papers. We consider these as the minimum necessary citations

  1. Neese,F.
     Software update: the ORCA program system, version 5.0
     WIRES Comput. Molec. Sci., 2022 12(1)e1606
     doi.org/10.1002/wcms.1606
  2. Grimme,S.; Hansen,A.; Ehlert,S.; Mewes,J.
     r2SCAN-3c: A 'Swiss army knife' composite electronic-structure method
     J. Chem. Phys., 2021 154 064103
     doi.org/10.1063/5.0040021

List of papers to cite with high priority. The work reported in these papers was absolutely
necessary for this run to complete.
Our perspective: the developers of density functionals and basis sets usually get cited in chemistry papers
Good! But without the algorithms to do something with them, the functionals or basis sets would not do anything.
Hence, in our opinion, the algorithm design and method developments papers are equally worthy of getting cited

  1. Neese,F.
     An improvement of the resolution of the identity approximation for the formation of the Coulomb matrix
     J. Comp. Chem., 2003 24(14)1740-1747
     doi.org/10.1002/jcc.10318
  2. Garcia-Rates,M.; Neese,F.
     Effect of the Solute Cavity on the Solvation Energy and its Derivatives within the Framework of the Gaussian Charge Scheme
     J. Comput. Chem., 2020 41 922-939
     doi.org/10.1002/jcc.26139
  3. Neese,F.
     The SHARK Integral Generation and Digestion System
     J. Comp. Chem., 2022  1-16
     doi.org/10.1002/jcc.26942
  4. Lehtola,S.; Steigemann,C.; Oliveira,M.; Marques,M.
     Recent developments in Libxc - A comprehensive library of functionals for density functional theory
     Software X, 2018 7 
     doi.org/10.1016/j.softx.2017.11.002
  5. Caldeweyher,E.; Bannwarth,C.; Grimme,S.
     Extension of the D3 dispersion coefficient model
     J. Chem. Phys., 2017 147 034112-XXXX
     doi.org/10.1063/1.4993215
  6. Caldeweyher,E.; Ehlert,S.; Hansen,A.; Neugebauer,H.; Spicher,S.; Bannwarth,C.; Grimme,S.
     A generally applicable atomic-charge dependent London dispersion correction
     J. Chem. Phys., 2019 150 154122-XXXX
     doi.org/10.1063/1.5090222
  7. Caldeweyher,E.; Mewes,J.; Ehlert,S.; Grimme,S.
     Extension and evaluation of the D4 London-dispersion model for periodic systems
     Phys. Chem. Chem. Phys., 2020 22(16)8499-8512
     doi.org/10.1039/D0CP00502A

List of suggested additional citations. These are papers that are important in the 'surrounding' of 
of this run, or papers that preceded the highly important papers. If you like your results we are grateful for a citation.

  1. Neese,F.
     The ORCA program system
     WIRES Comput. Molec. Sci., 2012 2(1)73-78
     doi.org/10.1002/wcms.81
  2. Neese,F.
     Software update: the ORCA program system, version 4.0
     WIRES Comput. Molec. Sci., 2018 8(1)1-6
     doi.org/10.1002/wcms.1327
  3. Neese,F.; Wennmohs,F.; Becker,U.; Riplinger,C.
     The ORCA quantum chemistry program package
     J. Chem. Phys., 2020 152 Art. No. L224108
     doi.org/10.1063/5.0004608

List of optional additional citations

  1. Neese,F.
     Approximate second-order SCF convergence for spin unrestricted wavefunctions
     Chem. Phys. Lett., 2000 325(1-3)93-98
     doi.org/10.1016/s0009-2614(00)00662-x

Timings for individual modules:

Sum of individual times          ...       22.635 sec (=   0.377 min)
Startup calculation              ...        0.967 sec (=   0.016 min)   4.3 %
SCF iterations                   ...       21.562 sec (=   0.359 min)  95.3 %
Property calculations            ...        0.106 sec (=   0.002 min)   0.5 %
                             ****ORCA TERMINATED NORMALLY****
TOTAL RUN TIME: 0 days 0 hours 0 minutes 23 seconds 394 msec
