21
 energy: -350.082002655081 gnorm: 0.002375966512 xtb: 6.7.1 (edcfbbe)
C           -2.57577686740688        1.18942322676246        0.49311751946005
C           -2.57508168172043        0.03574950954980       -0.50634618326643
C           -1.56928661229550       -1.07580569699758       -0.14944207438802
C           -0.14926622418287       -0.57940111870421       -0.10959376530258
C            0.50762310494304       -0.34767832732680        1.10294683068884
C            1.80600933473624        0.15868526476196        1.12899324026708
C            2.47161019822840        0.44383725542478       -0.06106151797890
C            1.82794035667913        0.21600160703981       -1.27747951529246
C            0.53191650770473       -0.29031517220825       -1.29858993298606
H           -3.33630757639096        1.93292529496529        0.23231008206160
H           -2.78792212698711        0.83074309159066        1.50764171122788
H           -1.60553541629246        1.69626647655375        0.51397609268823
H           -2.34510362601906        0.41573646750717       -1.50970048497707
H           -3.57519244575617       -0.40957262994932       -0.55729022152503
H           -1.65563008148708       -1.87831902596542       -0.89207382732087
H           -1.83622234020872       -1.50050957495252        0.82553231235779
H           -0.00359161645093       -0.56515225663168        2.03766449544131
H            2.29797870455455        0.32984103535980        2.08223186511998
H            3.48277200149985        0.83764166245305       -0.04133638081309
H            2.33775990121975        0.43020452379759       -2.21261235406790
H            0.03928360784684       -0.46611702018979       -2.25213932380161
21
 energy: -350.082012629679 gnorm: 0.001047271340 xtb: 6.7.1 (edcfbbe)
C           -2.57661987910852        1.18795110608068        0.49367596139698
C           -2.57494683505452        0.03593406208497       -0.50654924006535
C           -1.56948969738426       -1.07451334943430       -0.14921970011258
C           -0.14890838152978       -0.57803207214960       -0.11045405202950
C            0.50778457796959       -0.34693398755870        1.10183511146692
C            1.80643431451698        0.15880519610411        1.12865362971720
C            2.47195653065510        0.44308272720641       -0.06124965214752
C            1.82871710884565        0.21544772617485       -1.27748704624491
C            0.53221505354497       -0.29030952185504       -1.29927432679654
H           -3.33656959568157        1.93172455261196        0.23341715770307
H           -2.78978599208829        0.82855402224410        1.50717349533896
H           -1.60668041370500        1.69576031518530        0.51733082380759
H           -2.34496351001272        0.41644812891075       -1.50965946606165
H           -3.57526061700965       -0.40960495375728       -0.55919641413708
H           -1.65577968674443       -1.87826338702270       -0.89005147662824
H           -1.83523557823439       -1.49763548369728        0.82656546220478
H           -0.00545578316578       -0.56361668952649        2.03529531914570
H            2.29837453085805        0.33027735111896        2.08163281431984
H            3.48346723733219        0.83648499741678       -0.04190211747133
H            2.33985503426712        0.42902811366178       -2.21168449872679
H            0.03886844421847       -0.46640427931927       -2.25210322677060
21
 energy: -350.082018709796 gnorm: 0.001203514330 xtb: 6.7.1 (edcfbbe)
C           -2.58052278074773        1.18524832088119        0.49573387187374
C           -2.57406453108488        0.03691265481239       -0.50688642204441
C           -1.56942001173335       -1.07188076215148       -0.14890236622357
C           -0.14770675732440       -0.57545419936308       -0.11234477990542
C            0.50797700499830       -0.34398961035623        1.09996742294310
C            1.80736773894926        0.15960655543370        1.12793911510650
C            2.47318543405453        0.44085347307492       -0.06213675787689
C            1.83095178240920        0.21332581570315       -1.27838330545678
C            0.53323025286525       -0.29015204976355       -1.30127867827105
H           -3.33913113420278        1.93016524465731        0.23596970297201
H           -2.79697246044226        0.82257597450858        1.50694376454233
H           -1.61074893170734        1.69386489619639        0.52593102302019
H           -2.34296778958889        0.41950658454698       -1.50901822635778
H           -3.57434887170185       -0.40932846871891       -0.56408995122006
H           -1.65552651430906       -1.87887301250984       -0.88578291248334
H           -1.83274443578208       -1.49108953721470        0.82908781135168
H           -0.00903275438425       -0.55965579345606        2.03128653209108
H            2.29942892638060        0.33135504578756        2.08055461836596
H            3.48552323508101        0.83265871620713       -0.04367297521054
H            2.34479403516765        0.42548975385595       -2.21108656182535
H            0.03870466464230       -0.46695510347738       -2.25308254499005
21
 energy: -350.082022040093 gnorm: 0.000664452981 xtb: 6.7.1 (edcfbbe)
C           -2.58258714839098        1.18455592234176        0.49705247417799
C           -2.57421719486523        0.03746238119049       -0.50743082299917
C           -1.56914130404460       -1.07095257736396       -0.14873644250799
C           -0.14744968988159       -0.57459379268935       -0.11243680906964
C            0.50836035986153       -0.34278886443356        1.09996357529128
C            1.80799061026812        0.15998273302325        1.12757477534342
C            2.47422115975826        0.43997107042723       -0.06276912169943
C            1.83181744926239        0.21220896012822       -1.27909943997661
C            0.53382930966249       -0.29040095081815       -1.30165519424949
H           -3.34086915483501        1.92970921447860        0.23649950588904
H           -2.80135136478626        0.82022590677320        1.50742659111734
H           -1.61291470595848        1.69298959954322        0.52988517581519
H           -2.34142040224454        0.42163353902176       -1.50860720163440
H           -3.57396261436804       -0.40938618185034       -0.56665659611488
H           -1.65539482759456       -1.87837001941126       -0.88529715392947
H           -1.83242671381345       -1.48983026425357        0.82949811090585
H           -0.00878223230873       -0.55743281989038        2.03156468928371
H            2.30003615633515        0.33227460317295        2.08018900705868
H            3.48688291523005        0.83074413840204       -0.04449098291592
H            2.34589607982022        0.42345613020503       -2.21206293329679
H            0.03945901263271       -0.46727426503150       -2.25366296997568
21
 energy: -350.082022040093 gnorm: 0.000664452981 xtb: 6.7.1 (edcfbbe)
C           -2.58258714839098        1.18455592234176        0.49705247417799
C           -2.57421719486523        0.03746238119049       -0.50743082299917
C           -1.56914130404460       -1.07095257736396       -0.14873644250799
C           -0.14744968988159       -0.57459379268935       -0.11243680906964
C            0.50836035986153       -0.34278886443356        1.09996357529128
C            1.80799061026812        0.15998273302325        1.12757477534342
C            2.47422115975826        0.43997107042723       -0.06276912169943
C            1.83181744926239        0.21220896012822       -1.27909943997661
C            0.53382930966249       -0.29040095081815       -1.30165519424949
H           -3.34086915483501        1.92970921447860        0.23649950588904
H           -2.80135136478626        0.82022590677320        1.50742659111734
H           -1.61291470595848        1.69298959954322        0.52988517581519
H           -2.34142040224454        0.42163353902176       -1.50860720163440
H           -3.57396261436804       -0.40938618185034       -0.56665659611488
H           -1.65539482759456       -1.87837001941126       -0.88529715392947
H           -1.83242671381345       -1.48983026425357        0.82949811090585
H           -0.00878223230873       -0.55743281989038        2.03156468928371
H            2.30003615633515        0.33227460317295        2.08018900705868
H            3.48688291523005        0.83074413840204       -0.04449098291592
H            2.34589607982022        0.42345613020503       -2.21206293329679
H            0.03945901263271       -0.46727426503150       -2.25366296997568
