
                                 *****************
                                 * O   R   C   A *
                                 *****************

                                            #,                                       
                                            ###                                      
                                            ####                                     
                                            #####                                    
                                            ######                                   
                                           ########,                                 
                                     ,,################,,,,,                         
                               ,,#################################,,                 
                          ,,##########################################,,             
                       ,#########################################, ''#####,          
                    ,#############################################,,   '####,        
                  ,##################################################,,,,####,       
                ,###########''''           ''''###############################       
              ,#####''   ,,,,##########,,,,          '''####'''          '####       
            ,##' ,,,,###########################,,,                        '##       
           ' ,,###''''                  '''############,,,                           
         ,,##''                                '''############,,,,        ,,,,,,###''
      ,#''                                            '''#######################'''  
     '                                                          ''''####''''         
             ,#######,   #######,   ,#######,      ##                                
            ,#'     '#,  ##    ##  ,#'     '#,    #''#        ,####,   ,####,        
            ##       ##  ##   ,#'  ##            #'  '#       #'       #'  '#        
            ##       ##  #######   ##           ,######,      #####,   #    #        
            '#,     ,#'  ##    ##  '#,     ,#' ,#      #,     #,   #   #,  ,#        
             '#######'   ##     ##  '#######'  #'      '#     '####' # '####'        



                #########################################################
                #                        -***-                          #
                #          Department of theory and spectroscopy        #
                #                                                       #
                #                      Frank Neese                      #
                #                                                       #
                #     Directorship, Architecture, Infrastructure        #
                #                    SHARK, DRIVERS                     #
                #        Core code/Algorithms in most modules           #
                #                                                       #
                #        Max Planck Institute fuer Kohlenforschung      #
                #                Kaiser Wilhelm Platz 1                 #
                #                 D-45470 Muelheim/Ruhr                 #
                #                      Germany                          #
                #                                                       #
                #                  All rights reserved                  #
                #                        -***-                          #
                #########################################################


                         Program Version 6.0.0  -   RELEASE  -


 With contributions from (in alphabetic order):
   Daniel Aravena         : Magnetic Suceptibility
   Michael Atanasov       : Ab Initio Ligand Field Theory (pilot matlab implementation)
   Alexander A. Auer      : GIAO ZORA, VPT2 properties, NMR spectrum
   Ute Becker             : All parallelization in ORCA, NUMFREQ, NUMCALC
   Giovanni Bistoni       : ED, misc. LED, open-shell LED, HFLD
   Martin Brehm           : Molecular dynamics
   Dmytro Bykov           : pre 5.0 version of the SCF Hessian
   Marcos Casanova-Páez   : Triplet and SCS-CIS(D). UHF-(DLPNO)-IP/EA/STEOM-CCSD. UHF-CVS-IP/STEOM-CCSD
   Vijay G. Chilkuri      : MRCI spin determinant printing, contributions to CSF-ICE
   Pauline Colinet        : FMM embedding
   Dipayan Datta          : RHF DLPNO-CCSD density
   Achintya Kumar Dutta   : EOM-CC, STEOM-CC
   Nicolas Foglia         : Exact transition moments, OPA infrastructure, MCD improvements
   Dmitry Ganyushin       : Spin-Orbit,Spin-Spin,Magnetic field MRCI
   Miquel Garcia          : C-PCM and meta-GGA Hessian, CCSD/C-PCM, Gaussian charge scheme
   Tiago L. C. Gouveia    : GS-ROHF, GS-ROCIS
   Yang Guo               : DLPNO-NEVPT2, F12-NEVPT2, CIM, IAO-localization
   Andreas Hansen         : Spin unrestricted coupled pair/coupled cluster methods
   Ingolf Harden          : AUTO-CI MPn and infrastructure 
   Benjamin Helmich-Paris : MC-RPA, TRAH-(SCF,CASSCF), AVAS, COSX integrals, SCF dyn. polar.
   Lee Huntington         : MR-EOM, pCC
   Robert Izsak           : Overlap fitted RIJCOSX, COSX-SCS-MP3, EOM
   Riya Kayal             : Wick's Theorem for AUTO-CI, AUTO-CI UHF-CCSDT
   Emily Kempfer          : AUTO-CI, RHF CISDT and CCSDT
   Christian Kollmar      : KDIIS, OOCD, Brueckner-CCSD(T), CCSD density, CASPT2, CASPT2-K, improved NEVPT2
   Axel Koslowski         : Symmetry handling
   Simone Kossmann        : Meta GGA functionals, TD-DFT gradient, OOMP2, (MP2 Hessian; deprecated post 5.0)
   Lucas Lang             : DCDCAS
   Marvin Lechner         : AUTO-CI (C++ implementation), FIC-MRCC
   Spencer Leger          : CASSCF response
   Dagmar Lenk            : GEPOL surface, SMD, ORCA-2-JSON
   Dimitrios Liakos       : Extrapolation schemes; Compound Job, initial MDCI parallelization
   Dimitrios Manganas     : Further ROCIS development; embedding schemes. LFT, Crystal Embedding
   Dimitrios Pantazis     : SARC Basis sets
   Anastasios Papadopoulos: AUTO-CI, single reference methods and gradients
   Taras Petrenko         : pre 6.0 DFT Hessian and TD-DFT gradient, (ASA, deprecated), ECA, 1-Electron XAS/XES, NRVS
   Peter Pinski           : DLPNO-MP2, DLPNO-MP2 Gradient
   Christoph Reimann      : Effective Core Potentials
   Marius Retegan         : Local ZFS, SOC
   Christoph Riplinger    : Optimizer, TS searches, QM/MM, DLPNO-CCSD(T), (RO)-DLPNO pert. Triples
   Michael Roemelt        : Original ROCIS implementation
   Masaaki Saitow         : Open-shell DLPNO-CCSD energy and density
   Barbara Sandhoefer     : DKH picture change effects
   Kantharuban Sivalingam : CASSCF convergence/infrastructure, NEVPT2 and variants, FIC-MRCI
   Bernardo de Souza      : ESD, SOC TD-DFT
   Georgi Stoychev        : AutoAux, RI-MP2 NMR, DLPNO-MP2 response, X2C
   Van Anh Tran           : RI-MP2 g-tensors
   Willem Van den Heuvel  : Paramagnetic NMR
   Zikuan Wang            : NOTCH, Electric field optimization 
   Frank Wennmohs         : Technical directorship and infrastructure
   Hang Xu                : AUTO-CI-Response properties 


 We gratefully acknowledge several colleagues who have allowed us to
 interface, adapt or use parts of their codes:
   Stefan Grimme, W. Hujo, H. Kruse, P. Pracht,  : VdW corrections, initial TS optimization,
                  C. Bannwarth, S. Ehlert,         DFT functionals, gCP, sTDA/sTD-DF
                  L. Wittmann, M. Mueller
   Ed Valeev, F. Pavosevic, A. Kumar             : LibInt (2-el integral package), F12 methods
   Garnet Chan, S. Sharma, J. Yang, R. Olivares  : DMRG
   Ulf Ekstrom                                   : XCFun DFT Library
   Mihaly Kallay                                 : mrcc  (arbitrary order and MRCC methods)
   Frank Weinhold                                : gennbo (NPA and NBO analysis)
   Simon Mueller                                 : openCOSMO-RS
   Christopher J. Cramer and Donald G. Truhlar   : smd solvation model
   Lars Goerigk                                  : TD-DFT with DH, B97 family of functionals
   V. Asgeirsson, H. Jonsson                     : NEB implementation
   FAccTs GmbH                                   : IRC, NEB, NEB-TS, DLPNO-Multilevel, CI-OPT
                                                   MM, QMMM, 2- and 3-layer-ONIOM, Crystal-QMMM,
                                                   LR-CPCM, SF, NACMEs, symmetry and pop. for TD-DFT,
                                                   nearIR, NL-DFT gradient (VV10), updates on ESD,
                                                   ML-optimized integration grids, MBIS, APM,
                                                   GOAT, DOCKER, SOLVATOR, interface openCOSMO-RS
   S Lehtola, MJT Oliveira, MAL Marques          : LibXC Library
   Liviu Ungur et al                             : ANISO software


 Your calculation uses the libint2 library for the computation of 2-el integrals
 For citations please refer to: http://libint.valeyev.net

 Your ORCA version has been built with support for libXC version: 6.2.2
 For citations please refer to: https://libxc.gitlab.io

 This ORCA versions uses:
   CBLAS   interface :  Fast vector & matrix operations
   LAPACKE interface :  Fast linear algebra routines
   SCALAPACK package :  Parallel linear algebra routines
   Shared memory     :  Shared parallel matrices
   BLAS/LAPACK       :  OpenBLAS 0.3.27  USE64BITINT DYNAMIC_ARCH NO_AFFINITY SkylakeX SINGLE_THREADED
        Core in use  :  SkylakeX
   Copyright (c) 2011-2014, The OpenBLAS Project


Your calculation utilizes the geometrical counterpoise correction gCP
Please cite in your paper:
H.Kruse, S. Grimme J.Chem.Phys., 136, (2012), 154101 
   

Your calculation utilizes the atom-pairwise dispersion correction
based on EEQ partial charges (D4)


Your calculation utilizes the SMD solvation module
Please cite in your paper:
A.V. Marenich, C.J. Cramer, D.G. Truhlar J. Phys. Chem. B, 113, (2009), 6378 

================================================================================

----- Orbital basis set information -----
Your calculation utilizes the basis: def2-mTZVPP
   Stefan Grimme, Andreas Hansen, Sebastian Ehlert, and Jan-Michael Mewes 
   J. Chem. Phys. 154, 064103 (2021). DOI: 10.1063/5.0040021

----- AuxJ basis set information -----
Your calculation utilizes the auxiliary basis: def2/J
   F. Weigend, Phys. Chem. Chem. Phys. 8, 1057 (2006).

================================================================================
                                        WARNINGS
                       Please study these warnings very carefully!
================================================================================

Using LibXC functional ID 497 : Re-regularized SCAN exchange by Furness et al
[ 1]  J. W. Furness, A. D. Kaplan, J. Ning, J. P. Perdew, and J. Sun.,  J. Phys. Chem. Lett. 11, 8208-8215 (2020)
[ 2]  J. W. Furness, A. D. Kaplan, J. Ning, J. P. Perdew, and J. Sun.,  J. Phys. Chem. Lett. 11, 9248-9248 (2020)
Using LibXC functional ID 498 : Re-regularized SCAN correlation by Furness et al
[ 1]  J. W. Furness, A. D. Kaplan, J. Ning, J. P. Perdew, and J. Sun.,  J. Phys. Chem. Lett. 11, 8208-8215 (2020)
[ 2]  J. W. Furness, A. D. Kaplan, J. Ning, J. P. Perdew, and J. Sun.,  J. Phys. Chem. Lett. 11, 9248-9248 (2020)
Using LibXC functional ID 497 : Re-regularized SCAN exchange by Furness et al
[ 1]  J. W. Furness, A. D. Kaplan, J. Ning, J. P. Perdew, and J. Sun.,  J. Phys. Chem. Lett. 11, 8208-8215 (2020)
[ 2]  J. W. Furness, A. D. Kaplan, J. Ning, J. P. Perdew, and J. Sun.,  J. Phys. Chem. Lett. 11, 9248-9248 (2020)
Using LibXC functional ID 498 : Re-regularized SCAN correlation by Furness et al
[ 1]  J. W. Furness, A. D. Kaplan, J. Ning, J. P. Perdew, and J. Sun.,  J. Phys. Chem. Lett. 11, 8208-8215 (2020)
[ 2]  J. W. Furness, A. D. Kaplan, J. Ning, J. P. Perdew, and J. Sun.,  J. Phys. Chem. Lett. 11, 9248-9248 (2020)

================================================================================
                                       INPUT FILE
================================================================================
NAME = sp_solv.inp
|  1> ! r2scan-3c def2/J RI DEFGRID2 scfconv6 printgap
|  2> %output
|  3>     printlevel normal
|  4> end
|  5> %cpcm
|  6>     smd true
|  7>     smdsolvent "water"
|  8> end
|  9> * xyz 0 1
| 10> C 1.3448396671 -1.3921012373 0.1384483304
| 11> C 0.8407507059 0.0443308989 0.2581867474
| 12> C 2.012127189 1.0179609691 0.1407303013
| 13> C -0.2162786109 0.3565180694 -0.8089383615
| 14> C -1.5784629893 -0.2705047381 -0.5064629369
| 15> O -2.1488646694 0.192481677 0.7001075273
| 16> H 0.5315020721 -2.1029223794 0.2574983979
| 17> H 2.0863663108 -1.5960126797 0.9071847594
| 18> H 1.8051030882 -1.5517346445 -0.83456038
| 19> H 0.3745031837 0.1687392937 1.2420177013
| 20> H 2.7632957992 0.8003075166 0.8960085884
| 21> H 1.6795084707 2.0445334926 0.2758038096
| 22> H 2.4759238064 0.9318020859 -0.8396773126
| 23> H 0.1223857909 -0.0045312436 -1.7811692666
| 24> H -0.3427406414 1.4398191201 -0.8794556129
| 25> H -2.2645123544 -0.0793196988 -1.3435333275
| 26> H -1.4879121627 -1.3514778337 -0.3833241603
| 27> H -2.2682759129 1.1506261899 0.6414457695
| 28> *
| 29> 
| 30>                          ****END OF INPUT****
================================================================================

                       ****************************
                       * Single Point Calculation *
                       ****************************

---------------------------------
CARTESIAN COORDINATES (ANGSTROEM)
---------------------------------
  C      1.344840   -1.392101    0.138448
  C      0.840751    0.044331    0.258187
  C      2.012127    1.017961    0.140730
  C     -0.216279    0.356518   -0.808938
  C     -1.578463   -0.270505   -0.506463
  O     -2.148865    0.192482    0.700108
  H      0.531502   -2.102922    0.257498
  H      2.086366   -1.596013    0.907185
  H      1.805103   -1.551735   -0.834560
  H      0.374503    0.168739    1.242018
  H      2.763296    0.800308    0.896009
  H      1.679508    2.044533    0.275804
  H      2.475924    0.931802   -0.839677
  H      0.122386   -0.004531   -1.781169
  H     -0.342741    1.439819   -0.879456
  H     -2.264512   -0.079320   -1.343533
  H     -1.487912   -1.351478   -0.383324
  H     -2.268276    1.150626    0.641446

----------------------------
CARTESIAN COORDINATES (A.U.)
----------------------------
  NO LB      ZA    FRAG     MASS         X           Y           Z
   0 C     6.0000    0    12.011    2.541379   -2.630690    0.261629
   1 C     6.0000    0    12.011    1.588789    0.083773    0.487902
   2 C     6.0000    0    12.011    3.802369    1.923667    0.265942
   3 C     6.0000    0    12.011   -0.408707    0.673722   -1.528672
   4 C     6.0000    0    12.011   -2.982863   -0.511180   -0.957076
   5 O     8.0000    0    15.999   -4.060766    0.363738    1.323011
   6 H     1.0000    0     1.008    1.004393   -3.973947    0.486601
   7 H     1.0000    0     1.008    3.942661   -3.016027    1.714331
   8 H     1.0000    0     1.008    3.411150   -2.932354   -1.577091
   9 H     1.0000    0     1.008    0.707708    0.318871    2.347073
  10 H     1.0000    0     1.008    5.221872    1.512362    1.693211
  11 H     1.0000    0     1.008    3.173811    3.863608    0.521194
  12 H     1.0000    0     1.008    4.678818    1.760851   -1.586760
  13 H     1.0000    0     1.008    0.231276   -0.008563   -3.365922
  14 H     1.0000    0     1.008   -0.647686    2.720864   -1.661930
  15 H     1.0000    0     1.008   -4.279308   -0.149893   -2.538910
  16 H     1.0000    0     1.008   -2.811746   -2.553923   -0.724378
  17 H     1.0000    0     1.008   -4.286420    2.174368    1.212157

--------------------------------
INTERNAL COORDINATES (ANGSTROEM)
--------------------------------
 C      0   0   0     0.000000000000     0.00000000     0.00000000
 C      1   0   0     1.527016781577     0.00000000     0.00000000
 C      2   1   0     1.527702325549   109.89908274     0.00000000
 C      2   1   3     1.534121182972   111.36653090   122.39493115
 C      4   2   1     1.529769676902   113.11550283    75.17551839
 O      5   4   2     1.412631155790   113.20976601    61.45354159
 H      1   2   3     1.086718757576   111.07796890   177.82768166
 H      1   2   3     1.087380952992   110.24791655    58.05205981
 H      1   2   3     1.088150353587   110.34950271   298.29813700
 H      2   1   3     1.095804520207   108.52120149   241.08947542
 H      3   2   1     1.087231620815   110.41135731   303.05095568
 H      3   2   1     1.087534464012   110.94873701   182.97092872
 H      3   2   1     1.087993448904   110.22270945    62.78409965
 H      4   2   1     1.091000969888   109.79431724   313.84939863
 H      4   2   1     1.092934807914   109.04479103   195.89417314
 H      5   4   2     1.099046081575   109.50831050   184.55214547
 H      5   4   2     1.091725901457   110.74987851   303.61901321
 H      6   5   4     0.967337146244   108.82514576    59.97934839

---------------------------
INTERNAL COORDINATES (A.U.)
---------------------------
 C      0   0   0     0.000000000000     0.00000000     0.00000000
 C      1   0   0     2.885643519082     0.00000000     0.00000000
 C      2   1   0     2.886939009442   109.89908274     0.00000000
 C      2   1   3     2.899068892065   111.36653090   122.39493115
 C      4   2   1     2.890845737322   113.11550283    75.17551839
 O      5   4   2     2.669486012687   113.20976601    61.45354159
 H      1   2   3     2.053600836415   111.07796890   177.82768166
 H      1   2   3     2.054852204398   110.24791655    58.05205981
 H      1   2   3     2.056306160809   110.34950271   298.29813700
 H      2   1   3     2.070770439504   108.52120149   241.08947542
 H      3   2   1     2.054570007479   110.41135731   303.05095568
 H      3   2   1     2.055142298183   110.94873701   182.97092872
 H      3   2   1     2.056009653930   110.22270945    62.78409965
 H      4   2   1     2.061693044930   109.79431724   313.84939863
 H      4   2   1     2.065347469188   109.04479103   195.89417314
 H      5   4   2     2.076896102736   109.50831050   184.55214547
 H      5   4   2     2.063062967062   110.74987851   303.61901321
 H      6   5   4     1.828002285569   108.82514576    59.97934839

---------------------
BASIS SET INFORMATION
---------------------
There are 3 groups of distinct atoms

 Group   1 Type C   : 11s6p1d contracted to 5s3p1d pattern {62111/411/1}
 Group   2 Type O   : 11s6p2d contracted to 5s3p2d pattern {62111/411/11}
 Group   3 Type H   : 4s1p contracted to 2s1p pattern {31/1}

Atom   0C    basis set group =>   1
Atom   1C    basis set group =>   1
Atom   2C    basis set group =>   1
Atom   3C    basis set group =>   1
Atom   4C    basis set group =>   1
Atom   5O    basis set group =>   2
Atom   6H    basis set group =>   3
Atom   7H    basis set group =>   3
Atom   8H    basis set group =>   3
Atom   9H    basis set group =>   3
Atom  10H    basis set group =>   3
Atom  11H    basis set group =>   3
Atom  12H    basis set group =>   3
Atom  13H    basis set group =>   3
Atom  14H    basis set group =>   3
Atom  15H    basis set group =>   3
Atom  16H    basis set group =>   3
Atom  17H    basis set group =>   3
---------------------------------
AUXILIARY/J BASIS SET INFORMATION
---------------------------------
There are 3 groups of distinct atoms

 Group   1 Type C   : 12s5p4d2f1g contracted to 6s4p3d1f1g pattern {711111/2111/211/2/1}
 Group   2 Type O   : 12s5p4d2f1g contracted to 6s4p3d1f1g pattern {711111/2111/211/2/1}
 Group   3 Type H   : 5s2p1d contracted to 3s1p1d pattern {311/2/1}

Atom   0C    basis set group =>   1
Atom   1C    basis set group =>   1
Atom   2C    basis set group =>   1
Atom   3C    basis set group =>   1
Atom   4C    basis set group =>   1
Atom   5O    basis set group =>   2
Atom   6H    basis set group =>   3
Atom   7H    basis set group =>   3
Atom   8H    basis set group =>   3
Atom   9H    basis set group =>   3
Atom  10H    basis set group =>   3
Atom  11H    basis set group =>   3
Atom  12H    basis set group =>   3
Atom  13H    basis set group =>   3
Atom  14H    basis set group =>   3
Atom  15H    basis set group =>   3
Atom  16H    basis set group =>   3
Atom  17H    basis set group =>   3

Checking for AutoStart:
The File: sp_solv.gbw exists
Trying to determine its content:
     ... Fine, the file contains calculation information
     ... Fine, the calculation information was read
     ... Fine, the file contains a basis set
     ... Fine, the basis set was read
     ... Fine, the file contains a geometry
     ... Fine, the geometry was read
     ... Fine, the file contains a set of orbitals
     ... Fine, the orbitals can be read
     => possible old guess file was deleted
     => GBW file was renamed to GES file
     => GES file is set as startup file
     => Guess is set to MORead
     ... now leaving AutoStart

------------------------------------------------------------------------------
                             ORCA STARTUP CALCULATIONS
                           -- RI-GTO INTEGRALS CHOSEN --
------------------------------------------------------------------------------
------------------------------------------------------------------------------
                   ___                                                        
                  /   \      - P O W E R E D   B Y -                         
                 /     \                                                     
                 |  |  |   _    _      __       _____    __    __             
                 |  |  |  | |  | |    /  \     |  _  \  |  |  /  |          
                  \  \/   | |  | |   /    \    | | | |  |  | /  /          
                 / \  \   | |__| |  /  /\  \   | |_| |  |  |/  /          
                |  |  |   |  __  | /  /__\  \  |    /   |      \           
                |  |  |   | |  | | |   __   |  |    \   |  |\   \          
                \     /   | |  | | |  |  |  |  | |\  \  |  | \   \       
                 \___/    |_|  |_| |__|  |__|  |_| \__\ |__|  \__/        
                                                                              
                      - O R C A' S   B I G   F R I E N D -                    
                                      &                                       
                       - I N T E G R A L  F E E D E R -                       
                                                                              
 v1 FN, 2020, v2 2021, v3 2022-2024                                           
------------------------------------------------------------------------------


----------------------
SHARK INTEGRAL PACKAGE
----------------------

Number of atoms                             ...     18
Number of basis functions                   ...    179
Number of shells                            ...     91
Maximum angular momentum                    ...      2
Integral batch strategy                     ... SHARK/LIBINT Hybrid
RI-J (if used) integral strategy            ... SPLIT-RIJ (Revised 2003 algorithm where possible)
Printlevel                                  ...      1
Contraction scheme used                     ... SEGMENTED contraction
Prescreening option                         ... SCHWARTZ
   Thresh                                   ... 1.000e-10
   Tcut                                     ... 1.000e-11
   Tpresel                                  ... 1.000e-11 
Coulomb Range Separation                    ... NOT USED
Exchange Range Separation                   ... NOT USED
Multipole approximations                    ... NOT USED
Finite Nucleus Model                        ... NOT USED
CABS basis                                  ... NOT available
Auxiliary Coulomb fitting basis             ... AVAILABLE
   # of basis functions in Aux-J            ...    426
   # of shells in Aux-J                     ...    150
   Maximum angular momentum in Aux-J        ...      4
Auxiliary J/K fitting basis                 ... NOT available
Auxiliary Correlation fitting basis         ... NOT available
Auxiliary 'external' fitting basis          ... NOT available

Checking pre-screening integrals            ... done (  0.0 sec) Dimension = 91
Check shell pair data                       ... done (  0.0 sec)
Shell pair information
Shell pair cut-off parameter TPreSel        ...   1.0e-11
Total number of shell pairs                 ...      4186
Shell pairs after pre-screening             ...      3898
Total number of primitive shell pairs       ...     14533
Primitive shell pairs kept                  ...      9999
          la=0 lb=0:   1366 shell pairs
          la=1 lb=0:   1509 shell pairs
          la=1 lb=1:    435 shell pairs
          la=2 lb=0:    360 shell pairs
          la=2 lb=1:    200 shell pairs
          la=2 lb=2:     28 shell pairs

Calculating one electron integrals          ... done (  0.0 sec)
Calculating RI/J V-Matrix + Cholesky decomp.... done (  0.1 sec)
Calculating Nuclear repulsion               ... done (  0.0 sec) ENN=    258.714703987119 Eh

Diagonalization of the overlap matrix:
Smallest eigenvalue                        ... 1.917e-04
Time for diagonalization                   ...    0.003 sec
Threshold for overlap eigenvalues          ... 1.000e-07
Number of eigenvalues below threshold      ... 0
Time for construction of square roots      ...    0.025 sec
Total time needed                          ...    0.042 sec

-------------------
DFT GRID GENERATION
-------------------

General Integration Accuracy     IntAcc      ... 4.388
Radial Grid Type                 RadialGrid  ... OptM3 with GC (2021)
Angular Grid (max. ang.)         AngularGrid ... 4 (Lebedev-302)
Angular grid pruning method      GridPruning ... 4 (adaptive)
Weight generation scheme         WeightScheme... mBecke (2022)
Basis function cutoff            BFCut       ... 1.0000e-10
Integration weight cutoff        WCut        ... 1.0000e-14
Partially contracted basis set               ... off
Rotationally invariant grid construction     ... off
Angular grids for H and He will be reduced by one unit
Diffuse basis detected: some atoms will have their outermost
                        angular grid increased by 1.

Total number of grid points                  ...    74836
Total number of batches                      ...     1179
Average number of points per batch           ...       63
Average number of grid points per atom       ...     4158
Initializing property integral containers    ... done (  0.0 sec)

SHARK setup successfully completed in   1.1 seconds

Maximum memory used throughout the entire STARTUP-calculation: 32.4 MB
-------------------------------------------------------------------------------
                                 ORCA GUESS
                   Start orbitals & Density for SCF / CASSCF
-------------------------------------------------------------------------------

------------
SCF SETTINGS
------------
Hamiltonian:
 Density Functional     Method          .... DFT(GTOs)
  Functional kind                       .... Exchange
  Functional name                       .... Re-regularized SCAN exchange by Furness et al
  Functional family                     .... MGGA
  Functional refs                              
    [ 0] J. W. Furness, A. D. Kaplan, J. Ning, J. P. Perdew, and J. Sun.,  J. Phys. Chem. Lett. 11, 8208-8215 (2020), doi: 10.1021/acs.jpclett.0c02405
    [ 1] J. W. Furness, A. D. Kaplan, J. Ning, J. P. Perdew, and J. Sun.,  J. Phys. Chem. Lett. 11, 9248-9248 (2020), doi: 10.1021/acs.jpclett.0c03077
  Functional external parameters        .... 6
    Parameter  0 _c1        =  6.670000e-01 : c1 parameter        
    Parameter  1 _c2        =  8.000000e-01 : c2 parameter        
    Parameter  2 _d         =  1.240000e+00 : d parameter         
    Parameter  3 _k1        =  6.500000e-02 : k1 parameter        
    Parameter  4 _eta       =  1.000000e-03 : eta parameter       
    Parameter  5 _dp2       =  3.610000e-01 : dp2 parameter       
  Functional kind                       .... Correlation
  Functional name                       .... Re-regularized SCAN correlation by Furness et al
  Functional family                     .... MGGA
  Functional refs                              
    [ 0] J. W. Furness, A. D. Kaplan, J. Ning, J. P. Perdew, and J. Sun.,  J. Phys. Chem. Lett. 11, 8208-8215 (2020), doi: 10.1021/acs.jpclett.0c02405
    [ 1] J. W. Furness, A. D. Kaplan, J. Ning, J. P. Perdew, and J. Sun.,  J. Phys. Chem. Lett. 11, 9248-9248 (2020), doi: 10.1021/acs.jpclett.0c03077
  Functional external parameters        .... 1
    Parameter  0 _eta       =  1.000000e-03 : Regularization parameter
 Gradients option       PostSCFGGA      .... off
 RI-approximation to the Coulomb term is turned on
   Number of AuxJ basis functions       .... 426


General Settings:
 Integral files         IntName         .... sp_solv
 Hartree-Fock type      HFTyp           .... RHF
 Total Charge           Charge          ....    0
 Multiplicity           Mult            ....    1
 Number of Electrons    NEL             ....   50
 Basis Dimension        Dim             ....  179
 Nuclear Repulsion      ENuc            ....    258.7147039871 Eh

Convergence Acceleration:
 AO-DIIS                CNVDIIS         .... on
   Start iteration      DIISMaxIt       ....    12
   Startup error        DIISStart       ....  0.200000
   # of expansion vecs  DIISMaxEq       ....     5
   Bias factor          DIISBfac        ....   1.050
   Max. coefficient     DIISMaxC        ....  10.000
 MO-DIIS                CNVKDIIS        .... off
 Trust-Rad. Augm. Hess. CNVTRAH         .... auto
   Auto Start mean grad. ratio tolernc. ....  1.125000
   Auto Start start iteration           ....     1
   Auto Start num. interpolation iter.  ....    10
   Max. Number of Micro iterations      ....    24
   Max. Number of Macro iterations      .... Maxiter - #DIIS iter
   Number of Davidson start vectors     ....     2
   Converg. threshold    (grad. norm)   ....   3.330e-04
   Grad. Scal. Fac. for Micro threshold ....   0.100
   Minimum threshold for Micro iter.    ....   1.000e-02
   NR start threshold (gradient norm)   ....   1.000e-04
   Initial trust radius                 ....   0.400
   Minimum AH scaling param. (alpha)    ....   1.000
   Maximum AH scaling param. (alpha)    .... 1000.000
   Quad. conv. algorithm                .... NR
   White noise on init. David. guess    .... on
   Maximum white noise                  ....   0.010
   Pseudo random numbers                .... off
   Inactive MOs                         .... canonical
   Orbital update algorithm             .... Taylor
   Preconditioner                       .... Diag
   Full preconditioner red. dimension   ....   250
   COSX micro iterations for RIJONX calc.... off
 SOSCF                  CNVSOSCF        .... on
   Start iteration      SOSCFMaxIt      ....   150
   Startup grad/error   SOSCFStart      ....  0.003300
   Hessian update       SOSCFHessUp     .... L-BFGS
 Level Shifting         CNVShift        .... on
   Level shift para.    LevelShift      ....    0.2500
   Turn off err/grad.   ShiftErr        ....    0.0010
 Zerner damping         CNVZerner       .... off
 Static damping         CNVDamp         .... on
   Fraction old density DampFac         ....    0.7000
   Max. Damping (<1)    DampMax         ....    0.9800
   Min. Damping (>=0)   DampMin         ....    0.0000
   Turn off err/grad.   DampErr         ....    0.1000

SCF Procedure:
 Maximum # iterations   MaxIter         ....   125
 SCF integral mode      SCFMode         .... Direct
   Integral package                     .... SHARK and LIBINT hybrid scheme
 Reset frequency        DirectResetFreq ....    20
 Integral Threshold     Thresh          ....  1.000e-10 Eh
 Primitive CutOff       TCut            ....  1.000e-11 Eh

Convergence Tolerance:
 Convergence Check Mode ConvCheckMode   .... Total+1el-Energy
 Convergence forced     ConvForced      .... 0
 Energy Change          TolE            ....  1.000e-06 Eh
 1-El. energy change                    ....  1.000e-03 Eh
 Orbital Gradient       TolG            ....  3.330e-04
 Orbital Rotation angle TolX            ....  3.330e-04
 DIIS Error             TolErr          ....  1.000e-06

---------------------
INITIAL GUESS: MOREAD
---------------------
Guess MOs are being read from file: sp_solv.ges
Input Geometry matches current geometry (good)
Atom 0: N(Shells)= 9 and 6 - projection required
Input basis set needs projection
NBasis(read)= 108
NBasis(calc)= 179
Basis set overlap was calculated
Using GuessMode=FMatrix for the initial guess
C*T matrix was formed
Effective Fockian was calculated
Effective Fockian was diagonalized
Initial density was built
                      ------------------
                      INITIAL GUESS DONE (   0.1 sec)
                      ------------------
             **** ENERGY FILE WAS UPDATED (sp_solv.en.tmp) ****
Finished Guess after   0.4 sec
Maximum memory used throughout the entire GUESS-calculation: 12.2 MB

-------------------------------------------------------------------------------------------
                                      ORCA LEAN-SCF
                              memory conserving SCF solver
-------------------------------------------------------------------------------------------

--------------------
CPCM SOLVATION MODEL
--------------------
CPCM parameters:
  Epsilon                                         ...      78.3550
  Refrac                                          ...       1.3328
  Rsolv                                           ...       1.3000
  Surface type                                    ... GAUSSIAN VDW
  Discretization scheme                           ... Constant charge density
    Threshold for H atoms                         ...       5.0000 (charges/Ang^2)
    Threshold for non-H atoms                     ...       5.0000 (charges/Ang^2)
  Epsilon function type                           ...         CPCM
Solvent:                                          ... WATER
SMD-CDS solvent descriptors:
  Soln                                            ...       1.3328
  Soln25                                          ...       1.3323
  Sola                                            ...       0.0000
  Solb                                            ...       0.0000
  Solg                                            ...       0.0000
  Solc                                            ...       0.0000
  Solh                                            ...       0.0000
Radii:
  Scheme                                          ... Element-dependent radii
  Radius for C  used is    3.4960 Bohr (=   1.8500 Ang.)
  Radius for O  used is    2.8724 Bohr (=   1.5200 Ang.)
  Radius for H  used is    2.2677 Bohr (=   1.2000 Ang.)
Calculating surface                               ...        done! (  0.0s)
Cavity surface points                             ...         1320
Cavity Volume                                     ...     738.6386
Cavity Surface-area                               ...     498.5980
Calculating surface distance matrix               ...        done! (  0.0s)
Performing Cholesky decomposition & store         ...        done! (  0.1s)
Overall time for CPCM initialization              ...                 0.1s

----------------------------------------D-I-I-S--------------------------------------------
Iteration    Energy (Eh)           Delta-E    RMSDP     MaxDP     DIISErr   Damp  Time(sec)
-------------------------------------------------------------------------------------------
               ***  Starting incremental Fock matrix formation  ***
    1    -272.7579797595179798     0.00e+00  3.74e-03  9.24e-02  6.25e-01  0.700   3.0
    2    -272.8044814641549465    -4.65e-02  3.12e-03  7.58e-02  4.40e-01  0.700   2.5
    3    -272.8375213269965798    -3.30e-02  2.33e-03  5.53e-02  3.09e-01  0.700   2.4
    4    -272.8607742805098724    -2.33e-02  1.68e-03  3.93e-02  2.16e-01  0.700   2.3
                               ***Turning on AO-DIIS***
    5    -272.8771142577428463    -1.63e-02  1.23e-03  2.81e-02  1.51e-01  0.700   2.3
    6    -272.8885836676021199    -1.15e-02  8.77e-04  1.99e-02  1.06e-01  0.700   2.3
    7    -272.8966345689207174    -8.05e-03  6.21e-04  1.40e-02  7.39e-02  0.700   2.2
    8    -272.9022803583890209    -5.65e-03  1.46e-03  3.26e-02  5.19e-02  0.000   2.2
                              *** Initializing SOSCF ***
---------------------------------------S-O-S-C-F--------------------------------------
Iteration    Energy (Eh)           Delta-E    RMSDP     MaxDP     MaxGrad    Time(sec)
--------------------------------------------------------------------------------------
    9    -272.9154900654391440    -1.32e-02  1.59e-05  4.26e-04  1.69e-04     2.3
               *** Restarting incremental Fock matrix formation ***
   10    -272.9154902262158657    -1.61e-07  8.06e-06  1.69e-04  2.97e-05     2.6
                  *** Gradient check signals convergence ***

               *****************************************************
               *                     SUCCESS                       *
               *           SCF CONVERGED AFTER  10 CYCLES          *
               *****************************************************


SMD CDS free energy correction energy :                 3.43474     Kcal/mol
Total Energy after SMD CDS correction =              -272.910016619 Eh
             **** ENERGY FILE WAS UPDATED (sp_solv.en.tmp) ****

----------------
TOTAL SCF ENERGY
----------------

Total Energy       :       -272.91001661901589 Eh           -7426.25910 eV

Components:
Nuclear Repulsion  :        258.71470398711892 Eh            7039.98500 eV
Electronic Energy  :       -531.61641386633664 Eh          -14466.01806 eV
One Electron Energy:       -881.30355389842157 Eh          -23981.48890 eV
Two Electron Energy:        349.68714003208498 Eh            9515.47084 eV
CPCM Dielectric    :         -0.01378034699814 Eh              -0.37498 eV
SMD CDS (Gcds)     :          0.00547360719995 Eh               0.14894 eV

Virial components:
Potential Energy   :       -544.59891027440517 Eh          -14819.28975 eV
Kinetic Energy     :        271.68889365538934 Eh            7393.03065 eV
Virial Ratio       :          2.00449456342214

DFT components:
N(Alpha)           :       24.999996886451 electrons
N(Beta)            :       24.999996886451 electrons
N(Total)           :       49.999993772903 electrons
E(X)               :      -38.586263649711 Eh       
E(C)               :       -1.562743999445 Eh       
E(XC)              :      -40.149007649156 Eh       

CPCM Solvation Model Properties:
Surface-charge          :         -0.04672957064413
Corrected charge        :         -0.00000000000000
Outlying charge corr.   :          0.00018081537442 Eh               0.00492 eV
Free-energy (cav+disp)  :          0.00547360719995 Eh               0.14894 eV

---------------
SCF CONVERGENCE
---------------

  Last Energy change         ...    1.6078e-07  Tolerance :   1.0000e-06
  Last MAX-Density change    ...    1.6938e-04  Tolerance :   1.0000e-05
  Last RMS-Density change    ...    8.0564e-06  Tolerance :   1.0000e-06
  Last DIIS Error            ...    1.6875e-04  Tolerance :   1.0000e-06
  Last Orbital Gradient      ...    2.9705e-05  Tolerance :   3.3300e-04
  Last Orbital Rotation      ...    5.6855e-05  Tolerance :   3.3300e-04


----------------
ORBITAL ENERGIES
----------------

  NO   OCC          E(Eh)            E(eV) 
   0   2.0000     -18.949000      -515.6285 
   1   2.0000     -10.065930      -273.9079 
   2   2.0000     -10.023546      -272.7545 
   3   2.0000     -10.014470      -272.5076 
   4   2.0000     -10.005710      -272.2692 
   5   2.0000     -10.005466      -272.2626 
   6   2.0000      -0.984772       -26.7970 
   7   2.0000      -0.767187       -20.8762 
   8   2.0000      -0.683632       -18.6026 
   9   2.0000      -0.641252       -17.4494 
  10   2.0000      -0.588762       -16.0210 
  11   2.0000      -0.522844       -14.2273 
  12   2.0000      -0.456134       -12.4120 
  13   2.0000      -0.430862       -11.7244 
  14   2.0000      -0.417189       -11.3523 
  15   2.0000      -0.387784       -10.5521 
  16   2.0000      -0.384010       -10.4495 
  17   2.0000      -0.355438        -9.6720 
  18   2.0000      -0.344836        -9.3835 
  19   2.0000      -0.322405        -8.7731 
  20   2.0000      -0.306071        -8.3286 
  21   2.0000      -0.292226        -7.9519 
  22   2.0000      -0.285137        -7.7590 
  23   2.0000      -0.274119        -7.4592 
  24   2.0000      -0.236127        -6.4253 
  25   0.0000       0.077093         2.0978 
  26   0.0000       0.105808         2.8792 
  27   0.0000       0.119869         3.2618 
  28   0.0000       0.127519         3.4700 
  29   0.0000       0.138763         3.7759 
  30   0.0000       0.144322         3.9272 
  31   0.0000       0.150882         4.1057 
  32   0.0000       0.159139         4.3304 
  33   0.0000       0.172416         4.6917 
  34   0.0000       0.173834         4.7303 
  35   0.0000       0.181975         4.9518 
*Only the first 10 virtual orbitals were printed.

                    ********************************
                    * MULLIKEN POPULATION ANALYSIS *
                    ********************************

-----------------------
MULLIKEN ATOMIC CHARGES
-----------------------
   0 C :   -0.549372
   1 C :   -0.018373
   2 C :   -0.515094
   3 C :   -0.265339
   4 C :   -0.199485
   5 O :   -0.507550
   6 H :    0.156405
   7 H :    0.156362
   8 H :    0.162636
   9 H :    0.155227
  10 H :    0.157050
  11 H :    0.157327
  12 H :    0.154586
  13 H :    0.154439
  14 H :    0.159416
  15 H :    0.144197
  16 H :    0.148394
  17 H :    0.349172
Sum of atomic charges:    0.0000000

--------------------------------
MULLIKEN REDUCED ORBITAL CHARGES
--------------------------------
  0 C s       :     3.354129  s :     3.354129
      pz      :     1.096734  p :     3.168129
      px      :     1.090645
      py      :     0.980750
      dz2     :     0.005337  d :     0.027114
      dxz     :     0.006295
      dyz     :     0.003222
      dx2y2   :     0.004461
      dxy     :     0.007799

  1 C s       :     3.087155  s :     3.087155
      pz      :     1.038166  p :     2.885113
      px      :     0.948320
      py      :     0.898627
      dz2     :     0.009402  d :     0.046105
      dxz     :     0.010504
      dyz     :     0.005315
      dx2y2   :     0.009616
      dxy     :     0.011268

  2 C s       :     3.343732  s :     3.343732
      pz      :     1.090990  p :     3.144188
      px      :     1.011766
      py      :     1.041432
      dz2     :     0.005354  d :     0.027174
      dxz     :     0.008114
      dyz     :     0.001342
      dx2y2   :     0.006679
      dxy     :     0.005685

  3 C s       :     3.190345  s :     3.190345
      pz      :     1.023964  p :     3.039599
      px      :     0.937757
      py      :     1.077878
      dz2     :     0.008666  d :     0.035395
      dxz     :     0.007797
      dyz     :     0.003248
      dx2y2   :     0.009838
      dxy     :     0.005846

  4 C s       :     3.318166  s :     3.318166
      pz      :     0.828550  p :     2.822411
      px      :     0.974925
      py      :     1.018936
      dz2     :     0.015602  d :     0.058908
      dxz     :     0.017717
      dyz     :     0.007551
      dx2y2   :     0.011931
      dxy     :     0.006106

  5 O s       :     3.751744  s :     3.751744
      pz      :     1.521476  p :     4.735749
      px      :     1.830288
      py      :     1.383985
      dz2     :     0.005158  d :     0.020056
      dxz     :     0.001792
      dyz     :     0.002599
      dx2y2   :     0.008916
      dxy     :     0.001591

  6 H s       :     0.825082  s :     0.825082
      pz      :     0.003805  p :     0.018513
      px      :     0.007848
      py      :     0.006860

  7 H s       :     0.825314  s :     0.825314
      pz      :     0.007256  p :     0.018324
      px      :     0.007176
      py      :     0.003893

  8 H s       :     0.819148  s :     0.819148
      pz      :     0.009506  p :     0.018215
      px      :     0.004994
      py      :     0.003715

  9 H s       :     0.827103  s :     0.827103
      pz      :     0.009428  p :     0.017669
      px      :     0.004889
      py      :     0.003353

 10 H s       :     0.824635  s :     0.824635
      pz      :     0.007141  p :     0.018315
      px      :     0.007293
      py      :     0.003881

 11 H s       :     0.824364  s :     0.824364
      pz      :     0.003835  p :     0.018309
      px      :     0.004197
      py      :     0.010277

 12 H s       :     0.827163  s :     0.827163
      pz      :     0.009586  p :     0.018251
      px      :     0.005023
      py      :     0.003641

 13 H s       :     0.827574  s :     0.827574
      pz      :     0.009565  p :     0.017987
      px      :     0.004147
      py      :     0.004275

 14 H s       :     0.822649  s :     0.822649
      pz      :     0.003525  p :     0.017934
      px      :     0.003437
      py      :     0.010972

 15 H s       :     0.838658  s :     0.838658
      pz      :     0.007599  p :     0.017144
      px      :     0.006138
      py      :     0.003406

 16 H s       :     0.834064  s :     0.834064
      pz      :     0.002519  p :     0.017542
      px      :     0.003462
      py      :     0.011560

 17 H s       :     0.608061  s :     0.608061
      pz      :     0.008524  p :     0.042767
      px      :     0.011485
      py      :     0.022758


------------------------
MULLIKEN OVERLAP CHARGES
------------------------
B(  0-C ,  1-C ) :   0.4610 B(  0-C ,  2-C ) :  -0.2170 B(  0-C ,  3-C ) :  -0.2486 
B(  0-C ,  6-H ) :   0.7980 B(  0-C ,  7-H ) :   0.8026 B(  0-C ,  8-H ) :   0.8831 
B(  1-C ,  2-C ) :   0.4112 B(  1-C ,  3-C ) :   0.1555 B(  1-C ,  4-C ) :  -0.0703 
B(  1-C ,  5-O ) :   0.0542 B(  1-C ,  6-H ) :  -0.0674 B(  1-C ,  7-H ) :  -0.0804 
B(  1-C ,  8-H ) :  -0.1051 B(  1-C ,  9-H ) :   0.8994 B(  1-C , 10-H ) :  -0.0925 
B(  1-C , 11-H ) :  -0.0880 B(  1-C , 12-H ) :  -0.0840 B(  1-C , 13-H ) :  -0.0624 
B(  1-C , 14-H ) :  -0.1367 B(  2-C ,  3-C ) :  -0.1126 B(  2-C ,  9-H ) :  -0.0884 
B(  2-C , 10-H ) :   0.8233 B(  2-C , 11-H ) :   0.8282 B(  2-C , 12-H ) :   0.8404 
B(  3-C ,  4-C ) :   0.3134 B(  3-C ,  5-O ) :  -0.2544 B(  3-C ,  9-H ) :  -0.1560 
B(  3-C , 13-H ) :   0.7432 B(  3-C , 14-H ) :   0.8634 B(  3-C , 15-H ) :  -0.1643 
B(  3-C , 16-H ) :  -0.0654 B(  4-C ,  5-O ) :   0.4957 B(  4-C , 15-H ) :   0.8924 
B(  4-C , 16-H ) :   0.8542 B(  4-C , 17-H ) :  -0.0743 B(  5-O , 15-H ) :  -0.0906 
B(  5-O , 16-H ) :  -0.1104 B(  5-O , 17-H ) :   0.6306 B( 15-H , 16-H ) :  -0.0614 



                     *******************************
                     * LOEWDIN POPULATION ANALYSIS *
                     *******************************

----------------------
LOEWDIN ATOMIC CHARGES
----------------------
   0 C :   -0.424088
   1 C :   -0.247241
   2 C :   -0.424775
   3 C :   -0.294014
   4 C :    0.000835
   5 O :   -0.661191
   6 H :    0.155151
   7 H :    0.155583
   8 H :    0.155872
   9 H :    0.160917
  10 H :    0.154557
  11 H :    0.154804
  12 H :    0.156202
  13 H :    0.168699
  14 H :    0.164430
  15 H :    0.162771
  16 H :    0.178310
  17 H :    0.283180

-------------------------------
LOEWDIN REDUCED ORBITAL CHARGES
-------------------------------
  0 C s       :     2.970242  s :     2.970242
      pz      :     1.157969  p :     3.390413
      px      :     1.144502
      py      :     1.087942
      dz2     :     0.013316  d :     0.063433
      dxz     :     0.015671
      dyz     :     0.006282
      dx2y2   :     0.010117
      dxy     :     0.018047

  1 C s       :     2.907414  s :     2.907414
      pz      :     1.112838  p :     3.245002
      px      :     1.066976
      py      :     1.065189
      dz2     :     0.020617  d :     0.094825
      dxz     :     0.022893
      dyz     :     0.009157
      dx2y2   :     0.018592
      dxy     :     0.023567

  2 C s       :     2.972807  s :     2.972807
      pz      :     1.156672  p :     3.388397
      px      :     1.108700
      py      :     1.123025
      dz2     :     0.013351  d :     0.063572
      dxz     :     0.019266
      dyz     :     0.002683
      dx2y2   :     0.014713
      dxy     :     0.013559

  3 C s       :     2.941312  s :     2.941312
      pz      :     1.101453  p :     3.275978
      px      :     1.048662
      py      :     1.125863
      dz2     :     0.018794  d :     0.076724
      dxz     :     0.017277
      dyz     :     0.006907
      dx2y2   :     0.021836
      dxy     :     0.011909

  4 C s       :     2.872032  s :     2.872032
      pz      :     0.920210  p :     2.995394
      px      :     1.023648
      py      :     1.051537
      dz2     :     0.036589  d :     0.131738
      dxz     :     0.040653
      dyz     :     0.015186
      dx2y2   :     0.027025
      dxy     :     0.012285

  5 O s       :     3.517538  s :     3.517538
      pz      :     1.605884  p :     4.863779
      px      :     1.807041
      py      :     1.450853
      dz2     :     0.086828  d :     0.279874
      dxz     :     0.067055
      dyz     :     0.051835
      dx2y2   :     0.053403
      dxy     :     0.020752

  6 H s       :     0.800292  s :     0.800292
      pz      :     0.008456  p :     0.044558
      px      :     0.019414
      py      :     0.016688

  7 H s       :     0.800414  s :     0.800414
      pz      :     0.017736  p :     0.044003
      px      :     0.017246
      py      :     0.009021

  8 H s       :     0.800266  s :     0.800266
      pz      :     0.023693  p :     0.043862
      px      :     0.011651
      py      :     0.008518

  9 H s       :     0.795161  s :     0.795161
      pz      :     0.023472  p :     0.043922
      px      :     0.012070
      py      :     0.008380

 10 H s       :     0.801481  s :     0.801481
      pz      :     0.017444  p :     0.043962
      px      :     0.017658
      py      :     0.008861

 11 H s       :     0.801379  s :     0.801379
      pz      :     0.008448  p :     0.043817
      px      :     0.009834
      py      :     0.025535

 12 H s       :     0.799917  s :     0.799917
      pz      :     0.023911  p :     0.043882
      px      :     0.011752
      py      :     0.008218

 13 H s       :     0.786834  s :     0.786834
      pz      :     0.023937  p :     0.044467
      px      :     0.010320
      py      :     0.010211

 14 H s       :     0.792004  s :     0.792004
      pz      :     0.008132  p :     0.043566
      px      :     0.008113
      py      :     0.027321

 15 H s       :     0.796782  s :     0.796782
      pz      :     0.017273  p :     0.040447
      px      :     0.015226
      py      :     0.007948

 16 H s       :     0.781573  s :     0.781573
      pz      :     0.005884  p :     0.040117
      px      :     0.007754
      py      :     0.026479

 17 H s       :     0.593769  s :     0.593769
      pz      :     0.023301  p :     0.123051
      px      :     0.030794
      py      :     0.068956


---------------------------------
LOEWDIN BOND ORDERS (THRESH 0.050000)
---------------------------------
B(  0-C ,  1-C ) :   1.1110 B(  0-C ,  2-C ) :   0.0717 B(  0-C ,  3-C ) :   0.0655 
B(  0-C ,  6-H ) :   0.9209 B(  0-C ,  7-H ) :   0.9240 B(  0-C ,  8-H ) :   0.9229 
B(  1-C ,  2-C ) :   1.1125 B(  1-C ,  3-C ) :   1.0658 B(  1-C ,  4-C ) :   0.0630 
B(  1-C ,  9-H ) :   0.8546 B(  2-C ,  3-C ) :   0.0765 B(  2-C , 10-H ) :   0.9235 
B(  2-C , 11-H ) :   0.9253 B(  2-C , 12-H ) :   0.9211 B(  3-C ,  4-C ) :   1.0464 
B(  3-C ,  5-O ) :   0.1665 B(  3-C , 13-H ) :   0.8765 B(  3-C , 14-H ) :   0.8784 
B(  4-C ,  5-O ) :   1.4503 B(  4-C , 15-H ) :   0.8334 B(  4-C , 16-H ) :   0.8234 
B(  5-O , 15-H ) :   0.1054 B(  5-O , 16-H ) :   0.1002 B(  5-O , 17-H ) :   0.9634 


------------------------------------------
LOEWDIN REDUCED ORBITAL POPULATIONS PER MO
-------------------------------------------
THRESHOLD FOR PRINTING IS 0.1%%
                      0         1         2         3         4         5   
                 -18.94900 -10.06593 -10.02355 -10.01447 -10.00571 -10.00547
                   2.00000   2.00000   2.00000   2.00000   2.00000   2.00000
                  --------  --------  --------  --------  --------  --------
 0 C  s               0.0       0.0       0.0       0.0       0.0      99.7
 1 C  s               0.0       0.0      99.6       0.0       0.0       0.0
 2 C  s               0.0       0.0       0.0       0.0      99.7       0.0
 3 C  s               0.0       0.0       0.0      99.7       0.0       0.0
 4 C  s               0.0      99.4       0.0       0.0       0.0       0.0
 5 O  s              99.9       0.0       0.0       0.0       0.0       0.0
 5 O  dz2             0.0       0.1       0.0       0.0       0.0       0.0
 5 O  dxz             0.0       0.1       0.0       0.0       0.0       0.0

                      6         7         8         9        10        11   
                  -0.98477  -0.76719  -0.68363  -0.64125  -0.58876  -0.52284
                   2.00000   2.00000   2.00000   2.00000   2.00000   2.00000
                  --------  --------  --------  --------  --------  --------
 0 C  s               0.0      10.9       5.5      25.1       1.5       3.5
 0 C  pz              0.0       0.0       0.1       0.0       0.0       1.0
 0 C  px              0.0       0.3       0.3       0.0       0.4       1.8
 0 C  py              0.0       2.9       0.2       1.0       0.4       5.2
 1 C  s               0.1      26.4       2.1       0.0       1.7      12.0
 1 C  pz              0.0       0.9       1.2       0.0       1.0       5.3
 1 C  px              0.3       0.0       7.1       0.5       4.7       2.0
 1 C  py              0.0       0.0       0.1      15.3       0.3       0.1
 1 C  dx2y2           0.0       0.0       0.0       0.1       0.0       0.0
 1 C  dxy             0.0       0.0       0.0       0.3       0.0       0.0
 2 C  s               0.0      10.8       8.1      19.7       5.5       2.6
 2 C  pz              0.0       0.0       0.1       0.0       0.1       1.0
 2 C  px              0.0       1.9       0.0       0.0       1.9       4.3
 2 C  py              0.0       1.4       0.2       1.0       0.1       1.6
 2 C  dxy             0.0       0.1       0.0       0.0       0.0       0.1
 3 C  s               0.8      15.3      14.3       0.4       8.8       3.0
 3 C  pz              0.3       1.3       0.5       0.0       0.0       8.7
 3 C  px              1.1       1.2       4.6       0.1       3.5       1.2
 3 C  py              0.1       0.3       0.2       1.0       1.4       0.6
 3 C  dxz             0.0       0.1       0.0       0.0       0.0       0.1
 4 C  s               9.5       2.7      15.8       0.0      11.7       0.1
 4 C  pz              6.2       0.4       1.9       0.0       0.1       4.0
 4 C  px              1.3       2.9       2.2       0.0       3.5       0.5
 4 C  py              1.3       0.1       0.0       0.1       3.8       1.7
 4 C  dz2             0.2       0.0       0.0       0.0       0.0       0.0
 4 C  dxz             0.3       0.0       0.0       0.0       0.0       0.0
 4 C  dyz             0.2       0.0       0.0       0.0       0.0       0.0
 5 O  s              61.3       1.0       3.0       0.0       0.8       0.0
 5 O  pz              1.8       0.3       3.1       0.0       5.9       0.4
 5 O  px              0.2       0.2       1.1       0.0       0.8       0.9
 5 O  py              0.4       0.2       2.3       0.0      10.3       6.1
 5 O  dz2             0.1       0.0       0.5       0.0       0.7       0.0
 5 O  dxz             0.1       0.2       0.8       0.0       0.1       0.0
 5 O  dyz             0.0       0.0       0.2       0.0       0.6       0.1
 5 O  dxy             0.0       0.0       0.0       0.0       0.1       0.0
 6 H  s               0.0       1.4       0.8       6.6       0.5       1.5
 6 H  px              0.0       0.1       0.0       0.3       0.0       0.1
 6 H  py              0.0       0.1       0.0       0.2       0.0       0.0
 7 H  s               0.0       1.4       1.2       5.8       0.8       1.9
 7 H  pz              0.0       0.1       0.1       0.2       0.0       0.1
 7 H  px              0.0       0.1       0.0       0.2       0.0       0.0
 8 H  s               0.0       1.4       1.0       5.7       0.5       3.3
 8 H  pz              0.0       0.1       0.1       0.4       0.0       0.2
 9 H  s               0.0       3.3       0.3       0.0       0.4       9.0
 9 H  pz              0.0       0.3       0.0       0.0       0.1       0.5
10 H  s               0.0       1.4       1.7       4.3       2.4       1.4
10 H  pz              0.0       0.1       0.1       0.2       0.1       0.1
10 H  px              0.0       0.1       0.1       0.2       0.1       0.0
11 H  s               0.0       1.3       1.4       5.3       1.4       1.4
11 H  py              0.0       0.1       0.1       0.4       0.1       0.0
12 H  s               0.0       1.4       1.5       4.5       1.7       2.6
12 H  pz              0.0       0.1       0.1       0.3       0.1       0.1
13 H  s               0.0       2.0       2.8       0.0       2.6       3.5
13 H  pz              0.0       0.2       0.2       0.0       0.2       0.1
14 H  s               0.0       1.9       2.6       0.3       3.2       2.4
14 H  py              0.0       0.2       0.3       0.0       0.3       0.1
15 H  s               0.7       0.3       3.3       0.0       4.3       0.3
15 H  pz              0.0       0.0       0.1       0.0       0.2       0.0
15 H  px              0.0       0.0       0.1       0.0       0.1       0.0
16 H  s               0.7       0.4       3.3       0.0       5.9       0.5
16 H  py              0.1       0.0       0.3       0.0       0.4       0.0
17 H  s              10.3       0.3       1.6       0.0       3.6       1.8
17 H  py              2.3       0.1       0.3       0.0       0.4       0.1

                     12        13        14        15        16        17   
                  -0.45613  -0.43086  -0.41719  -0.38778  -0.38401  -0.35544
                   2.00000   2.00000   2.00000   2.00000   2.00000   2.00000
                  --------  --------  --------  --------  --------  --------
 0 C  s               0.1       0.6       0.0       0.2       0.0       0.0
 0 C  pz              2.4       4.7       0.3       1.0       9.5       2.1
 0 C  px              0.0       0.5       7.0       3.8       1.5      25.5
 0 C  py              0.8       5.7       2.8       7.6       0.3       0.1
 0 C  dz2             0.0       0.0       0.0       0.0       0.0       0.2
 1 C  s               1.0       0.8       0.8       0.1       0.1       0.0
 1 C  pz              7.7       7.3       1.2       0.4       5.1       0.1
 1 C  px              0.3       1.7       6.6       2.9       0.8       0.8
 1 C  py              0.1       1.5       0.7       4.6       0.7       7.4
 1 C  dx2y2           0.0       0.0       0.0       0.1       0.0       0.1
 2 C  s               0.0       0.1       0.6       0.0       0.0       0.1
 2 C  pz              2.9       2.9       0.9       1.7       8.7       0.3
 2 C  px              0.1       0.0       3.0      12.6       0.4       5.7
 2 C  py              0.5       3.3       6.4      12.8       0.0       0.5
 2 C  dxy             0.0       0.1       0.1       0.0       0.0       0.0
 3 C  s               1.0       0.2       0.0       0.4       0.8       0.1
 3 C  pz              0.1       3.2       1.4       0.9      12.1       4.7
 3 C  px              5.6       5.5       1.3       3.8       0.5       1.3
 3 C  py              0.2      11.6       8.3       2.2       1.5       0.6
 3 C  dxz             0.0       0.0       0.0       0.2       0.0       0.0
 3 C  dx2y2           0.0       0.0       0.0       0.0       0.2       0.0
 3 C  dxy             0.0       0.0       0.1       0.0       0.0       0.2
 4 C  s               2.1       0.3       0.1       0.1       0.6       0.6
 4 C  pz             17.5       3.0       0.9       1.7       0.8       0.3
 4 C  px              0.5       0.6      15.1       7.5       0.8       5.0
 4 C  py              1.1      10.6       6.4       1.9       5.7       5.1
 4 C  dz2             0.2       0.0       0.1       0.0       0.0       0.1
 4 C  dxz             0.3       0.0       0.0       0.1       0.0       0.1
 4 C  dyz             0.0       0.0       0.0       0.0       0.1       0.0
 4 C  dx2y2           0.0       0.0       0.0       0.0       0.0       0.1
 5 O  s               2.1       0.5       0.2       0.0       2.8       0.1
 5 O  pz              0.5       3.7      11.1       0.1       9.5       7.4
 5 O  px              2.3       6.2       0.9       5.5       5.6       1.6
 5 O  py             26.6       0.3       1.4       0.1       8.2       1.0
 5 O  dz2             0.3       0.0       0.7       0.1       0.0       0.2
 5 O  dxz             0.0       0.2       0.2       0.2       0.2       0.3
 5 O  dyz             0.0       0.4       0.1       0.1       0.1       0.2
 5 O  dx2y2           0.1       0.3       0.0       0.1       0.0       0.0
 5 O  dxy             0.0       0.2       0.2       0.0       0.0       0.1
 6 H  s               0.1       1.3       3.9       4.9       0.0       5.8
 6 H  py              0.0       0.0       0.1       0.0       0.0       0.2
 7 H  s               0.1       3.3       0.4       0.6       4.4       3.0
 7 H  pz              0.0       0.0       0.0       0.0       0.0       0.2
 8 H  s               1.0       0.1       0.7       0.3       1.8       5.7
 8 H  pz              0.0       0.0       0.0       0.0       0.0       0.2
 9 H  s               2.8       1.5       0.5       0.1       0.8       0.1
10 H  s               0.2       0.4       1.5       6.7       1.1       2.0
10 H  pz              0.0       0.0       0.0       0.1       0.0       0.0
11 H  s               0.1       1.6       2.5       7.5       0.1       0.0
11 H  py              0.0       0.0       0.1       0.2       0.0       0.0
12 H  s               0.8       0.8       0.1       0.1       4.0       0.2
13 H  s               1.1       2.9       0.0       0.7       5.7       3.6
13 H  pz              0.1       0.1       0.0       0.0       0.1       0.1
13 H  py              0.0       0.0       0.1       0.0       0.1       0.0
14 H  s               0.5       5.3       2.2       0.3       2.0       0.2
14 H  py              0.0       0.2       0.1       0.0       0.1       0.0
15 H  s               8.8       0.9       3.5       3.1       0.0       0.6
15 H  pz              0.1       0.0       0.2       0.1       0.0       0.0
15 H  px              0.3       0.0       0.0       0.0       0.0       0.0
16 H  s               0.0       3.7       3.8       0.8       1.2       4.8
16 H  pz              0.1       0.1       0.0       0.0       0.0       0.0
16 H  px              0.0       0.0       0.1       0.0       0.0       0.0
16 H  py              0.0       0.1       0.1       0.0       0.0       0.1
17 H  s               6.4       0.6       0.6       0.1       0.6       0.4
17 H  pz              0.0       0.1       0.2       0.0       0.1       0.1
17 H  px              0.0       0.1       0.0       0.1       0.1       0.0
17 H  py              0.2       0.1       0.0       0.0       0.0       0.0

                     18        19        20        21        22        23   
                  -0.34484  -0.32240  -0.30607  -0.29223  -0.28514  -0.27412
                   2.00000   2.00000   2.00000   2.00000   2.00000   2.00000
                  --------  --------  --------  --------  --------  --------
 0 C  s               0.0       0.0       0.1       0.0       1.1       0.0
 0 C  pz             22.9       6.7       3.0       0.6       0.6       2.7
 0 C  px              0.1       3.9       0.9       9.1       1.9       0.2
 0 C  py              0.0       1.2       3.1       0.3      19.6       2.8
 0 C  dxz             0.2       0.2       0.1       0.1       0.0       0.1
 0 C  dyz             0.0       0.0       0.1       0.0       0.0       0.1
 0 C  dx2y2           0.0       0.0       0.0       0.1       0.1       0.0
 0 C  dxy             0.0       0.1       0.1       0.3       0.1       0.0
 1 C  s               0.0       0.0       0.1       0.0       0.1       0.3
 1 C  pz              0.0       0.1       4.0       1.8       4.9      12.0
 1 C  px              0.0       0.3       1.7      18.5       3.4       0.3
 1 C  py              0.3       0.2       3.4       0.7      14.6       3.2
 1 C  dz2             0.0       0.0       0.0       0.1       0.4       0.2
 1 C  dxz             0.0       0.0       0.2       0.2       0.1       0.3
 1 C  dyz             0.3       0.0       0.0       0.0       0.0       0.0
 1 C  dx2y2           0.0       0.0       0.0       0.1       0.3       0.1
 1 C  dxy             0.0       0.0       0.1       0.4       0.2       0.1
 2 C  s               0.0       0.0       0.1       0.6       0.0       0.5
 2 C  pz             30.1       0.3       4.4       0.5       1.7       1.8
 2 C  px              0.6       7.8       0.6      13.0       0.4       1.9
 2 C  py              1.1      10.2       5.7       3.4       5.5       2.1
 2 C  dz2             0.1       0.1       0.0       0.0       0.1       0.0
 2 C  dxz             0.2       0.0       0.2       0.1       0.1       0.1
 2 C  dx2y2           0.0       0.2       0.1       0.0       0.3       0.0
 2 C  dxy             0.0       0.0       0.0       0.1       0.0       0.0
 3 C  s               0.0       0.0       0.0       1.0       0.0       0.9
 3 C  pz              0.5       3.4       0.1       8.1       1.4       8.3
 3 C  px              0.0       0.6       4.7       6.2       1.2       0.2
 3 C  py              1.9      13.7       0.3       0.3       5.9       5.4
 3 C  dz2             0.0       0.1       0.0       0.0       0.4       0.1
 3 C  dxz             0.0       0.1       0.0       0.1       0.0       0.2
 3 C  dyz             0.0       0.0       0.0       0.0       0.1       0.0
 3 C  dx2y2           0.0       0.2       0.0       0.0       0.1       0.5
 4 C  s               0.1       0.3       0.0       0.1       0.0       0.1
 4 C  pz              0.1       0.8       4.4       0.0       0.1       2.7
 4 C  px              0.0       0.7       0.2       2.1       0.2       1.0
 4 C  py              0.7       1.0       5.5       0.7       0.6       6.2
 4 C  dz2             0.0       0.0       0.2       0.1       0.0       0.0
 4 C  dyz             0.0       0.1       0.1       0.0       0.0       0.0
 4 C  dx2y2           0.0       0.0       0.3       0.1       0.1       0.5
 5 O  s               0.0       0.2       2.4       0.1       0.0       1.2
 5 O  pz              1.0       4.7      13.4       3.0       0.7       4.9
 5 O  px              0.0       2.2       0.4      11.1       0.2       1.9
 5 O  py              0.0       0.9       9.3       0.0       0.0       4.4
 5 O  dz2             0.0       0.0       0.5       0.0       0.0       0.5
 5 O  dxz             0.0       0.0       0.0       0.0       0.2       0.2
 5 O  dyz             0.0       0.0       0.2       0.0       0.0       0.2
 5 O  dx2y2           0.0       0.0       0.8       0.0       0.2       0.5
 5 O  dxy             0.0       0.0       0.2       0.0       0.0       0.1
 6 H  s               0.4       2.5       3.0       5.0       0.8       1.5
 6 H  pz              0.2       0.1       0.0       0.0       0.0       0.0
 6 H  px              0.0       0.0       0.0       0.0       0.1       0.1
 6 H  py              0.0       0.0       0.0       0.0       0.1       0.0
 7 H  s               4.7       5.5       0.5       4.9       0.2       1.0
 7 H  px              0.2       0.0       0.0       0.0       0.0       0.0
 7 H  py              0.0       0.0       0.0       0.0       0.2       0.0
 8 H  s               9.8       1.4       2.9       0.1       1.7       2.5
 8 H  px              0.1       0.1       0.0       0.1       0.0       0.0
 8 H  py              0.0       0.0       0.0       0.0       0.2       0.0
 9 H  s               0.0       0.2       4.2       0.1       8.8       7.6
 9 H  px              0.0       0.0       0.0       0.1       0.0       0.0
 9 H  py              0.0       0.0       0.0       0.0       0.1       0.1
10 H  s               4.5       5.2       2.0       3.9       0.0       0.4
10 H  pz              0.0       0.1       0.0       0.0       0.0       0.0
10 H  px              0.2       0.0       0.1       0.0       0.0       0.0
11 H  s               1.9       8.3       1.7       0.0       5.4       0.2
11 H  pz              0.2       0.0       0.0       0.0       0.0       0.0
11 H  px              0.0       0.0       0.0       0.1       0.0       0.0
11 H  py              0.1       0.1       0.0       0.0       0.0       0.0
12 H  s              14.1       0.5       2.5       0.0       3.2       1.8
12 H  pz              0.2       0.0       0.0       0.0       0.0       0.0
12 H  px              0.1       0.0       0.0       0.1       0.0       0.0
13 H  s               0.9       5.2       0.1       0.5       4.7       2.6
13 H  pz              0.0       0.1       0.0       0.0       0.0       0.0
13 H  py              0.0       0.0       0.0       0.0       0.0       0.1
14 H  s               0.8       8.0       0.1       0.0       5.9       3.8
14 H  py              0.0       0.1       0.0       0.0       0.0       0.0
15 H  s               0.0       0.5       3.0       0.1       0.2       1.8
16 H  s               0.7       0.9       5.9       0.1       0.9       5.5
17 H  s               0.0       0.1       1.9       0.1       0.0       1.0
17 H  pz              0.0       0.1       0.2       0.0       0.0       0.1
17 H  px              0.0       0.0       0.0       0.2       0.0       0.1

                     24        25        26        27        28        29   
                  -0.23613   0.07709   0.10581   0.11987   0.12752   0.13876
                   2.00000   0.00000   0.00000   0.00000   0.00000   0.00000
                  --------  --------  --------  --------  --------  --------
 0 C  s               0.0       3.7      11.3       0.3       9.6       4.5
 0 C  pz              0.3       0.0       0.5       4.6       2.1       1.6
 0 C  px              0.0       0.2       1.2       0.7       2.5       1.7
 0 C  py              0.0       0.6       2.1       1.4       9.8       9.1
 0 C  dxz             0.0       0.0       0.1       0.2       0.2       0.1
 0 C  dx2y2           0.0       0.1       0.3       0.0       0.1       0.0
 0 C  dxy             0.0       0.1       0.2       0.0       0.1       1.2
 1 C  s               0.0       3.0       4.1       2.2       1.0       0.8
 1 C  pz              2.3       1.0       1.5       1.6       0.7       0.1
 1 C  px              1.4       1.2       0.6       1.9       0.6       1.4
 1 C  py              0.1       0.2       0.2       0.2       2.5      12.9
 1 C  dz2             0.0       0.0       0.0       0.7       0.2       0.0
 1 C  dyz             0.0       0.0       0.0       0.1       0.1       0.1
 1 C  dx2y2           0.0       0.1       0.0       0.0       0.2       0.1
 1 C  dxy             0.0       0.1       0.0       0.0       0.0       2.0
 2 C  s               0.1       0.5      13.3       5.1       0.6       6.0
 2 C  pz              0.4       0.0       0.0       0.1       0.1       1.3
 2 C  px              1.1       0.7       1.7       0.4       2.3       5.6
 2 C  py              0.3       1.0       0.8       0.9       1.0       1.1
 2 C  dz2             0.0       0.0       0.1       0.2       0.2       0.1
 2 C  dxz             0.1       0.0       0.0       0.2       0.0       0.5
 2 C  dx2y2           0.0       0.1       0.0       0.0       0.2       0.0
 2 C  dxy             0.0       0.1       0.5       0.0       0.1       0.1
 3 C  s               0.4       2.2       4.5       1.6       3.8       1.7
 3 C  pz              0.0       0.2       3.2       2.1       0.5       6.7
 3 C  px              9.7       0.3       3.7      10.8       0.1       0.5
 3 C  py              0.6       1.6       0.2       0.7       4.7       3.5
 3 C  dz2             0.0       0.0       0.2       0.6       0.0       0.2
 3 C  dxz             0.0       0.4       0.0       0.3       0.0       0.1
 3 C  dyz             0.0       0.0       0.0       0.1       0.0       1.3
 3 C  dx2y2           0.0       0.0       0.1       0.5       0.6       0.1
 3 C  dxy             0.1       0.2       0.1       0.5       0.1       0.0
 4 C  s               0.1       6.3       0.4      14.7       1.5       0.1
 4 C  pz              1.3      12.2       3.9      14.6       4.3       0.2
 4 C  px              7.0       5.0       5.3       0.5       0.5       2.5
 4 C  py              0.1       4.9       2.6       3.8      13.2       4.9
 4 C  dz2             0.6       0.3       0.1       0.1       0.3       0.2
 4 C  dxz             1.0       0.8       0.0       0.0       0.0       0.1
 4 C  dyz             0.0       0.8       0.3       0.2       0.1       0.1
 4 C  dx2y2           0.1       0.0       0.0       0.0       0.4       0.0
 4 C  dxy             0.0       0.0       0.3       0.0       0.0       0.4
 5 O  s               0.0       9.8       2.3       0.8       0.0       0.2
 5 O  pz              9.0       2.1       0.8       1.1       0.2       0.1
 5 O  px             49.1       0.7       0.3       0.4       0.0       0.1
 5 O  py              1.0       2.2       0.1       0.7       3.2       0.4
 5 O  dz2             0.4       0.7       0.1       2.3       0.4       0.0
 5 O  dxz             0.6       0.5       0.0       0.4       0.0       0.0
 5 O  dyz             0.1       1.0       0.4       1.0       0.7       0.1
 5 O  dx2y2           0.1       1.2       1.0       0.0       0.2       0.0
 5 O  dxy             0.1       0.3       0.1       0.9       0.0       4.6
 6 H  s               0.0       0.9       1.6       0.2       4.9       1.4
 6 H  pz              0.0       0.0       0.0       0.1       0.2       0.0
 6 H  px              0.0       0.3       1.0       0.1       1.3       0.0
 6 H  py              0.0       0.0       0.0       0.0       1.3       0.0
 7 H  s               0.3       0.4       3.1       0.6       0.3       0.3
 7 H  pz              0.0       0.1       0.7       0.0       0.1       0.1
 7 H  px              0.0       0.1       0.6       0.0       0.1       0.2
 7 H  py              0.0       0.0       0.2       0.0       0.0       0.6
 8 H  s               0.1       0.4       1.6       0.5       0.8       0.9
 8 H  pz              0.0       0.1       0.9       0.0       0.2       0.2
 8 H  px              0.0       0.0       0.1       0.0       0.3       0.2
 8 H  py              0.0       0.0       0.0       0.0       0.0       0.5
 9 H  s               0.1       0.8       0.2       1.9       0.9       0.1
 9 H  pz              0.0       0.3       0.3       1.1       0.1       0.0
 9 H  px              0.1       0.3       0.0       0.0       0.0       0.0
 9 H  py              0.0       0.0       0.0       0.0       0.1       1.4
10 H  s               1.0       0.0       3.0       1.5       0.4       0.9
10 H  pz              0.0       0.0       0.8       0.7       0.1       0.0
10 H  px              0.0       0.0       0.3       0.1       0.0       0.1
10 H  py              0.0       0.1       0.5       0.0       0.0       0.0
11 H  s               0.0       0.5       2.4       0.1       0.5       0.5
11 H  pz              0.0       0.0       0.0       0.0       0.0       0.2
11 H  px              0.0       0.1       0.7       0.0       0.3       0.0
11 H  py              0.0       0.0       0.6       0.1       0.0       0.3
12 H  s               0.2       0.2       1.8       0.9       0.8       1.5
12 H  pz              0.0       0.0       1.1       0.6       0.2       0.2
12 H  px              0.0       0.0       0.0       0.0       0.0       0.8
12 H  py              0.0       0.1       0.1       0.0       0.0       0.0
13 H  s               0.2       2.0       1.0       1.3       0.3       2.8
13 H  pz              0.0       0.2       0.2       0.7       0.1       0.0
13 H  px              0.1       0.2       0.1       0.3       0.0       0.0
13 H  py              0.0       0.1       0.3       0.6       0.3       0.2
14 H  s               0.0       0.7       2.4       1.0       2.9       2.2
14 H  pz              0.0       0.0       0.0       0.1       0.1       1.0
14 H  px              0.1       0.2       0.2       0.5       0.0       0.0
14 H  py              0.0       0.2       0.8       0.2       1.5       0.8
15 H  s               8.4       1.4       0.2       1.8       0.1       1.4
15 H  pz              0.0       0.0       0.2       1.4       0.1       0.3
15 H  px              0.0       0.7       0.0       0.3       0.0       0.0
15 H  py              0.0       0.6       0.0       0.0       0.1       0.1
16 H  s               0.1       1.3       0.5       1.8       5.4       0.7
16 H  pz              0.0       0.9       0.2       0.1       0.2       0.0
16 H  px              0.1       0.0       0.5       0.0       0.0       0.2
16 H  py              0.0       0.2       0.1       1.3       2.1       0.4
17 H  s               0.0      15.7       2.3       0.1       4.3       0.3
17 H  pz              0.2       0.0       0.0       0.2       0.0       0.0
17 H  px              0.9       0.1       0.0       0.0       0.0       0.0
17 H  py              0.0       3.8       0.9       0.0       0.8       0.0

                     30        31        32        33        34        35   
                   0.14432   0.15088   0.15914   0.17242   0.17383   0.18198
                   0.00000   0.00000   0.00000   0.00000   0.00000   0.00000
                  --------  --------  --------  --------  --------  --------
 0 C  s               0.9       0.1       5.7       0.2       1.9       0.7
 0 C  pz              1.7       5.3       4.2       0.8       1.5       4.0
 0 C  px              2.0       1.5       2.2      15.5       2.3      20.0
 0 C  py              7.7       1.1      10.3       2.2       3.0       0.1
 0 C  dz2             0.9       0.1       0.0       1.0       0.3       0.0
 0 C  dxz             0.1       0.4       0.0       0.5       0.3       0.0
 0 C  dyz             0.1       0.2       0.4       0.0       0.0       0.1
 0 C  dx2y2           0.6       0.2       0.3       0.2       0.0       0.1
 0 C  dxy             0.0       0.0       0.1       0.4       0.2       0.2
 1 C  s               6.0       8.3       0.1       0.5       1.1       0.3
 1 C  pz              1.8       5.2       4.5       2.7       0.7       0.8
 1 C  px              1.8       0.3       4.5       7.0       0.7       1.4
 1 C  py              0.6       0.6       3.1       0.5       1.9       0.2
 1 C  dz2             0.5       0.2       0.0       0.9       0.1       0.1
 1 C  dxz             0.2       0.4       1.4       0.2       0.0       0.1
 1 C  dyz             0.2       0.2       0.0       0.0       0.0       0.0
 1 C  dx2y2           0.1       0.0       0.4       0.1       0.7       0.6
 1 C  dxy             0.0       0.0       0.0       0.0       0.0       0.1
 2 C  s               6.0       4.4       0.2       0.2       2.4       0.8
[...]
 3 C  pz              0.1       0.1       2.1       0.0       0.0       0.0
 3 C  px              0.5       0.1       0.5       0.1       0.0       0.0
 3 C  py              3.8       5.7       1.8       0.1       0.0       0.0
 3 C  dz2             0.3       1.1       3.7       0.1       0.0       0.0
 3 C  dxz             0.8       0.1       2.4       0.1       0.0       0.0
 3 C  dyz             0.6       0.0       1.1       0.1       0.0       0.0
 3 C  dx2y2           3.6       7.6       1.6       0.0       0.0       0.0
 3 C  dxy             0.5       1.3       0.2       0.1       0.0       0.0
 4 C  s               0.3       0.4       0.3       1.4       0.2       0.6
 4 C  pz              1.1       0.2       1.8       7.7       0.7       0.0
 4 C  px              4.7       1.4       0.3       0.9       0.2       0.0
 4 C  py              1.3       1.0       4.0       0.9       0.3       0.0
 4 C  dz2             2.9       0.1       2.0       3.5       0.9       0.0
 4 C  dxz             4.1       0.1       1.0       6.4       0.5       0.0
 4 C  dyz             0.0       0.0       0.2       3.2       0.4       0.0
 4 C  dx2y2           1.3       3.4       5.6       0.0       0.2       0.0
 4 C  dxy             1.2       0.6       0.1       0.5       0.0       0.0
 5 O  s               0.3       0.0       0.4      24.2       6.1       0.0
 5 O  pz              0.3       0.1       0.0      15.8       0.7       0.0
 5 O  px              0.1       0.0       0.0       3.0       0.9       0.0
 5 O  py              0.1       0.0       0.2       0.3      17.8       0.0
 5 O  dz2             0.5       0.2       0.0       4.3      13.0       0.0
 5 O  dxz             0.0       0.0       0.0      10.8       0.7       0.0
 5 O  dyz             0.3       0.0       0.3       4.2       2.1       0.0
 5 O  dx2y2           0.1       0.0       0.0       3.2      24.1       0.0
 5 O  dxy             0.0       0.0       0.0       2.6       0.7       0.0
 6 H  s               1.9       0.9       0.0       0.0       0.0       0.0
 6 H  pz              0.3       0.0       0.0       0.0       0.0       0.0
 6 H  px              2.1       1.6       0.3       0.0       0.0       0.0
 6 H  py              2.7       0.8       0.0       0.0       0.0       0.0
 7 H  s               1.8       0.1       0.0       0.0       0.0       0.0
 7 H  pz              2.8       0.0       0.1       0.0       0.0       0.0
 7 H  px              1.2       0.2       0.0       0.0       0.0       0.0
 8 H  s               0.4       1.4       0.0       0.0       0.0       0.0
 8 H  pz              1.2       2.2       0.2       0.0       0.0       0.0
 8 H  px              0.0       0.7       0.0       0.0       0.0       0.0
 8 H  py              0.0       0.3       0.0       0.0       0.0       0.0
 9 H  s               0.5       3.6       4.0       0.0       0.0       0.0
 9 H  pz              0.6       8.0       9.0       0.0       0.0       0.0
 9 H  px              0.7       2.2       1.2       0.0       0.0       0.0
 9 H  py              0.1       0.2       0.5       0.1       0.0       0.0
10 H  s               0.2       0.1       0.2       0.0       0.0       0.0
10 H  pz              0.1       0.2       0.2       0.0       0.0       0.0
10 H  px              0.2       0.0       0.3       0.0       0.0       0.0
10 H  py              0.0       0.2       0.0       0.0       0.0       0.0
11 H  s               0.3       0.0       0.1       0.0       0.0       0.0
11 H  px              0.2       0.2       0.1       0.0       0.0       0.0
11 H  py              0.6       0.0       0.2       0.0       0.0       0.0
12 H  s               0.6       0.5       0.4       0.0       0.0       0.0
12 H  pz              1.0       1.5       0.6       0.0       0.0       0.0
12 H  px              0.5       0.1       0.4       0.0       0.0       0.0
13 H  s               0.6       0.2       2.4       0.0       0.0       0.0
13 H  pz              1.9       0.2       3.9       0.1       0.0       0.0
13 H  px              0.1       0.2       1.1       0.0       0.0       0.0
13 H  py              0.3       0.1       0.7       0.0       0.0       0.0
14 H  s               2.3       4.3       1.7       0.0       0.0       0.0
14 H  pz              0.0       0.1       0.4       0.0       0.0       0.0
14 H  px              0.3       0.1       0.2       0.0       0.0       0.0
14 H  py              5.2      11.1       3.5       0.0       0.0       0.0
15 H  s               3.8       0.0       2.0       0.8       0.0       0.0
15 H  pz              6.7       0.0       2.0       0.2       0.0       0.0
15 H  px              2.5       0.2       2.0       1.1       0.0       0.0
15 H  py              0.1       0.1       0.0       0.2       0.0       0.0
16 H  s               1.6       1.0       3.9       0.1       0.1       0.0
16 H  pz              0.0       0.1       0.0       0.8       0.0       0.0
16 H  px              0.0       0.3       0.0       0.0       0.0       0.0
16 H  py              3.3       2.9       9.2       0.1       0.2       0.0
17 H  s               0.0       0.0       0.0       0.8      13.6       0.0
17 H  pz              0.1       0.0       0.1       0.0       0.1       0.0
17 H  px              0.0       0.0       0.0       0.0       0.2       0.0
17 H  py              0.0       0.0       0.0       1.3      16.1       0.0

                    174       175       176       177       178   
                  22.00932  22.01673  22.06248  22.09185  43.59870
                   0.00000   0.00000   0.00000   0.00000   0.00000
                  --------  --------  --------  --------  --------
 0 C  s              40.8       4.8       9.2       0.9       0.0
 1 C  s               0.0       1.5       0.9      95.0       0.0
 2 C  s              50.1       3.8       4.4       0.3       0.0
 3 C  s               0.1       1.0      84.4       2.4       0.0
 4 C  s               8.7      88.5       0.7       1.0       0.0
 5 O  s               0.0       0.1       0.0       0.0      99.9


                      *****************************
                      * MAYER POPULATION ANALYSIS *
                      *****************************

  NA   - Mulliken gross atomic population
  ZA   - Total nuclear charge
  QA   - Mulliken gross atomic charge
  VA   - Mayer's total valence
  BVA  - Mayer's bonded valence
  FA   - Mayer's free valence

  ATOM       NA         ZA         QA         VA         BVA        FA
  0 C      6.5494     6.0000    -0.5494     3.7967     3.7967    -0.0000
  1 C      6.0184     6.0000    -0.0184     3.4607     3.4607     0.0000
  2 C      6.5151     6.0000    -0.5151     3.7298     3.7298    -0.0000
  3 C      6.2653     6.0000    -0.2653     3.5072     3.5072     0.0000
  4 C      6.1995     6.0000    -0.1995     3.8796     3.8796    -0.0000
  5 O      8.5075     8.0000    -0.5075     1.7850     1.7850    -0.0000
  6 H      0.8436     1.0000     0.1564     0.9619     0.9619    -0.0000
  7 H      0.8436     1.0000     0.1564     0.9608     0.9608    -0.0000
  8 H      0.8374     1.0000     0.1626     0.9622     0.9622     0.0000
  9 H      0.8448     1.0000     0.1552     0.9597     0.9597     0.0000
 10 H      0.8429     1.0000     0.1571     0.9604     0.9604     0.0000
 11 H      0.8427     1.0000     0.1573     0.9613     0.9613     0.0000
 12 H      0.8454     1.0000     0.1546     0.9634     0.9634     0.0000
 13 H      0.8456     1.0000     0.1544     0.9664     0.9664     0.0000
 14 H      0.8406     1.0000     0.1594     0.9616     0.9616    -0.0000
 15 H      0.8558     1.0000     0.1442     0.9518     0.9518     0.0000
 16 H      0.8516     1.0000     0.1484     0.9532     0.9532    -0.0000
 17 H      0.6508     1.0000     0.3492     0.8811     0.8811    -0.0000

  Mayer bond orders larger than 0.100000
B(  0-C ,  1-C ) :   0.9022 B(  0-C ,  6-H ) :   0.9685 B(  0-C ,  7-H ) :   0.9707 
B(  0-C ,  8-H ) :   0.9883 B(  1-C ,  2-C ) :   0.8893 B(  1-C ,  3-C ) :   0.8635 
B(  1-C ,  9-H ) :   0.9683 B(  2-C , 10-H ) :   0.9765 B(  2-C , 11-H ) :   0.9785 
B(  2-C , 12-H ) :   0.9791 B(  3-C ,  4-C ) :   0.9397 B(  3-C , 13-H ) :   0.9545 
B(  3-C , 14-H ) :   0.9755 B(  4-C ,  5-O ) :   0.9650 B(  4-C , 15-H ) :   0.9732 
B(  4-C , 16-H ) :   0.9757 B(  5-O , 17-H ) :   0.8686 

-------
TIMINGS
-------

Total SCF time: 0 days 0 hours 0 min 24 sec 

Total time                  ....      24.833 sec
Sum of individual times     ....      24.262 sec  ( 97.7%)

SCF preparation             ....       0.379 sec  (  1.5%)
Fock matrix formation       ....      22.837 sec  ( 92.0%)
  Startup                   ....       0.064 sec  (  0.3% of F)
  Split-RI-J                ....       3.127 sec  ( 13.7% of F)
  XC integration            ....      15.031 sec  ( 65.8% of F)
    XC Preparation          ....       0.000 sec  (  0.0% of XC)
    Basis function eval.    ....       2.784 sec  ( 18.5% of XC)
    Density eval.           ....       4.332 sec  ( 28.8% of XC)
    XC-Functional eval.     ....       2.135 sec  ( 14.2% of XC)
    XC-Potential eval.      ....       4.746 sec  ( 31.6% of XC)
  CPCM terms                ....       3.950 sec  ( 17.3% of F)
Diagonalization             ....       0.000 sec  (  0.0%)
Density matrix formation    ....       0.281 sec  (  1.1%)
Total Energy calculation    ....       0.058 sec  (  0.2%)
Population analysis         ....       0.101 sec  (  0.4%)
Orbital Transformation      ....       0.057 sec  (  0.2%)
Orbital Orthonormalization  ....       0.000 sec  (  0.0%)
DIIS solution               ....       0.492 sec  (  2.0%)
  MO trafo                  ....       0.000 sec  (  0.0 % of DIIS)
  Orb grad                  ....       0.000 sec  (  0.0 % of DIIS)
  Energy W gradient         ....       0.000 sec  (  0.0 % of DIIS)
  DIIS error                ....       0.009 sec  (  1.8 % of DIIS)
  DIIS work                 ....       0.430 sec  ( 87.4 % of DIIS)
  Form Q                    ....       0.000 sec  (  0.0 % of DIIS)
  Form QpQm                 ....       0.000 sec  (  0.0 % of DIIS)
  Exp/Cayley                ....       0.000 sec  (  0.0 % of DIIS)
  Orb update                ....       0.000 sec  (  0.0 % of DIIS)
  Wake-sleep                ....       0.026 sec  (  5.2 % of DIIS)
SOSCF solution              ....       0.057 sec  (  0.2%)
  MO trafo                  ....       0.042 sec  ( 74.5 % of SOSCF)
  Orb grad                  ....       0.001 sec  (  1.3 % of SOSCF)
  Rot update                ....       0.000 sec  (  0.0 % of SOSCF)
  Step                      ....       0.014 sec  ( 24.0 % of SOSCF)
Finished LeanSCF after  25.0 sec

Maximum memory used throughout the entire LEANSCF-calculation: 23.7 MB


-------------------------------------------------------------------------------
                          DFT DISPERSION CORRECTION                            
                                                                               
                                DFTD4 V3.4.0                                   
-------------------------------------------------------------------------------
The R2SCAN3C composite method is recognized
Using three-body term ABC
Active option DFTDOPT                   ...         5   

-------------------------   ----------------
Dispersion correction           -0.004350634
-------------------------   ----------------

------------------   -----------------
gCP correction             0.009871486
------------------   -----------------

-------------------------   --------------------
FINAL SINGLE POINT ENERGY      -272.904495767210
-------------------------   --------------------


------------------------------------------------------------------------------
                              ORCA PROPERTY CALCULATIONS
------------------------------------------------------------------------------

GBWName                                 ... sp_solv.gbw
Number of atoms                         ...     18
Number of basis functions               ...    179
Max core memory                         ...   1024 MB

Electric properties:
Dipole moment                           ... YES
Quadrupole moment                       ...  NO
Static polarizability (Dipole/Dipole)   ...  NO
Static polarizability (Dipole/Quad.)    ...  NO
Static polarizability (Quad./Quad.)     ...  NO
Static polarizability (Velocity)        ...  NO

Atomic electric properties:
Dipole moment                           ...  NO
Quadrupole moment                       ...  NO
Static polarizability                   ...  NO

Choice of electric origin               ... Center of mass
Position of electric origin             ...     0.000030    -0.000002    -0.000010

General magnetic properties:
Magnetizability                         ...  NO

EPR properties:
g-Tensor (aka g-matrix)                 ...  NO
Zero-Field splitting spin-orbit         ...  NO
Zero-field splitting spin-spin          ...  NO
Hyperfine couplings                     ...  NO (   0 nuclei)
Quadrupole couplings                    ...  NO (   0 nuclei)
Contact density                         ...  NO (   0 nuclei)

NMR properties:
Chemical shifts                         ...  NO (   0 nuclei)
Spin-rotation constants                 ...  NO (   0 nuclei)
Spin-spin couplings                     ...  NO (   0 nuclei,    0 pairs)

Choice of magnetic origin               ... GIAO
Position of magnetic origin             ...     0.000000     0.000000     0.000000

Properties with geometric perturbations:
SCF Hessian                             ...  NO
IR spectrum                             ...  NO
VCD spectrum                            ...  NO
X-ray spectroscopy properties:
SCF XES/XAS/RIXS spectra                ...  NO


-------------
DIPOLE MOMENT
-------------

Method             : SCF
Type of density    : Electron Density
Multiplicity       :   1
Irrep              :   0
Energy             :  -272.9100166190158916 Eh
Relativity type    : 
Basis              : AO
                                X                 Y                 Z
Electronic contribution:     -4.886035768       0.669222689       1.081725465
Nuclear contribution   :      5.104694075      -0.138028250      -1.717483302
                        -----------------------------------------
Total Dipole Moment    :      0.218658307       0.531194439      -0.635757837
                        -----------------------------------------
Magnitude (a.u.)       :      0.856835465
Magnitude (Debye)      :      2.177902672



--------------------
Rotational spectrum 
--------------------
 
Rotational constants in cm-1:             0.186492             0.066920             0.060211 
Rotational constants in MHz :          5590.889030          2006.221579          1805.075931 

Dipole components along the rotational axes: 
x,y,z [a.u.] :    -0.218655     0.531195    -0.635758 
x,y,z [Debye]:    -0.555778     1.350191    -1.615969 

 

Dipole moment calculation done in   0.0 sec 

Maximum memory used throughout the entire PROP-calculation: 10.6 MB

--------------------------------
SUGGESTED CITATIONS FOR THIS RUN
--------------------------------

Below you find a list of papers that are relevant to this ORCA run
We neither can nor want to force you to cite these papers, but we appreciate if you do
You receive ORCA, which is the product of decades of hard work by many enthusiastic individuals, for free
The only thing we kindly ask in return is that you cite our papers,
We deeply appreciate it, if you show your appreciation for ORCA by not just citing the generic ORCA reference.

Please note that relegating all ORCA citations to the supporting information does *not* help us.
SI sections are not indexed - citations you put there will not count into any citation statistics
But we need these citations in order to attract the funding resources that allow us to do what we are doing

Therefore, if you are a happy ORCA user, please consider citing a few of the papers listed below in the main body of your paper

In addition to the list printed below, the program has created the file sp_solv.bibtex that contains the list in bibtex format
You can import this file easily into all common literature databanks and citation aid programs


List of essential papers. We consider these as the minimum necessary citations

  1. Neese,F.
     Software update: the ORCA program system, version 5.0
     WIRES Comput. Molec. Sci., 2022 12(1)e1606
     doi.org/10.1002/wcms.1606
  2. Grimme,S.; Hansen,A.; Ehlert,S.; Mewes,J.
     r2SCAN-3c: A 'Swiss army knife' composite electronic-structure method
     J. Chem. Phys., 2021 154 064103
     doi.org/10.1063/5.0040021

List of papers to cite with high priority. The work reported in these papers was absolutely
necessary for this run to complete.
Our perspective: the developers of density functionals and basis sets usually get cited in chemistry papers
Good! But without the algorithms to do something with them, the functionals or basis sets would not do anything.
Hence, in our opinion, the algorithm design and method developments papers are equally worthy of getting cited

  1. Neese,F.
     An improvement of the resolution of the identity approximation for the formation of the Coulomb matrix
     J. Comp. Chem., 2003 24(14)1740-1747
     doi.org/10.1002/jcc.10318
  2. Garcia-Rates,M.; Neese,F.
     Effect of the Solute Cavity on the Solvation Energy and its Derivatives within the Framework of the Gaussian Charge Scheme
     J. Comput. Chem., 2020 41 922-939
     doi.org/10.1002/jcc.26139
  3. Neese,F.
     The SHARK Integral Generation and Digestion System
     J. Comp. Chem., 2022  1-16
     doi.org/10.1002/jcc.26942
  4. Lehtola,S.; Steigemann,C.; Oliveira,M.; Marques,M.
     Recent developments in Libxc - A comprehensive library of functionals for density functional theory
     Software X, 2018 7 
     doi.org/10.1016/j.softx.2017.11.002
  5. Caldeweyher,E.; Bannwarth,C.; Grimme,S.
     Extension of the D3 dispersion coefficient model
     J. Chem. Phys., 2017 147 034112-XXXX
     doi.org/10.1063/1.4993215
  6. Caldeweyher,E.; Ehlert,S.; Hansen,A.; Neugebauer,H.; Spicher,S.; Bannwarth,C.; Grimme,S.
     A generally applicable atomic-charge dependent London dispersion correction
     J. Chem. Phys., 2019 150 154122-XXXX
     doi.org/10.1063/1.5090222
  7. Caldeweyher,E.; Mewes,J.; Ehlert,S.; Grimme,S.
     Extension and evaluation of the D4 London-dispersion model for periodic systems
     Phys. Chem. Chem. Phys., 2020 22(16)8499-8512
     doi.org/10.1039/D0CP00502A

List of suggested additional citations. These are papers that are important in the 'surrounding' of 
of this run, or papers that preceded the highly important papers. If you like your results we are grateful for a citation.

  1. Neese,F.
     The ORCA program system
     WIRES Comput. Molec. Sci., 2012 2(1)73-78
     doi.org/10.1002/wcms.81
  2. Neese,F.
     Software update: the ORCA program system, version 4.0
     WIRES Comput. Molec. Sci., 2018 8(1)1-6
     doi.org/10.1002/wcms.1327
  3. Neese,F.; Wennmohs,F.; Becker,U.; Riplinger,C.
     The ORCA quantum chemistry program package
     J. Chem. Phys., 2020 152 Art. No. L224108
     doi.org/10.1063/5.0004608

List of optional additional citations

  1. Neese,F.
     Approximate second-order SCF convergence for spin unrestricted wavefunctions
     Chem. Phys. Lett., 2000 325(1-3)93-98
     doi.org/10.1016/s0009-2614(00)00662-x

Timings for individual modules:

Sum of individual times          ...       26.662 sec (=   0.444 min)
Startup calculation              ...        1.175 sec (=   0.020 min)   4.4 %
SCF iterations                   ...       25.378 sec (=   0.423 min)  95.2 %
Property calculations            ...        0.109 sec (=   0.002 min)   0.4 %
                             ****ORCA TERMINATED NORMALLY****
TOTAL RUN TIME: 0 days 0 hours 0 minutes 27 seconds 588 msec
