15
 energy: -16.901697629431 gnorm: 0.019105230039 xtb: 6.7.1 (edcfbbe)
C           -1.90292727817479       -0.94295347028131        0.26487900313910
C           -1.22281239784897       -0.02800237297583       -0.73958852696534
S           -0.00065623703420        1.13519502068523       -0.00051671183862
C            1.22243254063687       -0.02659689809426        0.73931426776961
C            1.90282384721591       -0.94384721671800       -0.26284028746990
H           -2.65171135753234       -1.55810850745428       -0.24730783701948
H           -1.19025406872418       -1.62170873595847        0.74285130352811
H           -2.40763300789218       -0.36758641830494        1.04674226767178
H           -1.95515612200383        0.62598478892784       -1.22479177509635
H           -0.73239278796904       -0.60476330814234       -1.53018045806407
H            1.95483519373929        0.62803845544728        1.22353509806455
H            0.73212608663459       -0.60200706292008        1.53091851941438
H            2.40723922425119       -0.36973029380592       -1.04575963623864
H            2.65174819359261       -1.55807669990084        0.25032181914708
H            1.18998754167967       -1.62339887594036       -0.73945342257941
15
 energy: -16.902520098065 gnorm: 0.005270776694 xtb: 6.7.1 (edcfbbe)
C           -1.90683521336354       -0.94347505498933        0.26459496469561
C           -1.22854357602994       -0.03937618258478       -0.74401929915103
S           -0.00005090250239        1.09995957123171       -0.00096304239168
C            1.22829003892596       -0.03810389050213        0.74425950056754
C            1.90643433641639       -0.94405556514054       -0.26280165712317
H           -2.65854936788159       -1.54736298827011       -0.24354516371608
H           -1.19238204177976       -1.61718312491446        0.73543193568238
H           -2.39597838153942       -0.35714056865851        1.04117160462403
H           -1.94803661695296        0.63255015641239       -1.21569788143514
H           -0.72039785919264       -0.60793453031961       -1.52421539448405
H            1.94785048976516        0.63467913763747        1.21462175894456
H            0.72014444390848       -0.60518574300841        1.52556527969414
H            2.39558168387390       -0.35927414072918       -1.04054100224422
H            2.65814942215082       -1.54692292470984        0.24650849178113
H            1.19197291477209       -1.61873574689098       -0.73224647198125
15
 energy: -16.902594500516 gnorm: 0.001909852642 xtb: 6.7.1 (edcfbbe)
C           -1.90899965926966       -0.94363539426239        0.26429827284808
C           -1.22278628945236       -0.04431908379426       -0.74288029407116
S           -0.00009878014120        1.09853538346990       -0.00093414866140
C            1.22252389442552       -0.04303120123176        0.74309622102528
C            1.90862636281366       -0.94425396620954       -0.26245638953143
H           -2.66618872854555       -1.53983841963121       -0.24011426540633
H           -1.19818030690392       -1.61977076535413        0.73286756881284
H           -2.38835133220989       -0.34930859880688        1.03859089892693
H           -1.93662618304428        0.63179635938171       -1.21230980461407
H           -0.71426114471682       -0.61410582383709       -1.51966991133872
H            1.93643479110439        0.63391840877292        1.21121755854382
H            0.71401929796003       -0.61134913240918        1.52097933274369
H            2.38790708634021       -0.35142072584415       -1.03793115618744
H            2.66586160821938       -1.53948676373369        0.24303202874622
H            1.19776875399104       -1.62129187194653       -0.72966228837356
15
 energy: -16.902632283629 gnorm: 0.001426801215 xtb: 6.7.1 (edcfbbe)
C           -1.91284124223635       -0.94099732233884        0.26414970786681
C           -1.22186569729641       -0.04740249182964       -0.74662209993995
S           -0.00013651177564        1.09277598072954       -0.00089959812568
C            1.22160589710407       -0.04609127794162        0.74681556714445
C            1.91249130089479       -0.94164159145785       -0.26228583775202
H           -2.67817252955391       -1.52887273250783       -0.23618328868165
H           -1.20707574279302       -1.62401245279365        0.72987437231641
H           -2.38182057245023       -0.33994853929572        1.03929564166481
H           -1.93269905908485        0.62733144495728       -1.22071594668049
H           -0.71234451153486       -0.62239678554453       -1.51799722836971
H            1.93250779512137        0.62946113374749        1.21963249795045
H            0.71209207789694       -0.61962023323142        1.51927209251987
H            2.38136577504398       -0.34204658215217       -1.03861931492463
H            2.67788429164879       -1.52858944193649        0.23905618941521
H            1.20665809958588       -1.62551070384084       -0.72664913094114
15
 energy: -16.902682305743 gnorm: 0.002124155975 xtb: 6.7.1 (edcfbbe)
C           -1.92204675989854       -0.93523522264101        0.26450052774791
C           -1.21815954001830       -0.05351128115786       -0.75050532245498
S           -0.00005861730825        1.08742238603680       -0.00095546013854
C            1.21792411072344       -0.05221134272371        0.75076913025364
C            1.92166683554833       -0.93583884288188       -0.26267905547721
H           -2.70507709065707       -1.50502946187423       -0.23059236376845
H           -1.22713724717337       -1.63511823455761        0.72304273022757
H           -2.37086405068991       -0.32444658513975        1.04476853817733
H           -1.92341907581702        0.61825264574945       -1.23741755702136
H           -0.70504300444180       -0.63860023716338       -1.51227819739395
H            1.92325048434397        0.62040897534288        1.23639374722552
H            0.70476036181121       -0.63582307006188        1.51364223051362
H            2.37044658803815       -0.32653785356826       -1.04413514648998
H            2.70471497576946       -1.50472872574318        0.23340590711553
H            1.22669140034021       -1.63656474505266       -0.71983608505389
15
 energy: -16.902701361742 gnorm: 0.001570320034 xtb: 6.7.1 (edcfbbe)
C           -1.92816150152828       -0.93180691735166        0.26460336894017
C           -1.21702793743307       -0.05715089365657       -0.75096895856021
S           -0.00012142407754        1.08441007497379       -0.00090585353247
C            1.21676639348498       -0.05584609849999        0.75118788483917
C            1.92781561374901       -0.93244865463952       -0.26275995155967
H           -2.72001303568605       -1.49085350145249       -0.22869230949284
H           -1.24062494856301       -1.64118642301408        0.71969464618820
H           -2.36692161283987       -0.31724155898931        1.04740894714585
H           -1.91805053435501        0.61357775910163       -1.24607603791900
H           -0.70048202804338       -0.64745418698885       -1.50657035637619
H            1.91785082741242        0.61573532914492        1.24504531768113
H            0.70019295110926       -0.64470877515063        1.50788561953955
H            2.36651908092165       -0.31934156494800       -1.04674404356690
H            2.71969777167341       -1.49060867264988        0.23149394784544
H            1.24020975474595       -1.64263751131567       -0.71647859770946
15
 energy: -16.902713796199 gnorm: 0.000516591573 xtb: 6.7.1 (edcfbbe)
C           -1.93734722357482       -0.92706408668652        0.26466649827390
C           -1.21610865411792       -0.06236492755949       -0.75086708877895
S           -0.00006574592281        1.08065345183731       -0.00094760775484
C            1.21584665764197       -0.06108077385979        0.75113194508720
C            1.93698091419930       -0.92767196878927       -0.26286252944785
H           -2.73890221118183       -1.47302414428652       -0.22743786343211
H           -1.26005341067516       -1.64790505632944        0.71690327441588
H           -2.36526537027579       -0.30850116212385        1.05012516778158
H           -1.91098739470599        0.60762248549581       -1.25634090075090
H           -0.69546298076224       -0.65901349314505       -1.49880077738219
H            1.91077971018717        0.60979387101208        1.25535499964930
H            0.69515572294274       -0.65631208557487        1.50017081668469
H            2.36492241584566       -0.31061195013590       -1.04948512076022
H            2.73851282041051       -1.47274746069803        0.23024171608650
H            1.25964412055962       -1.64933429459278       -0.71372890620923
15
 energy: -16.902717382041 gnorm: 0.000336655965 xtb: 6.7.1 (edcfbbe)
C           -1.93998318576600       -0.92630450581725        0.26461631275254
C           -1.21671195904292       -0.06350584345980       -0.75071352846408
S           -0.00012812405442        1.07948818361709       -0.00089626364533
C            1.21642717498188       -0.06221692628678        0.75093320527892
C            1.93964704733552       -0.92695072101624       -0.26278598167411
H           -2.74093012242622       -1.47224054559492       -0.22807407944478
H           -1.26416924394338       -1.64678980763385        0.71908739819470
H           -2.36889780009370       -0.30657421812921        1.04856928706507
H           -1.91010743832157        0.60700985947290       -1.25724095983535
H           -0.69586773912916       -0.66120503743066       -1.49751639815042
H            1.90987891976036        0.60917075888249        1.25622763490235
H            0.69556483912476       -0.65851446163082        1.49883875886241
H            2.36854580069744       -0.30867954252453       -1.04790267712151
H            2.74059967813692       -1.47200870382006        0.23088017508745
H            1.26378152331092       -1.64824008406465       -0.71589926034510
15
 energy: -16.902722434481 gnorm: 0.000467018966 xtb: 6.7.1 (edcfbbe)
C           -1.94271033844264       -0.92574100092765        0.26476720407313
C           -1.21787055857068       -0.06450547498704       -0.75051333788968
S           -0.00007062259592        1.07797208501193       -0.00094089815067
C            1.21760502314291       -0.06321967490903        0.75077799450108
C            1.94234668215182       -0.92634979468879       -0.26296387896775
H           -2.74013812512229       -1.47530343590196       -0.22952558879392
H           -1.26691830139982       -1.64277661617003        0.72453337112009
H           -2.37657521390957       -0.30442929928423        1.04484525666515
H           -1.90993020330495        0.60696257754305       -1.25727874992342
H           -0.69744096516571       -0.66311166181190       -1.49669920362484
H            1.90971962087255        0.60913170856180        1.25629644998968
H            0.69712883420290       -0.66041677782850        1.49806582596949
H            2.37625334261856       -0.30652733657833       -1.04419661293849
H            2.73973716604757       -1.47503953061887        0.23234228451184
H            1.26651303004568       -1.64420736284676       -0.72138649307894
15
 energy: -16.902727730859 gnorm: 0.000515486768 xtb: 6.7.1 (edcfbbe)
C           -1.94605588770063       -0.92460573573180        0.26530661630906
C           -1.21875448250034       -0.06570012663899       -0.75020101011066
S           -0.00021511354310        1.07644666713151       -0.00082563394330
C            1.21843878767874       -0.06440466627374        0.75035974047643
C            1.94576460818160       -0.92530525027747       -0.26343973508023
H           -2.73825990898217       -1.48007847598183       -0.23089894856792
H           -1.27004225056583       -1.63653705538332        0.73270865363126
H           -2.38703040540761       -0.30113299387844        1.03971254413061
H           -1.90927421936219        0.60609251639734       -1.25852852067037
H           -0.69826905553554       -0.66605186006074       -1.49493365523259
H            1.90901569333532        0.60824034264089        1.25747651331346
H            0.69797196496288       -0.66337423398228        1.49619416332936
H            2.38668050547826       -0.30321099516231       -1.03900386337665
H            2.73800346925994       -1.47992216118695        0.23372396882043
H            1.26967566527107       -1.63801756704817       -0.72952720956615
15
 energy: -16.902731887238 gnorm: 0.000385345885 xtb: 6.7.1 (edcfbbe)
C           -1.94865668719769       -0.92326712944135        0.26602316901116
C           -1.21860754834271       -0.06707533856550       -0.74990446511743
S            0.00000769119339        1.07512617647969       -0.00100318639743
C            1.21836608945112       -0.06579821200791        0.75023145291221
C            1.94825863558708       -0.92382945629295       -0.26425759551614
H           -2.73719469280536       -1.48301908075153       -0.23149304186414
H           -1.27293879485156       -1.63148591157157        0.73967644104178
H           -2.39467741783546       -0.29735107168052        1.03559728053721
H           -1.90762863754656        0.60428135547698       -1.26089241797501
H           -0.69761043576537       -0.66962698063231       -1.49250978405018
H            1.90743430412033        0.60646699576987        1.25996276561568
H            0.69727558971149       -0.66693547671422        1.49393813313948
H            2.39441239363384       -0.29942790458472       -1.03496836494017
H            2.73669484992937       -1.48272195992469        0.23433472239538
H            1.27251403128848       -1.63289760099556       -0.73661148532968
15
 energy: -16.902735539496 gnorm: 0.000192321722 xtb: 6.7.1 (edcfbbe)
C           -1.95052826337162       -0.92174320461412        0.26672404185546
C           -1.21800078981144       -0.06839528725062       -0.74997573124712
S           -0.00020641390301        1.07409515127924       -0.00083479535188
C            1.21768363981419       -0.06710449419590        0.75014505958867
C            1.95023877997091       -0.92243588403993       -0.26486513058937
H           -2.73721798482886       -1.48376065186137       -0.23125857038649
H           -1.27567059156461       -1.62806785322657        0.74455059254872
H           -2.39910356428303       -0.29367342221997        1.03297783598205
H           -1.90573032582228        0.60198893985780       -1.26410758782171
H           -0.69597650877791       -0.67318940502640       -1.49012138028160
H            1.90546672510169        0.60414344547995        1.26307280679814
H            0.69566864619558       -0.67052455454520        1.49139663421016
H            2.39879028292875       -0.29573536365462       -1.03226688701235
H            2.73693460407125       -1.48361807826219        0.23409632132961
H            1.27530113485079       -1.62954093315640       -0.74140958615956
15
 energy: -16.902739027559 gnorm: 0.000214891065 xtb: 6.7.1 (edcfbbe)
C           -1.95236097182704       -0.92030263576663        0.26721675348368
C           -1.21706680678583       -0.06983835866875       -0.75005539454730
S            0.00003913198129        1.07305901134309       -0.00103196856697
C            1.21682944983775       -0.06856911605154        0.75040544383088
C            1.95195529359249       -0.92085310512708       -0.26546593015902
H           -2.73893748232073       -1.48270047903431       -0.23058752131851
H           -1.27893351570568       -1.62627211142076        0.74763078294829
H           -2.40124183503936       -0.28993086953733        1.03133804015613
H           -1.90340447016943        0.59944352003888       -1.26755584734251
H           -0.69396569125528       -0.67692045865587       -1.48756679977259
H            1.90320570990744        0.60163830664238        1.26666037975129
H            0.69360954531268       -0.67424277221035        1.48901701098466
H            2.40101016149223       -0.29199160487887       -1.03071142576126
H            2.73840274634655       -1.48240241495667        0.23343997157421
H            1.27850810520330       -1.62767850715250       -0.74460987179825
15
 energy: -16.902742269723 gnorm: 0.000299522840 xtb: 6.7.1 (edcfbbe)
C           -1.95428690709308       -0.91878485444639        0.26763336907426
C           -1.21641367162496       -0.07136996942820       -0.75038577623103
S           -0.00015995877917        1.07185328504312       -0.00087362486446
C            1.21610397522579       -0.07008837842676        0.75059171605982
C            1.95398350158564       -0.91945067841874       -0.26579750670614
H           -2.74159045956585       -1.48030827524180       -0.23000359391238
H           -1.28270256190175       -1.62547629901512        0.74967330610475
H           -2.40250956307405       -0.28632229151656        1.03039172014222
H           -1.90122700371427        0.59711907088295       -1.27097204965575
H           -0.69220585637829       -0.68060458374099       -1.48535359479831
H            1.90096533300458        0.59928239115861        1.26997764970884
H            0.69187335921862       -0.67795027886669        1.48666617566891
H            2.40223643017581       -0.28837840119288       -1.02969482815194
H            2.74125310591781       -1.48015154253356        0.23284221462628
H            1.28232964757353       -1.62693078969329       -0.74657155360234
15
 energy: -16.902745160879 gnorm: 0.000308253050 xtb: 6.7.1 (edcfbbe)
C           -1.95653148475974       -0.91754210800432        0.26777193824114
C           -1.21609566887017       -0.07273143493384       -0.75057002374566
S           -0.00007966040995        1.07064201680019       -0.00093815292221
C            1.21581378566122       -0.07145523786960        0.75083257759633
C            1.95618927459824       -0.91816734534430       -0.26597095508117
H           -2.74479551382202       -1.47792617425141       -0.22960545214006
H           -1.28677662914839       -1.62513038009406        0.75101088375469
H           -2.40374473870617       -0.28327419495663        1.02960220260069
H           -1.89943352890962        0.59525744699982       -1.27372555155501
H           -0.69108864778081       -0.68385353101710       -1.48337797340573
H            1.89918987734972        0.59743740068226        1.27278500529445
H            0.69073829719730       -0.68120308666165        1.48473911159068
H            2.40349895256819       -0.28532337779002       -1.02892674095576
H            2.74437816299134       -1.47772270628158        0.23245382705525
H            1.28638689261122       -1.62656888271405       -0.74795707286490
15
 energy: -16.902747801089 gnorm: 0.000238548334 xtb: 6.7.1 (edcfbbe)
C           -1.95876770427880       -0.91646537680706        0.26789653717656
C           -1.21604884466088       -0.07402023101217       -0.75071280168741
S           -0.00010322506598        1.06939420423135       -0.00091917096540
C            1.21575090326909       -0.07274835750142        0.75096234946115
C            1.95844330107018       -0.91709981193218       -0.26608813467264
H           -2.74769168005612       -1.47579274441516       -0.22954787709004
H           -1.29073972509553       -1.62483487883026        0.75236553604588
H           -2.40542292592735       -0.28062040473065        1.02874897274602
H           -1.89791092063422        0.59390058857037       -1.27583304835173
H           -0.69051767537207       -0.68671845626058       -1.48178878098150
H            1.89765388526602        0.59607105254633        1.27488141262959
H            0.69016215798428       -0.68407364710378        1.48314294550950
H            2.40518533145065       -0.28267187001313       -1.02807169101465
H            2.74729499592694       -1.47560927417499        0.23238994953688
H            1.29036149669414       -1.62627238800298       -0.74930257487949
15
 energy: -16.902750311374 gnorm: 0.000158286521 xtb: 6.7.1 (edcfbbe)
C           -1.96113837650971       -0.91551920486505        0.26792279704257
C           -1.21626899328832       -0.07515975798582       -0.75075948184191
S           -0.00009065318232        1.06815325428554       -0.00092735904006
C            1.21598263873559       -0.07388307888899        0.75101626515972
C            1.96080255754137       -0.91615352544239       -0.26611964180855
H           -2.75026420042105       -1.47433677085599       -0.22971880827151
H           -1.29458486641991       -1.62414719676491        0.75394628451608
H           -2.40776646757419       -0.27825872527858        1.02761644954354
H           -1.89678626261106        0.59278245060771       -1.27754457187414
H           -0.69037268128582       -0.68929960747838       -1.48033627524945
H            1.89653504177298        0.59496294719932        1.27661162840445
H            0.69001647857938       -0.68666241176038        1.48168710624223
H            2.40752933153663       -0.28030034641391       -1.02693391829707
H            2.74985292303339       -1.47414829202831        0.23256564401980
H            1.29420290066339       -1.62559132976615       -0.75090249508299
15
 energy: -16.902752726536 gnorm: 0.000123131850 xtb: 6.7.1 (edcfbbe)
C           -1.96342471483407       -0.91460848314848        0.26804010551023
C           -1.21648736079850       -0.07628743924981       -0.75077256648751
S           -0.00009960975542        1.06694319267303       -0.00091894717166
C            1.21618557159554       -0.07502140356494        0.75102921132498
C            1.96310266255977       -0.91524043700430       -0.26623672191278
H           -2.75225684725087       -1.47342818681457       -0.22997862384980
H           -1.29821413818760       -1.62309499355105        0.75605856420683
H           -2.41071023640149       -0.27596250744595        1.02619362958393
H           -1.89563474025218        0.59182760337544       -1.27905217050251
H           -0.69032098327069       -0.69176607379784       -1.47899067738152
H            1.89537400481327        0.59399548439070        1.27810765749194
H            0.68995875016669       -0.68913150047386        1.48035533524606
H            2.41048231525411       -0.27800759164054       -1.02552344244691
H            2.75185672519371       -1.47324764216185        0.23281750712845
H            1.29783797173804       -1.62453161702226       -0.75300523727699
15
 energy: -16.902755044151 gnorm: 0.000154176308 xtb: 6.7.1 (edcfbbe)
C           -1.96566845084359       -0.91372634593206        0.26815171239887
C           -1.21674750620730       -0.07734125117426       -0.75071927942923
S           -0.00009168629898        1.06577980414302       -0.00092123141444
C            1.21646245229311       -0.07606470649683        0.75098079810127
C            1.96533144176143       -0.91436159430472       -0.26635307495397
H           -2.75384664501275       -1.47306336115612       -0.23032049119224
H           -1.30153543470927       -1.62157781677583        0.75849480309115
H           -2.41401212544264       -0.27365252514032        1.02450151541922
H           -1.89465676942158        0.59080204745462       -1.28051205015955
H           -0.69031402688207       -0.69418724569953       -1.47756979293891
H            1.89440564536167        0.59298524598168        1.27958938939771
H            0.68995664077522       -0.69155919584074        1.47892511177092
H            2.41377860811507       -0.27568762319470       -1.02382317507553
H            2.75343138780007       -1.47287752635245        0.23316287849624
H            1.30115583928192       -1.62302950094806       -0.75546349004881
15
 energy: -16.902757278134 gnorm: 0.000180417201 xtb: 6.7.1 (edcfbbe)
C           -1.96772590047125       -0.91280519839985        0.26836079808300
C           -1.21687486207935       -0.07837594020778       -0.75069505572443
S           -0.00009669336978        1.06470031513527       -0.00091540420130
C            1.21657545956114       -0.07711282276226        0.75095943148239
C            1.96740044010260       -0.91343644409543       -0.26656371395898
H           -2.75498130284001       -1.47302508287740       -0.23054780915921
H           -1.30459696933803       -1.61979120820769        0.76128557775080
H           -2.41747626790669       -0.27136035212431        1.02270204030707
H           -1.89356378960444        0.58973432816355       -1.28207359970658
H           -0.69011421446446       -0.69657171137990       -1.47615301438506
H            1.89330739105744        0.59190362156163        1.28113533405965
H            0.68975625622386       -0.69394876346835        1.47752912024562
H            2.41724357420191       -0.27339504982059       -1.02204187831682
H            2.75457884676836       -1.47284103301597        0.23338237657508
H            1.30421740272901       -1.62123625393721       -0.75824057958855
15
 energy: -16.902759454579 gnorm: 0.000186163751 xtb: 6.7.1 (edcfbbe)
C           -1.96963790202721       -0.91188593946997        0.26859826149955
C           -1.21688716518086       -0.07940370082384       -0.75063686143309
S           -0.00009359110766        1.06370126888467       -0.00091178790764
C            1.21660233719854       -0.07813093641847        0.75090570071905
C            1.96930090057197       -0.91252102865761       -0.26680578631547
H           -2.75592497091441       -1.47312303064485       -0.23072722669466
H           -1.30739603701100       -1.61786178386528        0.76416548705879
H           -2.42082078884120       -0.26893218675871        1.02081706391799
H           -1.89242235094365        0.58851312251539       -1.28371076360973
H           -0.68975688281917       -0.69900682774890       -1.47461465819565
H            1.89217363382272        0.59069780144245        1.28279326564215
H            0.68940259953140       -0.69638717287187        1.47598457027577
H            2.42058081119053       -0.27096186204623       -1.02015456114890
H            2.75551339745756       -1.47293546540155        0.23355930188673
H            1.30701537964277       -1.61932385357151       -0.76113838223219
15
 energy: -16.902761175064 gnorm: 0.000117106463 xtb: 6.7.1 (edcfbbe)
C           -1.97107379592631       -0.91103270431030        0.26876600688693
C           -1.21673063960668       -0.08025638739839       -0.75077128271817
S           -0.00009586037130        1.06279634050146       -0.00091144319708
C            1.21643613275469       -0.07899209152580        0.75104010872090
C            1.97074443689860       -0.91166494029519       -0.26697364196764
H           -2.75725670780770       -1.47245113370352       -0.23061379069249
H           -1.30972938754177       -1.61684355136147        0.76583683643513
H           -2.42259612202739       -0.26689347727847        1.01973458011941
H           -1.89138280729886        0.58731228582790       -1.28547422826317
H           -0.68918194330879       -0.70107667778698       -1.47342608137829
H            1.89113118069970        0.58948874115999        1.28454572363988
H            0.68882768529204       -0.69846203336568        1.47480945503969
H            2.42235646889697       -0.26892124317744       -1.01908362136178
H            2.75685375416244       -1.47226366742071        0.23344293625672
H            1.30934697575469       -1.61830105530171       -0.76279793405733
15
 energy: -16.902762982649 gnorm: 0.000126839152 xtb: 6.7.1 (edcfbbe)
C           -1.97240236065815       -0.91012803915260        0.26901617844131
C           -1.21628876088636       -0.08118444933203       -0.75076550533824
S           -0.00009416941328        1.06218202804183       -0.00090811031183
C            1.21600083865063       -0.07991654926994        0.75103998032064
C            1.97206756837812       -0.91076292111150       -0.26722770795189
H           -2.75829855606122       -1.47190132623959       -0.23044893426600
H           -1.31202101049245       -1.61558869562510        0.76789930903525
H           -2.42439947785348       -0.26461940345210        1.01849261624232
H           -1.88993086373984        0.58587638550135       -1.28740292084891
H           -0.68817467223974       -0.70339270168895       -1.47181942629524
H            1.88968462282764        0.58806256840142        1.28648027612267
H            0.68782689740809       -0.70077744081863        1.47320893544120
H            2.42414894542988       -0.26664399432738       -1.01784779091731
H            2.75789519377076       -1.47171149571809        0.23327089710757
H            1.31163517544971       -1.61705556064500       -0.76486417331885
15
 energy: -16.902764823407 gnorm: 0.000132265168 xtb: 6.7.1 (edcfbbe)
C           -1.97380598425860       -0.90915701160595        0.26926457218366
C           -1.21601269191193       -0.08217605042474       -0.75086522293980
S           -0.00009564054876        1.06130091815871       -0.00090268602259
C            1.21572815533641       -0.08090627875771        0.75114332814594
C            1.97346813958594       -0.90979255653268       -0.26747942687187
H           -2.75925982980689       -1.47137640493090       -0.23032623373986
H           -1.31439968177539       -1.61410936779922        0.77014275076835
H           -2.42643587930444       -0.26223462350395        1.01714178608398
H           -1.88859613860479        0.58434620005875       -1.28946975430216
H           -0.68719728456944       -0.70579119002545       -1.47017371196027
H            1.88835651764387        0.58653811409235        1.28854864989258
H            0.68685581521639       -0.70317849976795        1.47157115759767
H            2.42617454173819       -0.26425728121158       -1.01650746392514
H            2.75885934181639       -1.47118260575835        0.23314081215509
H            1.31400999001335       -1.61558495742760       -0.76710493360288
15
 energy: -16.902766610474 gnorm: 0.000126987051 xtb: 6.7.1 (edcfbbe)
C           -1.97532692726540       -0.90825327806753        0.26946109164901