
                                 *****************
                                 * O   R   C   A *
                                 *****************

                                            #,                                       
                                            ###                                      
                                            ####                                     
                                            #####                                    
                                            ######                                   
                                           ########,                                 
                                     ,,################,,,,,                         
                               ,,#################################,,                 
                          ,,##########################################,,             
                       ,#########################################, ''#####,          
                    ,#############################################,,   '####,        
                  ,##################################################,,,,####,       
                ,###########''''           ''''###############################       
              ,#####''   ,,,,##########,,,,          '''####'''          '####       
            ,##' ,,,,###########################,,,                        '##       
           ' ,,###''''                  '''############,,,                           
         ,,##''                                '''############,,,,        ,,,,,,###''
      ,#''                                            '''#######################'''  
     '                                                          ''''####''''         
             ,#######,   #######,   ,#######,      ##                                
            ,#'     '#,  ##    ##  ,#'     '#,    #''#        ,####,   ,####,        
            ##       ##  ##   ,#'  ##            #'  '#       #'       #'  '#        
            ##       ##  #######   ##           ,######,      #####,   #    #        
            '#,     ,#'  ##    ##  '#,     ,#' ,#      #,     #,   #   #,  ,#        
             '#######'   ##     ##  '#######'  #'      '#     '####' # '####'        



                #########################################################
                #                        -***-                          #
                #          Department of theory and spectroscopy        #
                #                                                       #
                #                      Frank Neese                      #
                #                                                       #
                #     Directorship, Architecture, Infrastructure        #
                #                    SHARK, DRIVERS                     #
                #        Core code/Algorithms in most modules           #
                #                                                       #
                #        Max Planck Institute fuer Kohlenforschung      #
                #                Kaiser Wilhelm Platz 1                 #
                #                 D-45470 Muelheim/Ruhr                 #
                #                      Germany                          #
                #                                                       #
                #                  All rights reserved                  #
                #                        -***-                          #
                #########################################################


                         Program Version 6.0.0  -   RELEASE  -


 With contributions from (in alphabetic order):
   Daniel Aravena         : Magnetic Suceptibility
   Michael Atanasov       : Ab Initio Ligand Field Theory (pilot matlab implementation)
   Alexander A. Auer      : GIAO ZORA, VPT2 properties, NMR spectrum
   Ute Becker             : All parallelization in ORCA, NUMFREQ, NUMCALC
   Giovanni Bistoni       : ED, misc. LED, open-shell LED, HFLD
   Martin Brehm           : Molecular dynamics
   Dmytro Bykov           : pre 5.0 version of the SCF Hessian
   Marcos Casanova-Páez   : Triplet and SCS-CIS(D). UHF-(DLPNO)-IP/EA/STEOM-CCSD. UHF-CVS-IP/STEOM-CCSD
   Vijay G. Chilkuri      : MRCI spin determinant printing, contributions to CSF-ICE
   Pauline Colinet        : FMM embedding
   Dipayan Datta          : RHF DLPNO-CCSD density
   Achintya Kumar Dutta   : EOM-CC, STEOM-CC
   Nicolas Foglia         : Exact transition moments, OPA infrastructure, MCD improvements
   Dmitry Ganyushin       : Spin-Orbit,Spin-Spin,Magnetic field MRCI
   Miquel Garcia          : C-PCM and meta-GGA Hessian, CCSD/C-PCM, Gaussian charge scheme
   Tiago L. C. Gouveia    : GS-ROHF, GS-ROCIS
   Yang Guo               : DLPNO-NEVPT2, F12-NEVPT2, CIM, IAO-localization
   Andreas Hansen         : Spin unrestricted coupled pair/coupled cluster methods
   Ingolf Harden          : AUTO-CI MPn and infrastructure 
   Benjamin Helmich-Paris : MC-RPA, TRAH-(SCF,CASSCF), AVAS, COSX integrals, SCF dyn. polar.
   Lee Huntington         : MR-EOM, pCC
   Robert Izsak           : Overlap fitted RIJCOSX, COSX-SCS-MP3, EOM
   Riya Kayal             : Wick's Theorem for AUTO-CI, AUTO-CI UHF-CCSDT
   Emily Kempfer          : AUTO-CI, RHF CISDT and CCSDT
   Christian Kollmar      : KDIIS, OOCD, Brueckner-CCSD(T), CCSD density, CASPT2, CASPT2-K, improved NEVPT2
   Axel Koslowski         : Symmetry handling
   Simone Kossmann        : Meta GGA functionals, TD-DFT gradient, OOMP2, (MP2 Hessian; deprecated post 5.0)
   Lucas Lang             : DCDCAS
   Marvin Lechner         : AUTO-CI (C++ implementation), FIC-MRCC
   Spencer Leger          : CASSCF response
   Dagmar Lenk            : GEPOL surface, SMD, ORCA-2-JSON
   Dimitrios Liakos       : Extrapolation schemes; Compound Job, initial MDCI parallelization
   Dimitrios Manganas     : Further ROCIS development; embedding schemes. LFT, Crystal Embedding
   Dimitrios Pantazis     : SARC Basis sets
   Anastasios Papadopoulos: AUTO-CI, single reference methods and gradients
   Taras Petrenko         : pre 6.0 DFT Hessian and TD-DFT gradient, (ASA, deprecated), ECA, 1-Electron XAS/XES, NRVS
   Peter Pinski           : DLPNO-MP2, DLPNO-MP2 Gradient
   Christoph Reimann      : Effective Core Potentials
   Marius Retegan         : Local ZFS, SOC
   Christoph Riplinger    : Optimizer, TS searches, QM/MM, DLPNO-CCSD(T), (RO)-DLPNO pert. Triples
   Michael Roemelt        : Original ROCIS implementation
   Masaaki Saitow         : Open-shell DLPNO-CCSD energy and density
   Barbara Sandhoefer     : DKH picture change effects
   Kantharuban Sivalingam : CASSCF convergence/infrastructure, NEVPT2 and variants, FIC-MRCI
   Bernardo de Souza      : ESD, SOC TD-DFT
   Georgi Stoychev        : AutoAux, RI-MP2 NMR, DLPNO-MP2 response, X2C
   Van Anh Tran           : RI-MP2 g-tensors
   Willem Van den Heuvel  : Paramagnetic NMR
   Zikuan Wang            : NOTCH, Electric field optimization 
   Frank Wennmohs         : Technical directorship and infrastructure
   Hang Xu                : AUTO-CI-Response properties 


 We gratefully acknowledge several colleagues who have allowed us to
 interface, adapt or use parts of their codes:
   Stefan Grimme, W. Hujo, H. Kruse, P. Pracht,  : VdW corrections, initial TS optimization,
                  C. Bannwarth, S. Ehlert,         DFT functionals, gCP, sTDA/sTD-DF
                  L. Wittmann, M. Mueller
   Ed Valeev, F. Pavosevic, A. Kumar             : LibInt (2-el integral package), F12 methods
   Garnet Chan, S. Sharma, J. Yang, R. Olivares  : DMRG
   Ulf Ekstrom                                   : XCFun DFT Library
   Mihaly Kallay                                 : mrcc  (arbitrary order and MRCC methods)
   Frank Weinhold                                : gennbo (NPA and NBO analysis)
   Simon Mueller                                 : openCOSMO-RS
   Christopher J. Cramer and Donald G. Truhlar   : smd solvation model
   Lars Goerigk                                  : TD-DFT with DH, B97 family of functionals
   V. Asgeirsson, H. Jonsson                     : NEB implementation
   FAccTs GmbH                                   : IRC, NEB, NEB-TS, DLPNO-Multilevel, CI-OPT
                                                   MM, QMMM, 2- and 3-layer-ONIOM, Crystal-QMMM,
                                                   LR-CPCM, SF, NACMEs, symmetry and pop. for TD-DFT,
                                                   nearIR, NL-DFT gradient (VV10), updates on ESD,
                                                   ML-optimized integration grids, MBIS, APM,
                                                   GOAT, DOCKER, SOLVATOR, interface openCOSMO-RS
   S Lehtola, MJT Oliveira, MAL Marques          : LibXC Library
   Liviu Ungur et al                             : ANISO software


 Your calculation uses the libint2 library for the computation of 2-el integrals
 For citations please refer to: http://libint.valeyev.net

 Your ORCA version has been built with support for libXC version: 6.2.2
 For citations please refer to: https://libxc.gitlab.io

 This ORCA versions uses:
   CBLAS   interface :  Fast vector & matrix operations
   LAPACKE interface :  Fast linear algebra routines
   SCALAPACK package :  Parallel linear algebra routines
   Shared memory     :  Shared parallel matrices
   BLAS/LAPACK       :  OpenBLAS 0.3.27  USE64BITINT DYNAMIC_ARCH NO_AFFINITY SkylakeX SINGLE_THREADED
        Core in use  :  SkylakeX
   Copyright (c) 2011-2014, The OpenBLAS Project


Your calculation utilizes the geometrical counterpoise correction gCP
Please cite in your paper:
H.Kruse, S. Grimme J.Chem.Phys., 136, (2012), 154101 
   

Your calculation utilizes the atom-pairwise dispersion correction
based on EEQ partial charges (D4)


================================================================================

----- Orbital basis set information -----
Your calculation utilizes the basis: def2-SV(P)
   F. Weigend and R. Ahlrichs, Phys. Chem. Chem. Phys. 7, 3297 (2005).

----- AuxJ basis set information -----
Your calculation utilizes the auxiliary basis: def2/J
   F. Weigend, Phys. Chem. Chem. Phys. 8, 1057 (2006).

================================================================================
                                        WARNINGS
                       Please study these warnings very carefully!
================================================================================


================================================================================
                                       INPUT FILE
================================================================================
NAME = sp.inp
|  1> ! pbe def2-sv(p) def2/J RI DEFGRID1 loosescf d4 GCP(DFT/SV(P)) printgap
|  2> %output
|  3>     printlevel normal
|  4> end
|  5> * xyz 0 1
|  6> C -2.7682334593 -1.3191444986 -2.0321471716
|  7> C -3.4917278995 -0.878706862 -0.7644080783
|  8> C -2.5771226843 -0.8976546579 0.4630161591
|  9> H -2.157792415 -1.9034024864 0.5746606647
| 10> C -3.3150172203 -0.5186041587 1.74287845
| 11> N -1.4000822442 -0.0323265322 0.2630853644
| 12> C -0.1520678331 -0.6569814821 0.245329381
| 13> O -0.0393968632 -1.861468606 0.4003884327
| 14> C 0.9665516972 0.2320396931 0.0342376775
| 15> C 0.8218919917 1.5711428509 -0.1369060594
| 16> N -0.4455878832 2.0636210415 -0.10126459
| 17> C -1.585296917 1.3171040403 0.0902033049
| 18> O -2.6714508029 1.8659506906 0.097616265
| 19> C 1.9387489647 2.5254010659 -0.3449000722
| 20> Br 2.6781403822 -0.5939855562 0.0173040725
| 21> H -3.468919667 -1.3882741245 -2.85923231
| 22> H -1.9901604395 -0.6080148127 -2.3055982488
| 23> H -2.3029037196 -2.2925096244 -1.8876591802
| 24> H -3.9027839384 0.1227661806 -0.8951853293
| 25> H -4.3173095663 -1.5612554537 -0.562578
| 26> H -4.1048950991 -1.2405389947 1.9245276771
| 27> H -2.6322705475 -0.5289935278 2.5895187751
| 28> H -3.7549342737 0.4705099802 1.6514642361
| 29> H -0.5988087914 3.0605912803 -0.2194088528
| 30> H 2.4609934751 2.6890009124 0.5972455569
| 31> H 1.5739809965 3.4773355904 -0.7158425235
| 32> H 2.6624377324 2.1118593616 -1.0439408842
| 33> *
| 34> 
| 35>                          ****END OF INPUT****
================================================================================

                       ****************************
                       * Single Point Calculation *
                       ****************************

---------------------------------
CARTESIAN COORDINATES (ANGSTROEM)
---------------------------------
  C     -2.768233   -1.319144   -2.032147
  C     -3.491728   -0.878707   -0.764408
  C     -2.577123   -0.897655    0.463016
  H     -2.157792   -1.903402    0.574661
  C     -3.315017   -0.518604    1.742878
  N     -1.400082   -0.032327    0.263085
  C     -0.152068   -0.656981    0.245329
  O     -0.039397   -1.861469    0.400388
  C      0.966552    0.232040    0.034238
  C      0.821892    1.571143   -0.136906
  N     -0.445588    2.063621   -0.101265
  C     -1.585297    1.317104    0.090203
  O     -2.671451    1.865951    0.097616
  C      1.938749    2.525401   -0.344900
  Br     2.678140   -0.593986    0.017304
  H     -3.468920   -1.388274   -2.859232
  H     -1.990160   -0.608015   -2.305598
  H     -2.302904   -2.292510   -1.887659
  H     -3.902784    0.122766   -0.895185
  H     -4.317310   -1.561255   -0.562578
  H     -4.104895   -1.240539    1.924528
  H     -2.632271   -0.528994    2.589519
  H     -3.754934    0.470510    1.651464
  H     -0.598809    3.060591   -0.219409
  H      2.460993    2.689001    0.597246
  H      1.573981    3.477336   -0.715843
  H      2.662438    2.111859   -1.043941

----------------------------
CARTESIAN COORDINATES (A.U.)
----------------------------
  NO LB      ZA    FRAG     MASS         X           Y           Z
   0 C     6.0000    0    12.011   -5.231203   -2.492822   -3.840202
   1 C     6.0000    0    12.011   -6.598409   -1.660515   -1.444522
   2 C     6.0000    0    12.011   -4.870056   -1.696321    0.874974
   3 H     1.0000    0     1.008   -4.077637   -3.596909    1.085951
   4 C     6.0000    0    12.011   -6.264475   -0.980020    3.293563
   5 N     7.0000    0    14.007   -2.645772   -0.061088    0.497159
   6 C     6.0000    0    12.011   -0.287367   -1.241515    0.463605
   7 O     8.0000    0    15.999   -0.074449   -3.517666    0.756624
   8 C     6.0000    0    12.011    1.826518    0.438491    0.064700
   9 C     6.0000    0    12.011    1.553151    2.969030   -0.258715
  10 N     7.0000    0    14.007   -0.842039    3.899679   -0.191362
  11 C     6.0000    0    12.011   -2.995777    2.488966    0.170460
  12 O     8.0000    0    15.999   -5.048310    3.526136    0.184468
  13 C     6.0000    0    12.011    3.663705    4.772316   -0.651767
  14 Br   35.0000    0    79.900    5.060952   -1.122470    0.032700
  15 H     1.0000    0     1.008   -6.555308   -2.623458   -5.403166
  16 H     1.0000    0     1.008   -3.760858   -1.148981   -4.356949
  17 H     1.0000    0     1.008   -4.351857   -4.332215   -3.567159
  18 H     1.0000    0     1.008   -7.375193    0.231994   -1.691655
  19 H     1.0000    0     1.008   -8.158533   -2.950345   -1.063118
  20 H     1.0000    0     1.008   -7.757128   -2.344279    3.636830
  21 H     1.0000    0     1.008   -4.974270   -0.999653    4.893481
  22 H     1.0000    0     1.008   -7.095797    0.889135    3.120815
  23 H     1.0000    0     1.008   -1.131585    5.783679   -0.414623
  24 H     1.0000    0     1.008    4.650604    5.081475    1.128631
  25 H     1.0000    0     1.008    2.974393    6.571212   -1.352746
  26 H     1.0000    0     1.008    5.031278    3.990836   -1.972762

--------------------------------
INTERNAL COORDINATES (ANGSTROEM)
--------------------------------
 C      0   0   0     0.000000000000     0.00000000     0.00000000
 C      1   0   0     1.524661249398     0.00000000     0.00000000
 C      2   1   0     1.530827219903   112.30924914     0.00000000
 H      3   2   1     1.095368004332   108.77228984   303.56672149
 C      3   2   1     1.525193466702   112.37727066   182.60741124
 N      3   2   1     1.474513236776   111.15816912    57.85732882
 C      6   3   2     1.395725278017   116.92698525   243.87606259
 O      7   6   3     1.219642278954   121.53193502   359.34225186
 C      7   6   3     1.444378070593   114.76473414   179.45154018
 C      9   7   6     1.357723784982   122.88600271   359.87240501
 N     10   9   7     1.360261120460   116.93999499     0.05331164
 C      6   3   2     1.373009669127   119.08909697    63.06178108
 O     12   6   3     1.216970772607   124.25508823     0.46436097
 C     10   9   7     1.483657557658   124.87759406   179.44859685
 Br     9   7   6     1.900563149722   115.54689309   179.61885248
 H      1   2   3     1.086190541756   110.20715124   174.38558500
 H      1   2   3     1.088980507599   111.05102203   294.19159538
 H      1   2   3     1.088507333201   110.53653553    54.25740523
 H      2   1   3     1.090421024903   110.14953982   122.25462801
 H      2   1   3     1.090042682235   109.41892421   241.03772532
 H      5   3   2     1.085400116341   109.09968932    61.49993882
 H      5   3   2     1.087681386388   110.31140972   180.80550872
 H      5   3   2     1.086384072116   110.58361451   301.67149878
 H     11  10   9     1.015570957932   119.53456634   179.64280894
 H     14  10   9     1.089560748582   109.64361368   285.32512579
 H     14  10   9     1.084819483479   111.05179342   164.84446974
 H     14  10   9     1.087842006236   110.26512994    42.99682324

---------------------------
INTERNAL COORDINATES (A.U.)
---------------------------
 C      0   0   0     0.000000000000     0.00000000     0.00000000
 C      1   0   0     2.881192208364     0.00000000     0.00000000
 C      2   1   0     2.892844203970   112.30924914     0.00000000
 H      3   2   1     2.069945544047   108.77228984   303.56672149
 C      3   2   1     2.882197953313   112.37727066   182.60741124
 N      3   2   1     2.786426198348   111.15816912    57.85732882
 C      6   3   2     2.637538533642   116.92698525   243.87606259
 O      7   6   3     2.304789888575   121.53193502   359.34225186
 C      7   6   3     2.729478987262   114.76473414   179.45154018
 C      9   7   6     2.565726119127   122.88600271   359.87240501
 N     10   9   7     2.570520988290   116.93999499     0.05331164
 C      6   3   2     2.594612253875   119.08909697    63.06178108
 O     12   6   3     2.299741473213   124.25508823     0.46436097
 C     10   9   7     2.803706460495   124.87759406   179.44859685
 Br     9   7   6     3.591543853196   115.54689309   179.61885248
 H      1   2   3     2.052602653174   110.20715124   174.38558500
 H      1   2   3     2.057874924541   111.05102203   294.19159538
 H      1   2   3     2.056980754514   110.53653553    54.25740523
 H      2   1   3     2.060597107736   110.14953982   122.25462801
 H      2   1   3     2.059882143709   109.41892421   241.03772532
 H      5   3   2     2.051108965612   109.09968932    61.49993882
 H      5   3   2     2.055419941237   110.31140972   180.80550872
 H      5   3   2     2.052968372553   110.58361451   301.67149878
 H     11  10   9     1.919150980056   119.53456634   179.64280894
 H     14  10   9     2.058971421090   109.64361368   285.32512579
 H     14  10   9     2.050011728518   111.05179342   164.84446974
 H     14  10   9     2.055723468762   110.26512994    42.99682324

---------------------
BASIS SET INFORMATION
---------------------
There are 5 groups of distinct atoms

 Group   1 Type C   : 7s4p1d contracted to 3s2p1d pattern {511/31/1}
 Group   2 Type H   : 4s contracted to 2s pattern {31}
 Group   3 Type N   : 7s4p1d contracted to 3s2p1d pattern {511/31/1}
 Group   4 Type O   : 7s4p1d contracted to 3s2p1d pattern {511/31/1}
 Group   5 Type Br  : 14s10p6d contracted to 5s4p3d pattern {63311/5311/411}

Atom   0C    basis set group =>   1
Atom   1C    basis set group =>   1
Atom   2C    basis set group =>   1
Atom   3H    basis set group =>   2
Atom   4C    basis set group =>   1
Atom   5N    basis set group =>   3
Atom   6C    basis set group =>   1
Atom   7O    basis set group =>   4
Atom   8C    basis set group =>   1
Atom   9C    basis set group =>   1
Atom  10N    basis set group =>   3
Atom  11C    basis set group =>   1
Atom  12O    basis set group =>   4
Atom  13C    basis set group =>   1
Atom  14Br   basis set group =>   5
Atom  15H    basis set group =>   2
Atom  16H    basis set group =>   2
Atom  17H    basis set group =>   2
Atom  18H    basis set group =>   2
Atom  19H    basis set group =>   2
Atom  20H    basis set group =>   2
Atom  21H    basis set group =>   2
Atom  22H    basis set group =>   2
Atom  23H    basis set group =>   2
Atom  24H    basis set group =>   2
Atom  25H    basis set group =>   2
Atom  26H    basis set group =>   2
---------------------------------
AUXILIARY/J BASIS SET INFORMATION
---------------------------------
There are 5 groups of distinct atoms

 Group   1 Type C   : 12s5p4d2f1g contracted to 6s4p3d1f1g pattern {711111/2111/211/2/1}
 Group   2 Type H   : 5s2p1d contracted to 3s1p1d pattern {311/2/1}
 Group   3 Type N   : 12s5p4d2f1g contracted to 6s4p3d1f1g pattern {711111/2111/211/2/1}
 Group   4 Type O   : 12s5p4d2f1g contracted to 6s4p3d1f1g pattern {711111/2111/211/2/1}
 Group   5 Type Br  : 19s5p5d3f1g contracted to 8s4p3d2f1g pattern {121111111/2111/311/21/1}

Atom   0C    basis set group =>   1
Atom   1C    basis set group =>   1
Atom   2C    basis set group =>   1
Atom   3H    basis set group =>   2
Atom   4C    basis set group =>   1
Atom   5N    basis set group =>   3
Atom   6C    basis set group =>   1
Atom   7O    basis set group =>   4
Atom   8C    basis set group =>   1
Atom   9C    basis set group =>   1
Atom  10N    basis set group =>   3
Atom  11C    basis set group =>   1
Atom  12O    basis set group =>   4
Atom  13C    basis set group =>   1
Atom  14Br   basis set group =>   5
Atom  15H    basis set group =>   2
Atom  16H    basis set group =>   2
Atom  17H    basis set group =>   2
Atom  18H    basis set group =>   2
Atom  19H    basis set group =>   2
Atom  20H    basis set group =>   2
Atom  21H    basis set group =>   2
Atom  22H    basis set group =>   2
Atom  23H    basis set group =>   2
Atom  24H    basis set group =>   2
Atom  25H    basis set group =>   2
Atom  26H    basis set group =>   2
------------------------------------------------------------------------------
                             ORCA STARTUP CALCULATIONS
                           -- RI-GTO INTEGRALS CHOSEN --
------------------------------------------------------------------------------
------------------------------------------------------------------------------
                   ___                                                        
                  /   \      - P O W E R E D   B Y -                         
                 /     \                                                     
                 |  |  |   _    _      __       _____    __    __             
                 |  |  |  | |  | |    /  \     |  _  \  |  |  /  |          
                  \  \/   | |  | |   /    \    | | | |  |  | /  /          
                 / \  \   | |__| |  /  /\  \   | |_| |  |  |/  /          
                |  |  |   |  __  | /  /__\  \  |    /   |      \           
                |  |  |   | |  | | |   __   |  |    \   |  |\   \          
                \     /   | |  | | |  |  |  |  | |\  \  |  | \   \       
                 \___/    |_|  |_| |__|  |__|  |_| \__\ |__|  \__/        
                                                                              
                      - O R C A' S   B I G   F R I E N D -                    
                                      &                                       
                       - I N T E G R A L  F E E D E R -                       
                                                                              
 v1 FN, 2020, v2 2021, v3 2022-2024                                           
------------------------------------------------------------------------------


----------------------
SHARK INTEGRAL PACKAGE
----------------------

Number of atoms                             ...     27
Number of basis functions                   ...    240
Number of shells                            ...    116
Maximum angular momentum                    ...      2
Integral batch strategy                     ... SHARK/LIBINT Hybrid
RI-J (if used) integral strategy            ... SPLIT-RIJ (Revised 2003 algorithm where possible)
Printlevel                                  ...      1
Contraction scheme used                     ... SEGMENTED contraction
Prescreening option                         ... SCHWARTZ
   Thresh                                   ... 1.000e-09
   Tcut                                     ... 1.000e-10
   Tpresel                                  ... 1.000e-10 
Coulomb Range Separation                    ... NOT USED
Exchange Range Separation                   ... NOT USED
Multipole approximations                    ... NOT USED
Finite Nucleus Model                        ... NOT USED
CABS basis                                  ... NOT available
Auxiliary Coulomb fitting basis             ... AVAILABLE
   # of basis functions in Aux-J            ...    838
   # of shells in Aux-J                     ...    278
   Maximum angular momentum in Aux-J        ...      4
Auxiliary J/K fitting basis                 ... NOT available
Auxiliary Correlation fitting basis         ... NOT available
Auxiliary 'external' fitting basis          ... NOT available

Checking pre-screening integrals            ... done (  0.0 sec) Dimension = 116
Check shell pair data                       ... done (  0.0 sec)
Shell pair information
Shell pair cut-off parameter TPreSel        ...   1.0e-10
Total number of shell pairs                 ...      6786
Shell pairs after pre-screening             ...      5773
Total number of primitive shell pairs       ...     28689
Primitive shell pairs kept                  ...     15444
          la=0 lb=0:   2078 shell pairs
          la=1 lb=0:   1867 shell pairs
          la=1 lb=1:    434 shell pairs
          la=2 lb=0:    882 shell pairs
          la=2 lb=1:    412 shell pairs
          la=2 lb=2:    100 shell pairs

Calculating one electron integrals          ... done (  0.0 sec)
Calculating RI/J V-Matrix + Cholesky decomp.... done (  0.1 sec)
Calculating Nuclear repulsion               ... done (  0.0 sec) ENN=   1292.576156447873 Eh

Diagonalization of the overlap matrix:
Smallest eigenvalue                        ... 8.549e-04
Time for diagonalization                   ...    0.006 sec
Threshold for overlap eigenvalues          ... 1.000e-07
Number of eigenvalues below threshold      ... 0
Time for construction of square roots      ...    0.024 sec
Total time needed                          ...    0.049 sec

-------------------
DFT GRID GENERATION
-------------------

General Integration Accuracy     IntAcc      ... 4.159
Radial Grid Type                 RadialGrid  ... OptM3 with GC (2021)
Angular Grid (max. ang.)         AngularGrid ... 3 (Lebedev-194)
Angular grid pruning method      GridPruning ... 4 (adaptive)
Weight generation scheme         WeightScheme... mBecke (2022)
Basis function cutoff            BFCut       ... 1.0000e-10
Integration weight cutoff        WCut        ... 1.0000e-14
Partially contracted basis set               ... off
Rotationally invariant grid construction     ... off
Angular grids for H and He will be reduced by one unit
Core-polarized basis detected: some atoms will have their core
                               angular grid increased.

Total number of grid points                  ...    65594
Total number of batches                      ...     1039
Average number of points per batch           ...       63
Average number of grid points per atom       ...     2429
Initializing property integral containers    ... done (  0.0 sec)

SHARK setup successfully completed in   1.4 seconds

Maximum memory used throughout the entire STARTUP-calculation: 37.3 MB
-------------------------------------------------------------------------------
                                 ORCA GUESS
                   Start orbitals & Density for SCF / CASSCF
-------------------------------------------------------------------------------

------------
SCF SETTINGS
------------
Hamiltonian:
 Density Functional     Method          .... DFT(GTOs)
 Exchange Functional    Exchange        .... PBE
   PBE kappa parameter   XKappa         ....  0.804000
   PBE mue parameter    XMuePBE         ....  0.219520
 Correlation Functional Correlation     .... PBE
   PBE beta parameter  CBetaPBE         ....  0.066725
 LDA part of GGA corr.  LDAOpt          .... PW91-LDA
 Gradients option       PostSCFGGA      .... off
   NL short-range parameter             ....  6.400000
 RI-approximation to the Coulomb term is turned on
   Number of AuxJ basis functions       .... 838


General Settings:
 Integral files         IntName         .... sp
 Hartree-Fock type      HFTyp           .... RHF
 Total Charge           Charge          ....    0
 Multiplicity           Mult            ....    1
 Number of Electrons    NEL             ....  132
 Basis Dimension        Dim             ....  240
 Nuclear Repulsion      ENuc            ....   1292.5761564479 Eh

Convergence Acceleration:
 AO-DIIS                CNVDIIS         .... on
   Start iteration      DIISMaxIt       ....    12
   Startup error        DIISStart       ....  0.200000
   # of expansion vecs  DIISMaxEq       ....     5
   Bias factor          DIISBfac        ....   1.050
   Max. coefficient     DIISMaxC        ....  10.000
 MO-DIIS                CNVKDIIS        .... off
 Trust-Rad. Augm. Hess. CNVTRAH         .... auto
   Auto Start mean grad. ratio tolernc. ....  1.125000
   Auto Start start iteration           ....    50
   Auto Start num. interpolation iter.  ....    10
   Max. Number of Micro iterations      ....    24
   Max. Number of Macro iterations      .... Maxiter - #DIIS iter
   Number of Davidson start vectors     ....     2
   Converg. threshold    (grad. norm)   ....   1.000e-04
   Grad. Scal. Fac. for Micro threshold ....   0.100
   Minimum threshold for Micro iter.    ....   1.000e-02
   NR start threshold (gradient norm)   ....   1.000e-04
   Initial trust radius                 ....   0.400
   Minimum AH scaling param. (alpha)    ....   1.000
   Maximum AH scaling param. (alpha)    .... 1000.000
   Quad. conv. algorithm                .... NR
   White noise on init. David. guess    .... on
   Maximum white noise                  ....   0.010
   Pseudo random numbers                .... off
   Inactive MOs                         .... canonical
   Orbital update algorithm             .... Taylor
   Preconditioner                       .... Diag
   Full preconditioner red. dimension   ....   250
 SOSCF                  CNVSOSCF        .... on
   Start iteration      SOSCFMaxIt      ....   150
   Startup grad/error   SOSCFStart      ....  0.003300
   Hessian update       SOSCFHessUp     .... L-BFGS
 Level Shifting         CNVShift        .... on
   Level shift para.    LevelShift      ....    0.2500
   Turn off err/grad.   ShiftErr        ....    0.0010
 Zerner damping         CNVZerner       .... off
 Static damping         CNVDamp         .... on
   Fraction old density DampFac         ....    0.7000
   Max. Damping (<1)    DampMax         ....    0.9800
   Min. Damping (>=0)   DampMin         ....    0.0000
   Turn off err/grad.   DampErr         ....    0.1000

SCF Procedure:
 Maximum # iterations   MaxIter         ....   125
 SCF integral mode      SCFMode         .... Direct
   Integral package                     .... SHARK and LIBINT hybrid scheme
 Reset frequency        DirectResetFreq ....    20
 Integral Threshold     Thresh          ....  1.000e-09 Eh
 Primitive CutOff       TCut            ....  1.000e-10 Eh

Convergence Tolerance:
 Convergence Check Mode ConvCheckMode   .... Total+1el-Energy
 Convergence forced     ConvForced      .... 0
 Energy Change          TolE            ....  1.000e-05 Eh
 1-El. energy change                    ....  1.000e-02 Eh
 Orbital Gradient       TolG            ....  1.000e-04
 Orbital Rotation angle TolX            ....  1.000e-04
 DIIS Error             TolErr          ....  5.000e-04

------------------------------
INITIAL GUESS: MODEL POTENTIAL
------------------------------
Loading Hartree-Fock densities                     ... done
Calculating cut-offs                               ... done
Initializing the effective Hamiltonian             ... done
Setting up the integral package (SHARK)            ... done
Starting the Coulomb interaction                   ... done (   0.4 sec)
Making the grid                                    ... done (   0.4 sec)
Mapping shells                                     ... done
Starting the XC term evaluation                    ... done (   0.4 sec)
  promolecular density results
     # of electrons  =    131.989127365
     EX              =   -168.644262034
     EC              =     -4.993098522
     EX+EC           =   -173.637360556
Transforming the Hamiltonian                       ... done (   0.0 sec)
Diagonalizing the Hamiltonian                      ... done (   0.0 sec)
Back transforming the eigenvectors                 ... done (   0.0 sec)
Now organizing SCF variables                       ... done
                      ------------------
                      INITIAL GUESS DONE (   1.2 sec)
                      ------------------
             **** ENERGY FILE WAS UPDATED (sp.en.tmp) ****
Finished Guess after   1.5 sec
Maximum memory used throughout the entire GUESS-calculation: 32.1 MB

-------------------------------------------------------------------------------------------
                                      ORCA LEAN-SCF
                              memory conserving SCF solver
-------------------------------------------------------------------------------------------

----------------------------------------D-I-I-S--------------------------------------------
Iteration    Energy (Eh)           Delta-E    RMSDP     MaxDP     DIISErr   Damp  Time(sec)
-------------------------------------------------------------------------------------------
               ***  Starting incremental Fock matrix formation  ***
    1    -3182.6561892648278445     0.00e+00  4.52e-03  1.92e-01  2.59e-01  0.700   2.0
    2    -3182.8500024572458642    -1.94e-01  2.53e-03  9.75e-02  7.51e-02  0.700   1.9
                               ***Turning on AO-DIIS***
    3    -3182.9048763568644063    -5.49e-02  8.67e-04  1.49e-02  3.56e-02  0.700   1.8
    4    -3182.9438026500120031    -3.89e-02  1.30e-03  3.14e-02  2.44e-02  0.000   1.7
    5    -3183.0345928733395340    -9.08e-02  4.17e-04  7.28e-03  1.29e-02  0.000   1.8
                              *** Initializing SOSCF ***
---------------------------------------S-O-S-C-F--------------------------------------
Iteration    Energy (Eh)           Delta-E    RMSDP     MaxDP     MaxGrad    Time(sec)
--------------------------------------------------------------------------------------
    6    -3183.0358835992792592    -1.29e-03  1.41e-04  2.48e-03  2.72e-03     1.7
               *** Restarting incremental Fock matrix formation ***
    7    -3183.0359680525170916    -8.45e-05  1.19e-04  2.86e-03  4.55e-04     1.9
    8    -3183.0359516546595842     1.64e-05  6.42e-05  2.35e-03  1.24e-03     1.6
    9    -3183.0359801814265666    -2.85e-05  5.58e-05  1.15e-03  3.82e-04     1.6
   10    -3183.0359768638782043     3.32e-06  3.02e-05  6.89e-04  2.93e-04     1.6
                 **** Energy Check signals convergence ****

               *****************************************************
               *                     SUCCESS                       *
               *           SCF CONVERGED AFTER  10 CYCLES          *
               *****************************************************

             **** ENERGY FILE WAS UPDATED (sp.en.tmp) ****

----------------
TOTAL SCF ENERGY
----------------

Total Energy       :      -3183.03597686387820 Eh          -86614.81234 eV

Components:
Nuclear Repulsion  :       1292.57615644787256 Eh           35172.78537 eV
Electronic Energy  :      -4475.61213331174986 Eh         -121787.59771 eV
One Electron Energy:      -6981.32955906854477 Eh         -189971.63527 eV
Two Electron Energy:       2505.71742575679446 Eh           68184.03756 eV

Virial components:
Potential Energy   :      -6358.14169085956200 Eh         -173013.83126 eV
Kinetic Energy     :       3175.10571399568335 Eh           86399.01892 eV
Virial Ratio       :          2.00249763742770

DFT components:
N(Alpha)           :       65.999928999940 electrons
N(Beta)            :       65.999928999940 electrons
N(Total)           :      131.999857999880 electrons
E(X)               :     -169.962709168276 Eh       
E(C)               :       -5.005570564719 Eh       
E(XC)              :     -174.968279732995 Eh       

---------------
SCF CONVERGENCE
---------------

  Last Energy change         ...   -3.3175e-06  Tolerance :   1.0000e-05
  Last MAX-Density change    ...    6.8909e-04  Tolerance :   1.0000e-03
  Last RMS-Density change    ...    3.0249e-05  Tolerance :   1.0000e-04
  Last DIIS Error            ...    2.7222e-03  Tolerance :   5.0000e-04
  Last Orbital Gradient      ...    2.9292e-04  Tolerance :   1.0000e-04
  Last Orbital Rotation      ...    5.3907e-04  Tolerance :   1.0000e-04


----------------
ORBITAL ENERGIES
----------------

  NO   OCC          E(Eh)            E(eV) 
   0   2.0000    -480.942245    -13087.1038 
   1   2.0000     -61.783971     -1681.2273 
   2   2.0000     -55.714660     -1516.0730 
   3   2.0000     -55.711571     -1515.9889 
   4   2.0000     -55.711319     -1515.9821 
   5   2.0000     -18.735508      -509.8191 
   6   2.0000     -18.732074      -509.7256 
   7   2.0000     -14.067186      -382.7876 
   8   2.0000     -14.054325      -382.4376 
   9   2.0000     -10.034219      -273.0450 
  10   2.0000     -10.003247      -272.2022 
  11   2.0000      -9.982640      -271.6414 
  12   2.0000      -9.950394      -270.7640 
  13   2.0000      -9.930512      -270.2230 
  14   2.0000      -9.923639      -270.0359 
  15   2.0000      -9.882558      -268.9181 
  16   2.0000      -9.874790      -268.7067 
  17   2.0000      -9.873393      -268.6687 
  18   2.0000      -8.409162      -228.8249 
  19   2.0000      -6.291492      -171.2002 
  20   2.0000      -6.276856      -170.8019 
  21   2.0000      -6.276098      -170.7813 
  22   2.0000      -2.492563       -67.8261 
  23   2.0000      -2.489021       -67.7297 
  24   2.0000      -2.488505       -67.7157 
  25   2.0000      -2.477482       -67.4157 
  26   2.0000      -2.477461       -67.4151 
  27   2.0000      -0.988300       -26.8930 
  28   2.0000      -0.947810       -25.7912 
  29   2.0000      -0.898729       -24.4557 
  30   2.0000      -0.860189       -23.4069 
  31   2.0000      -0.768537       -20.9129 
  32   2.0000      -0.728587       -19.8259 
  33   2.0000      -0.707946       -19.2642 
  34   2.0000      -0.668114       -18.1803 
  35   2.0000      -0.652420       -17.7533 
  36   2.0000      -0.614000       -16.7078 
  37   2.0000      -0.596736       -16.2380 
  38   2.0000      -0.563734       -15.3400 
  39   2.0000      -0.541941       -14.7470 
  40   2.0000      -0.527554       -14.3555 
  41   2.0000      -0.492351       -13.3976 
  42   2.0000      -0.453916       -12.3517 
  43   2.0000      -0.438496       -11.9321 
  44   2.0000      -0.415870       -11.3164 
  45   2.0000      -0.412786       -11.2325 
  46   2.0000      -0.395184       -10.7535 
  47   2.0000      -0.390098       -10.6151 
  48   2.0000      -0.385760       -10.4971 
  49   2.0000      -0.385537       -10.4910 
  50   2.0000      -0.374108       -10.1800 
  51   2.0000      -0.369173       -10.0457 
  52   2.0000      -0.364307        -9.9133 
  53   2.0000      -0.358403        -9.7526 
  54   2.0000      -0.343821        -9.3558 
  55   2.0000      -0.322973        -8.7886 
  56   2.0000      -0.320567        -8.7231 
  57   2.0000      -0.302934        -8.2433 
  58   2.0000      -0.295090        -8.0298 
  59   2.0000      -0.291835        -7.9412 
  60   2.0000      -0.275838        -7.5059 
  61   2.0000      -0.253606        -6.9010 
  62   2.0000      -0.238446        -6.4884 
  63   2.0000      -0.234569        -6.3829 
  64   2.0000      -0.216696        -5.8966 
  65   2.0000      -0.206181        -5.6105 
  66   0.0000      -0.073215        -1.9923 
  67   0.0000      -0.032011        -0.8711 
  68   0.0000      -0.026142        -0.7113 
  69   0.0000       0.013661         0.3717 
  70   0.0000       0.046521         1.2659 
  71   0.0000       0.053750         1.4626 
  72   0.0000       0.063839         1.7371 
  73   0.0000       0.069652         1.8953 
  74   0.0000       0.078031         2.1233 
  75   0.0000       0.088830         2.4172 
  76   0.0000       0.099631         2.7111 
*Only the first 10 virtual orbitals were printed.

                    ********************************
                    * MULLIKEN POPULATION ANALYSIS *
                    ********************************

-----------------------
MULLIKEN ATOMIC CHARGES
-----------------------
   0 C :   -0.266044
   1 C :   -0.175085
   2 C :   -0.084161
   3 H :    0.111078
   4 C :   -0.223994
   5 N :   -0.242561
   6 C :    0.188071
   7 O :   -0.175844
   8 C :   -0.192894
   9 C :   -0.000528
  10 N :   -0.199326
  11 C :    0.167319
  12 O :   -0.199571
  13 C :   -0.204682
  14 Br:    0.009195
  15 H :    0.105032
  16 H :    0.098550
  17 H :    0.108330
  18 H :    0.113550
  19 H :    0.087514
  20 H :    0.102115
  21 H :    0.100792
  22 H :    0.127692
  23 H :    0.247772
  24 H :    0.146999
  25 H :    0.105328
  26 H :    0.145354
Sum of atomic charges:    0.0000000

--------------------------------
MULLIKEN REDUCED ORBITAL CHARGES
--------------------------------
  0 C s       :     3.077294  s :     3.077294
      pz      :     1.036033  p :     3.159506
      px      :     1.051163
      py      :     1.072310
      dz2     :     0.006580  d :     0.029245
      dxz     :     0.008266
      dyz     :     0.003096
      dx2y2   :     0.003248
      dxy     :     0.008055

  1 C s       :     3.072714  s :     3.072714
      pz      :     0.969566  p :     3.066610
      px      :     1.044155
      py      :     1.052889
      dz2     :     0.009732  d :     0.035761
      dxz     :     0.007767
      dyz     :     0.004853
      dx2y2   :     0.004002
      dxy     :     0.009406

  2 C s       :     3.094091  s :     3.094091
      pz      :     1.028934  p :     2.936058
      px      :     0.891190
      py      :     1.015933
      dz2     :     0.012683  d :     0.054012
      dxz     :     0.011999
      dyz     :     0.006736
      dx2y2   :     0.007600
      dxy     :     0.014995

  3 H s       :     0.888922  s :     0.888922

  4 C s       :     3.066425  s :     3.066425
      pz      :     0.998160  p :     3.129513
      px      :     1.046951
      py      :     1.084403
      dz2     :     0.007243  d :     0.028056
      dxz     :     0.007457
      dyz     :     0.002227
      dx2y2   :     0.003114
      dxy     :     0.008014

  5 N s       :     3.426087  s :     3.426087
      pz      :     1.545544  p :     3.791397
      px      :     1.151939
      py      :     1.093913
      dz2     :     0.002633  d :     0.025077
      dxz     :     0.003868
      dyz     :     0.003777
      dx2y2   :     0.008686
      dxy     :     0.006113

  6 C s       :     2.986023  s :     2.986023
      pz      :     0.894283  p :     2.713318
      px      :     0.890499
      py      :     0.928536
      dz2     :     0.006831  d :     0.112587
      dxz     :     0.010249
      dyz     :     0.024150
      dx2y2   :     0.023885
      dxy     :     0.047473

  7 O s       :     3.730722  s :     3.730722
      pz      :     1.403466  p :     4.427560
      px      :     1.719142
      py      :     1.304952
      dz2     :     0.002053  d :     0.017562
      dxz     :     0.000175
      dyz     :     0.005400
      dx2y2   :     0.005953
      dxy     :     0.003980

  8 C s       :     3.081074  s :     3.081074
      pz      :     1.163951  p :     3.073984
      px      :     0.935451
      py      :     0.974582
      dz2     :     0.003353  d :     0.037836
      dxz     :     0.005109
      dyz     :     0.006277
      dx2y2   :     0.011037
      dxy     :     0.012060

  9 C s       :     3.038545  s :     3.038545
      pz      :     0.958562  p :     2.902104
      px      :     0.868966
      py      :     1.074576
      dz2     :     0.004263  d :     0.059880
      dxz     :     0.011659
      dyz     :     0.010802
      dx2y2   :     0.017557
      dxy     :     0.015598

 10 N s       :     3.378240  s :     3.378240
      pz      :     1.588353  p :     3.797884
      px      :     1.081469
      py      :     1.128062
      dz2     :     0.002811  d :     0.023202
      dxz     :     0.004861
      dyz     :     0.001291
      dx2y2   :     0.008489
      dxy     :     0.005750

 11 C s       :     2.978359  s :     2.978359
      pz      :     0.911221  p :     2.721781
      px      :     0.861940
      py      :     0.948621
      dz2     :     0.007499  d :     0.132541
      dxz     :     0.025703
      dyz     :     0.017158
      dx2y2   :     0.042956
      dxy     :     0.039225

 12 O s       :     3.738916  s :     3.738916
      pz      :     1.454758  p :     4.443129
      px      :     1.363985
      py      :     1.624387
      dz2     :     0.002001  d :     0.017527
      dxz     :     0.004390
      dyz     :     0.001161
      dx2y2   :     0.004554
      dxy     :     0.005421

 13 C s       :     3.001363  s :     3.001363
      pz      :     1.100467  p :     3.175411
      px      :     1.050814
      py      :     1.024130
      dz2     :     0.004439  d :     0.027908
      dxz     :     0.007825
      dyz     :     0.004255
      dx2y2   :     0.004387
      dxy     :     0.007001

 14 Brs       :     7.967468  s :     7.967468
      pz      :     5.927490  p :    16.975723
      px      :     5.256935
      py      :     5.791298
      dz2     :     2.006158  d :    10.047613
      dxz     :     2.011362
      dyz     :     2.003575
      dx2y2   :     2.011130
      dxy     :     2.015388

 15 H s       :     0.894968  s :     0.894968

 16 H s       :     0.901450  s :     0.901450

 17 H s       :     0.891670  s :     0.891670

 18 H s       :     0.886450  s :     0.886450

 19 H s       :     0.912486  s :     0.912486

 20 H s       :     0.897885  s :     0.897885

 21 H s       :     0.899208  s :     0.899208

 22 H s       :     0.872308  s :     0.872308

 23 H s       :     0.752228  s :     0.752228

 24 H s       :     0.853001  s :     0.853001

 25 H s       :     0.894672  s :     0.894672

 26 H s       :     0.854646  s :     0.854646


------------------------
MULLIKEN OVERLAP CHARGES
------------------------
B(  0-C ,  1-C ) :   0.8692 B(  0-C ,  2-C ) :  -0.1151 B(  0-C , 15-H ) :   0.7289 
B(  0-C , 16-H ) :   0.7535 B(  0-C , 17-H ) :   0.7545 B(  1-C ,  2-C ) :   0.8012 
B(  1-C ,  3-H ) :  -0.0521 B(  1-C ,  4-C ) :  -0.1029 B(  1-C ,  5-N ) :  -0.0899 
B(  1-C , 17-H ) :  -0.0509 B(  1-C , 18-H ) :   0.6877 B(  1-C , 19-H ) :   0.7008 
B(  2-C ,  3-H ) :   0.6959 B(  2-C ,  4-C ) :   0.8491 B(  2-C ,  5-N ) :   0.4685 
B(  2-C , 19-H ) :  -0.0508 B(  3-H ,  5-N ) :  -0.0782 B(  3-H ,  7-O ) :   0.0809 
B(  4-C ,  5-N ) :  -0.0713 B(  4-C , 20-H ) :   0.7342 B(  4-C , 21-H ) :   0.7240 
B(  4-C , 22-H ) :   0.7205 B(  5-N ,  6-C ) :   0.4810 B(  5-N ,  7-O ) :  -0.2180 
B(  5-N ,  8-C ) :  -0.2565 B(  5-N , 10-N ) :  -0.2549 B(  5-N , 11-C ) :   0.4824 
B(  5-N , 12-O ) :  -0.1986 B(  6-C ,  7-O ) :   1.5733 B(  6-C ,  8-C ) :   0.2456 
B(  6-C ,  9-C ) :  -0.0856 B(  6-C , 14-Br) :  -0.0682 B(  7-O ,  8-C ) :  -0.2449 
B(  8-C ,  9-C ) :   0.7938 B(  8-C , 10-N ) :  -0.1007 B(  8-C , 11-C ) :  -0.0786 
B(  8-C , 13-C ) :  -0.1536 B(  8-C , 14-Br) :   0.4902 B(  9-C , 10-N ) :   0.8093 
B(  9-C , 13-C ) :   0.9021 B(  9-C , 14-Br) :  -0.1553 B( 10-N , 11-C ) :   0.5824 
B( 10-N , 12-O ) :  -0.2024 B( 10-N , 13-C ) :  -0.1284 B( 10-N , 23-H ) :   0.5610 
B( 11-C , 12-O ) :   1.4543 B( 13-C , 24-H ) :   0.7114 B( 13-C , 25-H ) :   0.6867 
B( 13-C , 26-H ) :   0.7011 B( 16-H , 17-H ) :  -0.0549 B( 18-H , 19-H ) :  -0.0519 



                     *******************************
                     * LOEWDIN POPULATION ANALYSIS *
                     *******************************

----------------------
LOEWDIN ATOMIC CHARGES
----------------------
   0 C :   -0.342623
   1 C :   -0.236248
   2 C :   -0.078655
   3 H :    0.135127
   4 C :   -0.338898
   5 N :    0.000615
   6 C :    0.019654
   7 O :   -0.170316
   8 C :   -0.218752
   9 C :   -0.006654
  10 N :   -0.085921
  11 C :    0.042014
  12 O :   -0.191364
  13 C :   -0.330640
  14 Br:    0.137296
  15 H :    0.121526
  16 H :    0.113724
  17 H :    0.122532
  18 H :    0.125796
  19 H :    0.121934
  20 H :    0.125145
  21 H :    0.121060
  22 H :    0.128967
  23 H :    0.253985
  24 H :    0.152845
  25 H :    0.130072
  26 H :    0.147780

-------------------------------
LOEWDIN REDUCED ORBITAL CHARGES
-------------------------------
  0 C s       :     2.943113  s :     2.943113
      pz      :     1.087632  p :     3.328643
      px      :     1.115936
      py      :     1.125075
      dz2     :     0.016299  d :     0.070867
      dxz     :     0.020742
      dyz     :     0.006942
      dx2y2   :     0.007533
      dxy     :     0.019352

  1 C s       :     2.909726  s :     2.909726
      pz      :     1.039002  p :     3.238849
      px      :     1.080557
      py      :     1.119290
      dz2     :     0.023533  d :     0.087673
      dxz     :     0.022571
      dyz     :     0.010502
      dx2y2   :     0.009309
      dxy     :     0.021758

  2 C s       :     2.875588  s :     2.875588
      pz      :     1.070171  p :     3.076294
      px      :     0.959300
      py      :     1.046823
      dz2     :     0.029595  d :     0.126773
      dxz     :     0.032318
      dyz     :     0.013196
      dx2y2   :     0.016704
      dxy     :     0.034960

  3 H s       :     0.864873  s :     0.864873

  4 C s       :     2.947526  s :     2.947526
      pz      :     1.067625  p :     3.321720
      px      :     1.112374
      py      :     1.141721
      dz2     :     0.017947  d :     0.069652
      dxz     :     0.019679
      dyz     :     0.005290
      dx2y2   :     0.007567
      dxy     :     0.019170

  5 N s       :     3.085812  s :     3.085812
      pz      :     1.478193  p :     3.848555
      px      :     1.191004
      py      :     1.179359
      dz2     :     0.006253  d :     0.065018
      dxz     :     0.007024
      dyz     :     0.007608
      dx2y2   :     0.024235
      dxy     :     0.019899

  6 C s       :     2.827435  s :     2.827435
      pz      :     0.891713  p :     2.885873
      px      :     0.976796
      py      :     1.017365
      dz2     :     0.016418  d :     0.267038
      dxz     :     0.021668
      dyz     :     0.047822
      dx2y2   :     0.062863
      dxy     :     0.118267

  7 O s       :     3.547542  s :     3.547542
      pz      :     1.412023  p :     4.591836
      px      :     1.741533
      py      :     1.438280
      dz2     :     0.004287  d :     0.030938
      dxz     :     0.000239
      dyz     :     0.007394
      dx2y2   :     0.012639
      dxy     :     0.006378

  8 C s       :     2.914884  s :     2.914884
      pz      :     1.152506  p :     3.203179
      px      :     0.979753
      py      :     1.070920
      dz2     :     0.008690  d :     0.100689
      dxz     :     0.009927
      dyz     :     0.013451
      dx2y2   :     0.032830
      dxy     :     0.035791

  9 C s       :     2.842750  s :     2.842750
      pz      :     0.949114  p :     3.015165
      px      :     0.976165
      py      :     1.089887
      dz2     :     0.010390  d :     0.148739
      dxz     :     0.023583
      dyz     :     0.023433
      dx2y2   :     0.047076
      dxy     :     0.044258

 10 N s       :     3.096025  s :     3.096025
      pz      :     1.549201  p :     3.930274
      px      :     1.178456
      py      :     1.202617
      dz2     :     0.005622  d :     0.059623
      dxz     :     0.009955
      dyz     :     0.002405
      dx2y2   :     0.023740
      dxy     :     0.017901

 11 C s       :     2.797885  s :     2.797885
      pz      :     0.910102  p :     2.852547
      px      :     0.979567
      py      :     0.962878
      dz2     :     0.017757  d :     0.307555
      dxz     :     0.050948
      dyz     :     0.035272
      dx2y2   :     0.104557
      dxy     :     0.099021

 12 O s       :     3.545087  s :     3.545087
      pz      :     1.458698  p :     4.615239
      px      :     1.487217
      py      :     1.669325
      dz2     :     0.004403  d :     0.031038
      dxz     :     0.005875
      dyz     :     0.001512
      dx2y2   :     0.008389
      dxy     :     0.010860

 13 C s       :     2.934507  s :     2.934507
      pz      :     1.140001  p :     3.326188
      px      :     1.096218
      py      :     1.089970
      dz2     :     0.010705  d :     0.069945
      dxz     :     0.019221
      dyz     :     0.009935
      dx2y2   :     0.010960
      dxy     :     0.019123

 14 Brs       :     7.804726  s :     7.804726
      pz      :     5.913180  p :    16.989386
      px      :     5.297272
      py      :     5.778933
      dz2     :     2.008939  d :    10.068592
      dxz     :     2.015185
      dyz     :     2.004519
      dx2y2   :     2.016803
      dxy     :     2.023146

 15 H s       :     0.878474  s :     0.878474

 16 H s       :     0.886276  s :     0.886276

 17 H s       :     0.877468  s :     0.877468

 18 H s       :     0.874204  s :     0.874204

 19 H s       :     0.878066  s :     0.878066

 20 H s       :     0.874855  s :     0.874855

 21 H s       :     0.878940  s :     0.878940

 22 H s       :     0.871033  s :     0.871033

 23 H s       :     0.746015  s :     0.746015

 24 H s       :     0.847155  s :     0.847155

 25 H s       :     0.869928  s :     0.869928

 26 H s       :     0.852220  s :     0.852220


---------------------------------
LOEWDIN BOND ORDERS (THRESH 0.050000)
---------------------------------
B(  0-C ,  1-C ) :   1.1286 B(  0-C ,  2-C ) :   0.0546 B(  0-C , 15-H ) :   0.9380 
B(  0-C , 16-H ) :   0.9405 B(  0-C , 17-H ) :   0.9383 B(  1-C ,  2-C ) :   1.0624 
B(  1-C ,  4-C ) :   0.0541 B(  1-C , 18-H ) :   0.8952 B(  1-C , 19-H ) :   0.8970 
B(  2-C ,  3-H ) :   0.8526 B(  2-C ,  4-C ) :   1.0990 B(  2-C ,  5-N ) :   0.9767 
B(  2-C ,  6-C ) :   0.0678 B(  2-C , 11-C ) :   0.0644 B(  4-C , 20-H ) :   0.9296 
B(  4-C , 21-H ) :   0.9348 B(  4-C , 22-H ) :   0.9272 B(  5-N ,  6-C ) :   1.1734 
B(  5-N ,  7-O ) :   0.1708 B(  5-N ,  8-C ) :   0.0662 B(  5-N , 10-N ) :   0.0638 
B(  5-N , 11-C ) :   1.2339 B(  5-N , 12-O ) :   0.1660 B(  6-C ,  7-O ) :   2.1037 
B(  6-C ,  8-C ) :   1.1494 B(  6-C ,  9-C ) :   0.0983 B(  6-C , 11-C ) :   0.0701 
B(  6-C , 14-Br) :   0.0833 B(  7-O ,  8-C ) :   0.1203 B(  7-O ,  9-C ) :   0.0590 
B(  8-C ,  9-C ) :   1.5955 B(  8-C , 10-N ) :   0.1262 B(  8-C , 13-C ) :   0.0812 
B(  8-C , 14-Br) :   1.1933 B(  9-C , 10-N ) :   1.2808 B(  9-C , 11-C ) :   0.0737 
B(  9-C , 13-C ) :   1.1143 B(  9-C , 14-Br) :   0.1262 B( 10-N , 11-C ) :   1.2284 
B( 10-N , 12-O ) :   0.1603 B( 10-N , 13-C ) :   0.0618 B( 10-N , 23-H ) :   0.8297 
B( 11-C , 12-O ) :   2.0920 B( 13-C , 24-H ) :   0.9097 B( 13-C , 25-H ) :   0.9221 
B( 13-C , 26-H ) :   0.9118 

------------------------------------------
LOEWDIN REDUCED ORBITAL POPULATIONS PER MO
-------------------------------------------
THRESHOLD FOR PRINTING IS 0.1%%
                      0         1         2         3         4         5   
                 -480.94225 -61.78397 -55.71466 -55.71157 -55.71132 -18.73551
                   2.00000   2.00000   2.00000   2.00000   2.00000   2.00000
                  --------  --------  --------  --------  --------  --------
12 O  s               0.0       0.0       0.0       0.0       0.0      99.9
14 Br s             100.0     100.0       0.0       0.0       0.0       0.0
14 Br pz              0.0       0.0       0.0      99.2       0.8       0.0
14 Br px              0.0       0.0      80.8       0.2      19.1       0.0
14 Br py              0.0       0.0      19.2       0.6      80.1       0.0

                      6         7         8         9        10        11   
                 -18.73207 -14.06719 -14.05433 -10.03422 -10.00325  -9.98264
                   2.00000   2.00000   2.00000   2.00000   2.00000   2.00000
                  --------  --------  --------  --------  --------  --------
 5 N  s               0.0       0.0      99.7       0.0       0.0       0.0
 5 N  px              0.0       0.0       0.0       0.0       0.1       0.0
 5 N  py              0.0       0.0       0.0       0.2       0.0       0.0
 6 C  s               0.0       0.0       0.0       0.0      99.4       0.0
 7 O  s              99.9       0.0       0.0       0.0       0.0       0.0
 7 O  py              0.0       0.0       0.0       0.0       0.3       0.0
 8 C  py              0.0       0.0       0.0       0.0       0.0       0.2
 9 C  s               0.0       0.0       0.0       0.0       0.0      99.5
10 N  s               0.0      99.8       0.0       0.0       0.0       0.0
10 N  px              0.0       0.0       0.0       0.1       0.0       0.1
11 C  s               0.0       0.0       0.0      99.3       0.0       0.0
12 O  px              0.0       0.0       0.0       0.2       0.0       0.0

                     12        13        14        15        16        17   
                  -9.95039  -9.93051  -9.92364  -9.88256  -9.87479  -9.87339
                   2.00000   2.00000   2.00000   2.00000   2.00000   2.00000
                  --------  --------  --------  --------  --------  --------
 0 C  s               0.0       0.0       0.0       0.0       0.0      99.7
 1 C  s               0.0       0.0       0.0      99.6       0.0       0.0
 2 C  s               0.0      99.6       0.0       0.0       0.0       0.0
 4 C  s               0.0       0.0       0.0       0.0      99.7       0.0
 8 C  s              99.6       0.0       0.0       0.0       0.0       0.0
 9 C  py              0.2       0.0       0.0       0.0       0.0       0.0
13 C  s               0.0       0.0      99.7       0.0       0.0       0.0

                     18        19        20        21        22        23   
                  -8.40916  -6.29149  -6.27686  -6.27610  -2.49256  -2.48902
                   2.00000   2.00000   2.00000   2.00000   2.00000   2.00000
                  --------  --------  --------  --------  --------  --------
 8 C  px              0.1       0.0       0.0       0.0       0.0       0.0
14 Br s              99.8       0.0       0.0       0.0       0.0       0.0
14 Br pz              0.0       0.0      99.9       0.1       0.0       0.0
14 Br px              0.0      81.1       0.0      18.9       0.0       0.0
14 Br py              0.0      18.9       0.1      81.0       0.0       0.0
14 Br dz2             0.0       0.0       0.0       0.0      26.9       0.0
14 Br dxz             0.0       0.0       0.0       0.0       0.0      81.1
14 Br dyz             0.0       0.0       0.0       0.0       0.0      18.8
14 Br dx2y2           0.0       0.0       0.0       0.0      27.7       0.1
14 Br dxy             0.0       0.0       0.0       0.0      45.3       0.0

                     24        25        26        27        28        29   
                  -2.48851  -2.47748  -2.47746  -0.98830  -0.94781  -0.89873
                   2.00000   2.00000   2.00000   2.00000   2.00000   2.00000
                  --------  --------  --------  --------  --------  --------
 2 C  s               0.0       0.0       0.0       1.2       0.4       0.0
 2 C  px              0.0       0.0       0.0       0.8       0.7       0.0
 2 C  py              0.0       0.0       0.0       0.7       0.0       0.0
 3 H  s               0.0       0.0       0.0       0.3       0.5       0.0
 4 C  pz              0.0       0.0       0.0       0.1       0.0       0.0
 5 N  s               0.0       0.0       0.0      11.4       2.8       0.1
 5 N  px              0.0       0.0       0.0       0.0       1.4       0.5
 5 N  py              0.0       0.0       0.0       1.1       2.1       0.1
 6 C  s               0.0       0.0       0.0       5.0      18.5       0.0
 6 C  pz              0.0       0.0       0.0       0.0       0.1       0.0
 6 C  px              0.0       0.0       0.0       0.7       0.0       0.0
 6 C  py              0.0       0.0       0.0       0.1       7.6       2.3
 6 C  dz2             0.0       0.0       0.0       0.1       0.5       0.0
 6 C  dx2y2           0.0       0.0       0.0       0.0       0.6       0.1
 7 O  s               0.0       0.0       0.0       3.1      35.9       1.9
 7 O  py              0.0       0.0       0.0       0.7       5.4       0.2
 7 O  dx2y2           0.0       0.0       0.0       0.0       0.1       0.0
 8 C  s               0.0       0.0       0.0       1.3       1.4       2.0
 8 C  px              0.0       0.0       0.0       0.7       0.7       0.2
 8 C  py              0.0       0.0       0.0       0.0       1.5       2.0
 9 C  s               0.0       0.0       0.0       2.4       0.0      11.3
 9 C  px              0.0       0.0       0.0       1.8       0.1       3.8
 9 C  py              0.0       0.0       0.0       0.0       0.4       0.3
 9 C  dz2             0.0       0.0       0.0       0.1       0.0       0.2
 9 C  dx2y2           0.0       0.0       0.0       0.0       0.0       0.1
 9 C  dxy             0.0       0.0       0.0       0.0       0.0       0.1
10 N  s               0.0       0.0       0.0      11.7       1.2      25.1
10 N  px              0.0       0.0       0.0       0.9       0.3       2.2
10 N  py              0.0       0.0       0.0       0.7       0.0       0.3
11 C  s               0.0       0.0       0.0      23.6       2.5       0.3
11 C  px              0.0       0.0       0.0       0.6       1.5      18.7
11 C  py              0.0       0.0       0.0       0.3       2.7       0.1
11 C  dz2             0.0       0.0       0.0       0.6       0.1       0.0
11 C  dx2y2           0.0       0.0       0.0       0.1       0.2       0.1
11 C  dxy             0.0       0.0       0.0       0.1       0.0       0.8
12 O  s               0.0       0.0       0.0      21.3       8.2      17.9
12 O  px              0.0       0.0       0.0       3.5       1.0       1.1
12 O  py              0.0       0.0       0.0       0.8       0.2       0.5
13 C  s               0.0       0.0       0.0       0.1       0.0       1.3
13 C  px              0.0       0.0       0.0       0.2       0.0       0.9
13 C  py              0.0       0.0       0.0       0.1       0.0       0.3
14 Br s               0.0       0.0       0.0       0.1       0.2       0.1
14 Br px              0.0       0.0       0.0       0.0       0.1       0.0
14 Br dz2             0.0       0.8      72.2       0.0       0.0       0.0
14 Br dxz             0.1      18.5       0.3       0.0       0.0       0.0
14 Br dyz             0.0      80.4       0.9       0.0       0.0       0.0
14 Br dx2y2          61.8       0.1      10.3       0.0       0.0       0.0
14 Br dxy            38.1       0.2      16.4       0.0       0.0       0.0
18 H  s               0.0       0.0       0.0       0.1       0.0       0.0
22 H  s               0.0       0.0       0.0       0.1       0.0       0.0
23 H  s               0.0       0.0       0.0       2.0       0.3       3.6
24 H  s               0.0       0.0       0.0       0.0       0.0       0.2
25 H  s               0.0       0.0       0.0       0.0       0.0       0.3
26 H  s               0.0       0.0       0.0       0.0       0.0       0.2

                     30        31        32        33        34        35   
                  -0.86019  -0.76854  -0.72859  -0.70795  -0.66811  -0.65242
                   2.00000   2.00000   2.00000   2.00000   2.00000   2.00000
                  --------  --------  --------  --------  --------  --------
 0 C  s               0.1       0.0       4.3       2.1      11.0      11.2
 0 C  pz              0.1       0.0       1.1       0.4       0.4       0.1
 0 C  px              0.0       0.0       0.2       0.1       0.2       0.1
 1 C  s               0.7       0.0      11.8       4.4       7.9       3.3
 1 C  pz              0.3       0.0       0.4       0.0       1.7       4.2
 1 C  px              0.4       0.0       0.9       0.2       0.0       0.1
 1 C  py              0.0       0.0       0.0       0.0       0.2       0.1
 2 C  s               6.1       0.1      15.0       2.8       0.3       3.7
 2 C  pz              0.1       0.0       0.1       0.1       2.1       6.2
 2 C  px              1.7       0.0       1.2       0.9       1.2       0.4
 2 C  py              1.5       0.0       0.0       0.0       0.5       0.0
 2 C  dxy             0.2       0.0       0.0       0.0       0.0       0.0
 3 H  s               0.6       0.0       2.9       0.5       0.0       0.8
 4 C  s               0.7       0.0       6.4       1.6       0.9      15.4
 4 C  pz              0.4       0.0       1.4       0.3       0.0       0.1
 4 C  px              0.3       0.0       0.3       0.0       0.1       0.1
 4 C  py              0.0       0.0       0.1       0.0       0.0       0.0
 5 N  s              29.5       0.0       0.4       0.6       1.3       0.7
 5 N  pz              0.0       0.0       0.1       0.0       0.2       0.6
 5 N  px              0.1       0.3       5.8       0.9       2.4       0.1
 5 N  py              0.0       0.0       3.3       0.0       0.0       1.8
 6 C  s               0.1       1.1       1.2       0.3       1.9       0.3
 6 C  pz              0.0       0.1       0.0       0.0       0.2       0.0
 6 C  px              6.1       2.8       0.1       0.7       1.5       0.7
 6 C  py              8.7       3.5       2.0       0.2       2.9       0.6
 6 C  dx2y2           0.7       0.1       0.0       0.0       0.0       0.0
 6 C  dxy             0.1       0.1       0.0       0.0       0.1       0.1
 7 O  s              10.2       1.3       0.3       0.0       0.4       0.2
 7 O  py              0.7       0.1       0.1       0.0       0.1       0.0
 8 C  s               0.1      20.9       0.5       0.1       5.2       2.6
 8 C  px              0.2       2.5       0.3       3.8       6.1       1.4
 8 C  py              0.0       0.1       1.4       4.1       0.7       0.4
 8 C  dz2             0.0       0.2       0.0       0.0       0.0       0.0
 8 C  dx2y2           0.0       0.0       0.0       0.1       0.1       0.0
 8 C  dxy             0.0       0.0       0.0       0.1       0.0       0.0
 9 C  s               1.5       7.2       3.2       5.5       0.8       0.7
 9 C  pz              0.0       0.0       0.1       0.1       0.2       0.1
 9 C  px              0.3       3.9       1.0       2.6       1.3       1.7
 9 C  py              0.4       4.0       2.8       1.1       7.1       3.2
 9 C  dx2y2           0.0       0.2       0.0       0.0       0.1       0.0
 9 C  dxy             0.0       0.0       0.0       0.1       0.0       0.1
10 N  s               4.9       4.5       0.0       2.5       0.5       0.0
10 N  px              0.1       2.1       3.1       4.0       0.5       1.4
10 N  py              0.4       0.4       1.1       0.2       2.1       0.1
11 C  s               0.2       0.4       1.5       0.2       0.2       1.0
11 C  pz              0.2       0.0       0.0       0.1       0.0       0.0
11 C  px              0.5       2.3       1.7       1.7       0.1       0.5
11 C  py             14.0       0.2       0.2       1.0       0.2       0.6
11 C  dx2y2           0.6       0.0       0.0       0.0       0.1       0.1
11 C  dxy             0.0       0.2       0.0       0.2       0.1       0.0
12 O  s               3.6       1.4       0.2       0.8       0.5       0.5
12 O  px              0.3       0.1       0.1       0.1       0.0       0.1
13 C  s               0.3       3.9       6.9      13.3       5.4       5.9
13 C  px              0.2       0.1       0.4       0.4       0.0       0.2
13 C  py              0.0       0.9       0.1       0.1       0.1       0.1
14 Br s               0.1      28.3       0.8      28.6      13.8       3.2
14 Br px              0.0       1.5       0.0       0.1       0.3       0.2
14 Br py              0.0       0.5       0.0       0.0       0.0       0.0
14 Br dxy             0.0       0.2       0.0       0.0       0.0       0.0
15 H  s               0.0       0.0       0.7       0.4       2.3       2.5
16 H  s               0.0       0.0       0.7       0.4       2.2       2.7
17 H  s               0.0       0.0       0.8       0.4       2.2       2.4
18 H  s               0.1       0.0       2.1       0.7       1.6       0.6
19 H  s               0.1       0.0       2.2       0.9       1.8       0.6
20 H  s               0.1       0.0       1.2       0.3       0.1       3.5
21 H  s               0.1       0.0       1.1       0.3       0.3       3.6
22 H  s               0.1       0.0       1.2       0.3       0.2       3.3
23 H  s               1.3       1.4       0.2       0.9       1.1       0.1
24 H  s               0.0       0.8       1.3       2.7       1.4       1.7
25 H  s               0.1       0.5       1.6       2.9       1.7       1.8
26 H  s               0.0       1.0       1.2       2.3       1.5       1.7

                     36        37        38        39        40        41   
                  -0.61400  -0.59674  -0.56373  -0.54194  -0.52755  -0.49235
                   2.00000   2.00000   2.00000   2.00000   2.00000   2.00000
                  --------  --------  --------  --------  --------  --------
 0 C  s               0.0       0.3      11.7       4.0       1.2       0.5
 0 C  pz              0.0       0.0       2.6       1.4       0.7       0.4
 0 C  px              0.0       0.0       0.3       1.1       0.5       1.3
 0 C  py              0.0       0.0       0.2       0.3       0.0       0.3
 1 C  s               0.2       0.0       3.9       5.9       2.0       2.6
 1 C  pz              0.0       0.0       5.5       0.8       0.2       0.4
 1 C  px              0.2       0.1       0.0       2.4       1.3       3.6
 1 C  py              0.0       0.2       0.1       0.6       0.1       0.3
 1 C  dxz             0.0       0.0       0.2       0.0       0.0       0.0
 2 C  s               0.2       0.1       4.5       0.8       0.2       4.4
 2 C  pz              0.7       1.3       4.9       0.9       0.0       0.1
 2 C  px              4.2       1.0       0.0       5.9       1.1       0.8
 2 C  py              0.3       0.7       0.6       0.7       2.4       1.0
 2 C  dxz             0.0       0.0       0.1       0.1       0.0       0.0
 3 H  s               0.4       0.0       1.5       1.7       0.2       2.8
 4 C  s               4.8       5.3       9.3       0.0       0.1       0.9
 4 C  pz              0.0       0.2       2.4       0.0       0.1       1.1
 4 C  px              0.1       0.1       0.2       0.7       0.4       1.3
 4 C  py              0.0       0.1       0.3       0.1       0.2       0.4
 5 N  s               0.9       0.4       0.3       0.0       0.2       1.0
 5 N  pz              0.1       0.0       0.1       0.4       0.0       0.0
 5 N  px              2.1      10.1       1.7       0.6      11.9       2.9
 5 N  py             22.9       1.4       0.9       5.8       1.4       0.2
 5 N  dx2y2           0.3       0.1       0.0       0.0       0.0       0.0
 5 N  dxy             0.0       0.0       0.1       0.1       0.0       0.1
 6 C  s               2.4       4.8       0.1       1.7       0.1       0.2
 6 C  pz              0.0       0.0       0.0       0.1       0.1       0.1
 6 C  px              4.4       0.1       0.5       3.9      10.7       7.4
 6 C  py              1.6       4.1       0.0       1.4       0.1       0.3
 6 C  dx2y2           0.5       0.2       0.0       0.0       0.0       0.0
 6 C  dxy             0.0       0.0       0.1       0.0       0.2       0.2
 7 O  s               2.8       2.1       0.0       0.2       0.0       0.5
 7 O  px              0.6       0.0       0.0       1.2       1.6       1.0
 7 O  py              0.4       0.7       0.0       0.4       0.0       0.2
 8 C  s               0.1       0.5       1.5       0.1       6.3       0.0
 8 C  pz              0.0       0.1       0.0       0.3       0.0       0.3
 8 C  px              0.1       1.4       0.0       2.4       0.1       3.6
 8 C  py              0.8       3.7       0.3       9.5       1.5       8.8
 8 C  dx2y2           0.1       0.1       0.0       0.1       0.0       0.0
 8 C  dxy             0.0       0.2       0.0       0.1       0.1       0.0
 9 C  s               0.0       4.4       0.1       1.0       0.3       1.2
 9 C  px              0.9       3.7       1.8       2.4       2.3       8.2
 9 C  py              1.4       0.0       3.0       5.9       0.6       1.5
 9 C  dx2y2           0.0       0.0       0.0       0.0       0.3       0.2
 9 C  dxy             0.1       0.3       0.0       0.0       0.0       0.0
10 N  s               0.9       0.0       0.0       0.0       0.1       0.1
10 N  pz              0.4       0.0       0.0       0.2       0.2       0.1
10 N  px              3.2      16.1       7.2       5.9       1.2       1.6
10 N  py             11.7       1.2       0.3       3.2      19.1      10.3
10 N  dx2y2           0.0       0.0       0.0       0.0       0.2       0.1
10 N  dxy             0.1       0.1       0.0       0.0       0.0       0.0
11 C  s               6.6       0.0       0.3       0.1       0.0       0.0
11 C  pz              0.0       0.1       0.3       0.1       0.1       0.0
11 C  px              3.4       2.3       1.0       1.4       1.2       0.1
11 C  py              3.7       6.2       1.9       4.9       1.3       0.2
11 C  dx2y2           0.0       0.0       0.0       0.0       0.5       0.2
11 C  dxy             0.1       0.0       0.2       0.1       0.2       0.0
12 O  s               2.5       0.1       0.4       0.1       1.4       0.1
12 O  px              0.4       0.4       0.4       0.7       0.2       0.0
12 O  py              0.6       1.0       0.1       0.7       0.5       0.0
13 C  s               1.1       6.5       0.2       0.1       0.1       1.1
13 C  pz              0.0       0.0       0.0       0.0       0.0       0.1
13 C  px              0.5       2.0       0.6       0.3       0.0       0.8
13 C  py              0.1       0.8       0.1       2.2       0.0       6.6
13 C  dxy             0.0       0.1       0.0       0.0       0.0       0.1
14 Br s               0.8       0.9       1.6       0.1       5.9       0.1
14 Br px              0.0       0.1       0.4       0.0       4.0       0.0
14 Br py              0.0       0.0       0.2       0.4       0.4       0.8
14 Br dx2y2           0.0       0.0       0.0       0.0       0.1       0.1
14 Br dxy             0.0       0.0       0.0       0.0       0.1       0.1
15 H  s               0.0       0.1       4.6       1.5       0.5       0.1
16 H  s               0.0       0.1       4.1       1.8       0.8       0.5
17 H  s               0.0       0.1       3.6       2.1       0.5       0.7
18 H  s               0.1       0.0       0.9       3.3       0.7       2.3
19 H  s               0.1       0.1       1.3       2.9       1.7       2.0
20 H  s               1.4       1.9       3.0       0.1       0.3       0.8
21 H  s               1.1       1.5       3.9       0.0       0.0       0.4
22 H  s               1.3       1.1       3.3       0.2       0.0       1.0
23 H  s               4.3       0.9       0.0       1.0       9.2       4.8
24 H  s               0.4       2.6       0.2       0.0       0.1       0.9
25 H  s               0.1       2.4       0.0       1.0       0.0       2.8
26 H  s               0.5       2.7       0.3       0.0       0.0       0.3

                     42        43        44        45        46        47   
                  -0.45392  -0.43850  -0.41587  -0.41279  -0.39518  -0.39010
                   2.00000   2.00000   2.00000   2.00000   2.00000   2.00000
                  --------  --------  --------  --------  --------  --------
 0 C  s               0.0       0.0       0.0       0.0       0.1       0.0
 0 C  pz              0.0       0.1       0.3       0.0       0.7       0.0
 0 C  px              1.2       0.4       3.6       0.2       4.0       4.3
 0 C  py              0.3       4.0       0.5       0.2       0.0       1.4
 1 C  s               0.2       0.4       0.1       0.1       0.3       0.0
 1 C  pz              0.1       2.4       0.7       0.2       3.6       1.2
 1 C  px              1.4       0.2       4.1       0.1       1.6       2.6
 1 C  py              0.5      10.9       0.7       0.1       1.2       2.8
 2 C  s               0.0       1.0       0.0       0.0       0.7       0.1
 2 C  pz              1.3       0.3       3.3       0.0       0.1       0.9
 2 C  px              0.0       2.3       0.5       0.3       4.8       1.6
 2 C  py              0.0      18.8       0.0       0.3       0.8       0.6
 2 C  dxy             0.0       0.1       0.0       0.0       0.0       0.0
 3 H  s               0.0       7.8       0.0       0.4       0.4       0.2
 4 C  s               0.4       0.1       0.2       0.0       0.1       0.0
 4 C  pz              0.4       0.5       0.1       0.1       7.6       1.7
 4 C  px              1.2       0.1       2.6       0.1       0.6       1.1
 4 C  py              0.0       7.2       0.0       0.0       0.7       1.0
 5 N  s               0.0       0.1       0.0       0.0       0.1       0.1
 5 N  pz             15.7       0.4       7.8       0.1       0.2       0.0
 5 N  px              0.0       4.3       0.0       0.2       0.6       0.7
 5 N  py              0.3       6.8       0.0       1.0       0.6       0.0
 6 C  s               0.0       0.0       0.0       1.0       0.7       0.1
 6 C  pz              7.9       0.0       1.8       0.0       0.0       0.0
 6 C  px              0.1       0.0       0.0       0.5       0.1       0.4
 6 C  py              0.1       0.4       0.0       0.7       0.1       0.5
 6 C  dx2y2           0.0       0.0       0.0       0.2       0.0       0.0
 7 O  s               0.0       0.3       0.0       4.0       0.5       1.2
 7 O  pz              1.9       0.0       0.9       0.1       0.0       0.1
 7 O  px              0.0       0.1       0.0       0.2       0.2       0.0
 7 O  py              0.0       0.9       0.0       8.3       2.0       2.8
 8 C  s               0.0       0.0       0.1       0.3       1.1       0.1
 8 C  pz              5.1       0.0       0.9       0.0       0.0       0.0
 8 C  px              0.0       0.0       0.0       1.2       0.7       0.2
 8 C  py              0.0       0.0       0.0       5.6       0.3       1.5
 8 C  dxy             0.0       0.0       0.0       0.1       0.1       0.0
[...]
14 Br dxz             0.1       0.2       0.0       0.2      17.8       1.8
14 Br dyz             0.1       0.1       0.3       0.6      70.5       8.5
14 Br dx2y2           0.0       0.0       1.3       0.3       0.9       8.4
14 Br dxy             0.0       0.0       0.2       0.4       1.9      14.8
23 H  s               0.0       0.0       0.1       0.2       0.0       0.0

                    234       235       236       237       238       239   
                   3.40047   3.46839   3.52353   3.55792   3.61743   3.73438
                   0.00000   0.00000   0.00000   0.00000   0.00000   0.00000
                  --------  --------  --------  --------  --------  --------
 2 C  dx2y2           0.0       0.3       0.5       0.0       0.1       0.0
 2 C  dxy             0.0       0.1       0.0       0.0       0.3       0.0
 5 N  s               0.0       0.1       0.0       0.1       0.0       0.0
 5 N  px              0.0       0.1       0.1       0.3       0.1       0.1
 5 N  py              0.0       0.7       0.4       0.2       0.0       0.0
 5 N  dxz             0.0       0.0       0.0       0.0       0.2       0.0
 5 N  dyz             0.0       0.2       0.2       0.0       0.0       0.0
 5 N  dx2y2           0.0       5.7       7.3       0.7       0.3       0.0
 5 N  dxy             0.0       0.4       0.5       0.1       7.3       0.0
 6 C  s               0.0       1.0       2.6       0.7       1.4       0.1
 6 C  px              0.0       0.2       0.0       0.0       0.1       0.1
 6 C  py              0.0       1.3       2.0       1.0       2.4       0.1
 6 C  dz2             0.0       0.1       0.4       0.0       0.2       0.0
 6 C  dyz             0.1       0.1       0.0       0.1       0.2       0.0
 6 C  dx2y2           0.0       0.7       0.9       1.3       6.7       0.0
 6 C  dxy             0.0       3.0       5.5       1.7       0.2       0.1
 7 O  s               0.0       0.6       2.0       1.4       1.7       0.1
 7 O  px              0.0       0.1       0.1       0.2       0.0       0.0
 7 O  py              0.0       0.5       1.5       0.6       1.5       0.0
 7 O  dz2             0.0       2.0       4.4       2.2       3.3       0.0
 7 O  dxz             0.0       0.1       0.0       0.1       0.0       0.0
 7 O  dyz             0.2       0.2       1.6       0.2       0.9       0.0
 7 O  dx2y2           0.0       5.3      19.4       3.8      14.8       0.0
 7 O  dxy             0.0       6.8       2.2       4.2       0.4       0.0
 8 C  s               0.0       0.0       0.0       0.0       0.1       0.4
 8 C  pz              0.4       0.0       0.0       0.0       0.0       0.0
 8 C  px              0.0       0.2       0.0       0.3       0.0       2.1
 8 C  py              0.0       0.4       0.2       1.4       0.1       0.2
 8 C  dz2             0.0       0.0       0.0       0.0       0.0       0.1
 8 C  dxz             0.6       0.0       0.0       0.0       0.0       0.0
 8 C  dyz             0.1       0.0       0.0       0.0       0.1       0.0
 8 C  dx2y2           0.0       0.3       0.1       0.6       1.1       0.1
 8 C  dxy             0.0       0.1       0.8       0.4       0.7       0.2
 9 C  s               0.0       0.1       0.0       0.5       0.1       0.0
 9 C  px              0.0       0.2       0.1       0.0       0.0       0.1
 9 C  py              0.0       0.1       0.1       0.1       0.0       0.1
 9 C  dx2y2           0.0       0.4       0.7       0.2       0.1       0.0
 9 C  dxy             0.0       0.0       0.2       0.2       2.3       0.0
10 N  s               0.0       0.1       0.0       0.0       0.2       0.0
10 N  px              0.0       0.4       0.6       0.0       0.1       0.0
10 N  py              0.0       0.2       0.0       0.0       0.0       0.0
10 N  dz2             0.0       0.0       0.0       0.0       0.3       0.0
10 N  dx2y2           0.0       0.8       0.1       0.5       4.6       0.0
10 N  dxy             0.0       3.8       2.1       0.1       0.1       0.0
11 C  s               0.0       0.5       1.7       0.5       1.8       0.0
11 C  px              0.0       0.4       1.4       0.6       2.7       0.0
11 C  py              0.0       0.7       0.0       0.2       0.6       0.0
11 C  dz2             0.0       0.0       0.3       0.0       0.3       0.0
11 C  dxz             0.0       0.2       0.1       0.0       0.0       0.0
11 C  dyz             0.0       0.1       0.0       0.0       0.1       0.0
11 C  dx2y2           0.0       9.7       2.3       1.3       2.9       0.0
11 C  dxy             0.0       2.7       5.6       0.0       7.0       0.0
12 O  s               0.0       0.4       1.7       0.8       2.6       0.0
12 O  px              0.0       0.0       1.3       0.3       1.8       0.0
12 O  py              0.0       0.8       0.0       0.2       0.4       0.0
12 O  dz2             0.0       1.5       4.0       1.6       4.8       0.0
12 O  dxz             0.0       0.3       0.2       0.0       0.0       0.0
12 O  dx2y2           0.0       4.1      18.6       0.3       7.9       0.0
12 O  dxy             0.0      17.3       1.2       5.8      13.7       0.1
13 C  s               0.0       0.0       0.0       0.0       0.0       0.1
13 C  dxy             0.0       0.0       0.0       0.0       0.1       0.0
14 Br s               0.0       0.0       0.0       0.0       0.0       2.9
14 Br px              0.0       0.0       0.0       0.1       0.0       1.5
14 Br py              0.0       0.0       0.0       0.1       0.0       0.4
14 Br dz2             0.0       0.1       0.0       0.0       0.0      23.6
14 Br dxz            76.9       0.4       0.1       1.3       0.0       0.0
14 Br dyz            18.9       0.0       0.0       0.3       0.0       0.0
14 Br dx2y2           1.7      16.4       2.6      42.7       0.2      19.9
14 Br dxy             0.5       7.0       1.3      19.9       0.0      47.3



                      *****************************
                      * MAYER POPULATION ANALYSIS *
                      *****************************

  NA   - Mulliken gross atomic population
  ZA   - Total nuclear charge
  QA   - Mulliken gross atomic charge
  VA   - Mayer's total valence
  BVA  - Mayer's bonded valence
  FA   - Mayer's free valence

  ATOM       NA         ZA         QA         VA         BVA        FA
  0 C      6.2660     6.0000    -0.2660     4.0168     4.0168     0.0000
  1 C      6.1751     6.0000    -0.1751     4.0759     4.0759    -0.0000
  2 C      6.0842     6.0000    -0.0842     4.1580     4.1580     0.0000
  3 H      0.8889     1.0000     0.1111     0.9978     0.9978    -0.0000
  4 C      6.2240     6.0000    -0.2240     3.9349     3.9349     0.0000
  5 N      7.2426     7.0000    -0.2426     3.1541     3.1541     0.0000
  6 C      5.8119     6.0000     0.1881     4.2686     4.2686     0.0000
  7 O      8.1758     8.0000    -0.1758     2.3834     2.3834     0.0000
  8 C      6.1929     6.0000    -0.1929     3.8626     3.8626    -0.0000
  9 C      6.0005     6.0000    -0.0005     4.2154     4.2154     0.0000
 10 N      7.1993     7.0000    -0.1993     3.2844     3.2844    -0.0000
 11 C      5.8327     6.0000     0.1673     4.3455     4.3455     0.0000
 12 O      8.1996     8.0000    -0.1996     2.3159     2.3159    -0.0000
 13 C      6.2047     6.0000    -0.2047     3.9246     3.9246    -0.0000
 14 Br    34.9908    35.0000     0.0092     1.2434     1.2434    -0.0000
 15 H      0.8950     1.0000     0.1050     0.9501     0.9501     0.0000
 16 H      0.9015     1.0000     0.0985     0.9573     0.9573     0.0000
 17 H      0.8917     1.0000     0.1083     0.9615     0.9615    -0.0000
 18 H      0.8864     1.0000     0.1136     0.9819     0.9819     0.0000
 19 H      0.9125     1.0000     0.0875     0.9511     0.9511     0.0000
 20 H      0.8979     1.0000     0.1021     0.9612     0.9612     0.0000
 21 H      0.8992     1.0000     0.1008     0.9569     0.9569     0.0000
 22 H      0.8723     1.0000     0.1277     0.9896     0.9896     0.0000
 23 H      0.7522     1.0000     0.2478     0.9347     0.9347    -0.0000
 24 H      0.8530     1.0000     0.1470     0.9543     0.9543     0.0000
 25 H      0.8947     1.0000     0.1053     0.9683     0.9683     0.0000
 26 H      0.8546     1.0000     0.1454     0.9704     0.9704     0.0000

  Mayer bond orders larger than 0.100000
B(  0-C ,  1-C ) :   1.1605 B(  0-C , 15-H ) :   0.9512 B(  0-C , 16-H ) :   0.9490 
B(  0-C , 17-H ) :   0.9500 B(  1-C ,  2-C ) :   1.0868 B(  1-C , 18-H ) :   0.9031 
B(  1-C , 19-H ) :   0.9192 B(  2-C ,  3-H ) :   0.8731 B(  2-C ,  4-C ) :   1.1252 
B(  2-C ,  5-N ) :   0.9079 B(  4-C , 20-H ) :   0.9445 B(  4-C , 21-H ) :   0.9464 
B(  4-C , 22-H ) :   0.9291 B(  5-N ,  6-C ) :   1.0264 B(  5-N , 11-C ) :   1.0828 
B(  6-C ,  7-O ) :   2.1001 B(  6-C ,  8-C ) :   1.0458 B(  8-C ,  9-C ) :   1.6058 
B(  8-C , 14-Br) :   1.0876 B(  9-C , 10-N ) :   1.2070 B(  9-C , 13-C ) :   1.1624 
B( 10-N , 11-C ) :   1.0842 B( 10-N , 23-H ) :   0.8302 B( 11-C , 12-O ) :   2.0299 
B( 13-C , 24-H ) :   0.9155 B( 13-C , 25-H ) :   0.9221 B( 13-C , 26-H ) :   0.9116 


-------
TIMINGS
-------

Total SCF time: 0 days 0 hours 0 min 18 sec 

Total time                  ....      18.068 sec
Sum of individual times     ....      17.584 sec  ( 97.3%)

SCF preparation             ....       0.199 sec  (  1.1%)
Fock matrix formation       ....      16.375 sec  ( 90.6%)
  Startup                   ....       0.068 sec  (  0.4% of F)
  Split-RI-J                ....       7.981 sec  ( 48.7% of F)
  XC integration            ....       7.779 sec  ( 47.5% of F)
    Basis function eval.    ....       2.942 sec  ( 37.8% of XC)
    Density eval.           ....       1.440 sec  ( 18.5% of XC)
    XC-Functional eval.     ....       0.564 sec  (  7.3% of XC)
    XC-Potential eval.      ....       1.904 sec  ( 24.5% of XC)
Diagonalization             ....       0.000 sec  (  0.0%)
Density matrix formation    ....       0.203 sec  (  1.1%)
Total Energy calculation    ....       0.039 sec  (  0.2%)
Population analysis         ....       0.127 sec  (  0.7%)
Orbital Transformation      ....       0.066 sec  (  0.4%)
Orbital Orthonormalization  ....       0.000 sec  (  0.0%)
DIIS solution               ....       0.369 sec  (  2.0%)
  MO trafo                  ....       0.000 sec  (  0.0 % of DIIS)
  Orb grad                  ....       0.000 sec  (  0.0 % of DIIS)
  Energy W gradient         ....       0.000 sec  (  0.0 % of DIIS)
  DIIS error                ....       0.011 sec  (  3.0 % of DIIS)
  DIIS work                 ....       0.304 sec  ( 82.4 % of DIIS)
  Form Q                    ....       0.000 sec  (  0.0 % of DIIS)
  Form QpQm                 ....       0.000 sec  (  0.0 % of DIIS)
  Exp/Cayley                ....       0.000 sec  (  0.0 % of DIIS)
  Orb update                ....       0.000 sec  (  0.0 % of DIIS)
  Wake-sleep                ....       0.017 sec  (  4.7 % of DIIS)
SOSCF solution              ....       0.205 sec  (  1.1%)
  MO trafo                  ....       0.075 sec  ( 36.5 % of SOSCF)
  Orb grad                  ....       0.003 sec  (  1.4 % of SOSCF)
  Rot update                ....       0.079 sec  ( 38.6 % of SOSCF)
  Step                      ....       0.048 sec  ( 23.4 % of SOSCF)
Finished LeanSCF after  18.2 sec

Maximum memory used throughout the entire LEANSCF-calculation: 23.8 MB


-------------------------------------------------------------------------------
                          DFT DISPERSION CORRECTION                            
                                                                               
                                DFTD4 V3.4.0                                   
-------------------------------------------------------------------------------
The PBE functional is recognized
Active option DFTDOPT                   ...         5   

-------------------------   ----------------
Dispersion correction           -0.034270805
-------------------------   ----------------

------------------   -----------------
gCP correction             0.125852577
------------------   -----------------

-------------------------   --------------------
FINAL SINGLE POINT ENERGY     -3182.944395091388
-------------------------   --------------------


------------------------------------------------------------------------------
                              ORCA PROPERTY CALCULATIONS
------------------------------------------------------------------------------

GBWName                                 ... sp.gbw
Number of atoms                         ...     27
Number of basis functions               ...    240
Max core memory                         ...   1024 MB

Electric properties:
Dipole moment                           ... YES
Quadrupole moment                       ...  NO
Static polarizability (Dipole/Dipole)   ...  NO
Static polarizability (Dipole/Quad.)    ...  NO
Static polarizability (Quad./Quad.)     ...  NO
Static polarizability (Velocity)        ...  NO

Atomic electric properties:
Dipole moment                           ...  NO
Quadrupole moment                       ...  NO
Static polarizability                   ...  NO

Choice of electric origin               ... Center of mass
Position of electric origin             ...    -0.000090     0.000023    -0.000004

General magnetic properties:
Magnetizability                         ...  NO

EPR properties:
g-Tensor (aka g-matrix)                 ...  NO
Zero-Field splitting spin-orbit         ...  NO
Zero-field splitting spin-spin          ...  NO
Hyperfine couplings                     ...  NO (   0 nuclei)
Quadrupole couplings                    ...  NO (   0 nuclei)
Contact density                         ...  NO (   0 nuclei)

NMR properties:
Chemical shifts                         ...  NO (   0 nuclei)
Spin-rotation constants                 ...  NO (   0 nuclei)
Spin-spin couplings                     ...  NO (   0 nuclei,    0 pairs)

Choice of magnetic origin               ... GIAO
Position of magnetic origin             ...     0.000000     0.000000     0.000000

Properties with geometric perturbations:
SCF Hessian                             ...  NO
IR spectrum                             ...  NO
VCD spectrum                            ...  NO
X-ray spectroscopy properties:
SCF XES/XAS/RIXS spectra                ...  NO


-------------
DIPOLE MOMENT
-------------

Method             : SCF
Type of density    : Electron Density
Multiplicity       :   1
Irrep              :   0
Energy             : -3183.0359768638782043 Eh
Relativity type    : 
Basis              : AO
                                X                 Y                 Z
Electronic contribution:     46.502341211      -6.337744079       2.881379578
Nuclear contribution   :    -46.056932440       7.786510646      -3.109564836
                        -----------------------------------------
Total Dipole Moment    :      0.445408771       1.448766567      -0.228185258
                        -----------------------------------------
Magnitude (a.u.)       :      1.532769405
Magnitude (Debye)      :      3.895990209



--------------------
Rotational spectrum 
--------------------
 
Rotational constants in cm-1:             0.030098             0.011140             0.009357 
Rotational constants in MHz :           902.313181           333.960713           280.530632 

Dipole components along the rotational axes: 
x,y,z [a.u.] :     0.456013     1.444886    -0.231814 
x,y,z [Debye]:     1.159094     3.672609    -0.589225 

 

Dipole moment calculation done in   0.0 sec 

Maximum memory used throughout the entire PROP-calculation: 16.1 MB

--------------------------------
SUGGESTED CITATIONS FOR THIS RUN
--------------------------------

Below you find a list of papers that are relevant to this ORCA run
We neither can nor want to force you to cite these papers, but we appreciate if you do
You receive ORCA, which is the product of decades of hard work by many enthusiastic individuals, for free
The only thing we kindly ask in return is that you cite our papers,
We deeply appreciate it, if you show your appreciation for ORCA by not just citing the generic ORCA reference.

Please note that relegating all ORCA citations to the supporting information does *not* help us.
SI sections are not indexed - citations you put there will not count into any citation statistics
But we need these citations in order to attract the funding resources that allow us to do what we are doing

Therefore, if you are a happy ORCA user, please consider citing a few of the papers listed below in the main body of your paper

In addition to the list printed below, the program has created the file sp.bibtex that contains the list in bibtex format
You can import this file easily into all common literature databanks and citation aid programs


List of essential papers. We consider these as the minimum necessary citations

  1. Neese,F.
     Software update: the ORCA program system, version 5.0
     WIRES Comput. Molec. Sci., 2022 12(1)e1606
     doi.org/10.1002/wcms.1606

List of papers to cite with high priority. The work reported in these papers was absolutely
necessary for this run to complete.
Our perspective: the developers of density functionals and basis sets usually get cited in chemistry papers
Good! But without the algorithms to do something with them, the functionals or basis sets would not do anything.
Hence, in our opinion, the algorithm design and method developments papers are equally worthy of getting cited

  1. Neese,F.
     An improvement of the resolution of the identity approximation for the formation of the Coulomb matrix
     J. Comp. Chem., 2003 24(14)1740-1747
     doi.org/10.1002/jcc.10318
  2. Neese,F.
     The SHARK Integral Generation and Digestion System
     J. Comp. Chem., 2022  1-16
     doi.org/10.1002/jcc.26942
  3. Caldeweyher,E.; Bannwarth,C.; Grimme,S.
     Extension of the D3 dispersion coefficient model
     J. Chem. Phys., 2017 147 034112-XXXX
     doi.org/10.1063/1.4993215
  4. Caldeweyher,E.; Ehlert,S.; Hansen,A.; Neugebauer,H.; Spicher,S.; Bannwarth,C.; Grimme,S.
     A generally applicable atomic-charge dependent London dispersion correction
     J. Chem. Phys., 2019 150 154122-XXXX
     doi.org/10.1063/1.5090222
  5. Caldeweyher,E.; Mewes,J.; Ehlert,S.; Grimme,S.
     Extension and evaluation of the D4 London-dispersion model for periodic systems
     Phys. Chem. Chem. Phys., 2020 22(16)8499-8512
     doi.org/10.1039/D0CP00502A

List of suggested additional citations. These are papers that are important in the 'surrounding' of 
of this run, or papers that preceded the highly important papers. If you like your results we are grateful for a citation.

  1. Neese,F.
     The ORCA program system
     WIRES Comput. Molec. Sci., 2012 2(1)73-78
     doi.org/10.1002/wcms.81
  2. Neese,F.
     Software update: the ORCA program system, version 4.0
     WIRES Comput. Molec. Sci., 2018 8(1)1-6
     doi.org/10.1002/wcms.1327
  3. Neese,F.; Wennmohs,F.; Becker,U.; Riplinger,C.
     The ORCA quantum chemistry program package
     J. Chem. Phys., 2020 152 Art. No. L224108
     doi.org/10.1063/5.0004608

List of optional additional citations

  1. Neese,F.
     Approximate second-order SCF convergence for spin unrestricted wavefunctions
     Chem. Phys. Lett., 2000 325(1-3)93-98
     doi.org/10.1016/s0009-2614(00)00662-x

Timings for individual modules:

Sum of individual times          ...       21.472 sec (=   0.358 min)
Startup calculation              ...        1.569 sec (=   0.026 min)   7.3 %
SCF iterations                   ...       19.727 sec (=   0.329 min)  91.9 %
Property calculations            ...        0.175 sec (=   0.003 min)   0.8 %
                             ****ORCA TERMINATED NORMALLY****
TOTAL RUN TIME: 0 days 0 hours 0 minutes 22 seconds 258 msec
