21
 energy: -24.054366056411 gnorm: 0.029625811043 xtb: 6.7.1 (edcfbbe)
C            1.86841767548654       -1.06147010678919        0.40466013329303
C            1.29791498385880        0.29448996282187        0.82178605265029
C            0.17376717028099        0.87830592972127       -0.03278060934916
H           -0.06058718024596        1.86345125013612        0.40385326566369
C           -1.16887251266903        0.12461655263621       -0.10247672935419
C           -1.14584219799045       -1.20705572249201       -0.85700155074147
C           -1.77001618575733       -0.04744798508060        1.29217282655604
O            0.71764068742948        1.08733072131241       -1.35651883695202
H            1.18662374975012       -1.88409674008545        0.63152107617240
H            2.80129085595106       -1.25354658598245        0.94481874007248
H            2.09534572525871       -1.09385196188663       -0.66557222468631
H            0.94715041275949        0.24812602651873        1.85874738262340
H            2.10618814233940        1.03674112726508        0.81072404058143
H           -1.83155335138195        0.80073549549044       -0.66542508601765
H           -0.59684694827261       -1.13318439337181       -1.80069622446103
H           -0.69752400234371       -2.00602112592089       -0.26107753632650
H           -2.17056670904027       -1.51332654062362       -1.09281909856239
H           -1.80011558319605        0.90213641685529        1.83857285683613
H           -1.19098049419094       -0.76414859746903        1.88545998924687
H           -2.79475504022801       -0.42733852130982        1.22234599119907
H            0.00667026238912        1.44088660828175       -1.90705887318944
21
 energy: -24.055527692181 gnorm: 0.013418115349 xtb: 6.7.1 (edcfbbe)
C            1.86386819794731       -1.05937458445887        0.40524450566623
C            1.29652256174392        0.28801461742163        0.82996490451309
C            0.17675519257305        0.86809064820086       -0.03920153346141
H           -0.04500615819404        1.86205326305416        0.38771175044331
C           -1.17515094579652        0.12524934092782       -0.10080000947425
C           -1.14577154299238       -1.20435073461015       -0.85054172594175
C           -1.76995806309829       -0.05454676531845        1.29275059173485
O            0.71332887109083        1.06873974183203       -1.35328792494797
H            1.18113102403004       -1.87392300189393        0.63344892963038
H            2.79593868687980       -1.24369810071546        0.93927215019892
H            2.07445684577881       -1.06597531710002       -0.66321386264377
H            0.94444285414400        0.23598183807653        1.86305521211261
H            2.10793846671762        1.02236092833783        0.79963049357567
H           -1.84235832496151        0.79510672153565       -0.66343748475643
H           -0.58235628659325       -1.11602808441877       -1.77821578375514
H           -0.69859058888238       -1.99322915416560       -0.25147169592109
H           -2.16466668646846       -1.50651857765183       -1.09408269638309
H           -1.79462341598520        0.89388529299234        1.82885050899436
H           -1.18814180840126       -0.76614191741414        1.87699038270451
H           -2.78905090717210       -0.43167497646061        1.21786041016527
H            0.01464148782740        1.44131063185661       -1.90729153719963
21
 energy: -24.055808368658 gnorm: 0.004206032205 xtb: 6.7.1 (edcfbbe)
C            1.85824562407984       -1.05918678164390        0.40255237667638
C            1.29142265548170        0.28643313068800        0.83424760355226
C            0.17567400445226        0.86828102975904       -0.04465206695015
H           -0.03925324276327        1.86887728902096        0.37598660454429
C           -1.17866111823574        0.12518213373739       -0.09599945726825
C           -1.14219094007405       -1.20272417615740       -0.84874866607273
C           -1.76921438398300       -0.05705506469967        1.29876186879373
O            0.71278174770912        1.04538083405046       -1.35042827128392
H            1.17850138313648       -1.87262880121403        0.63050315728170
H            2.79151512597157       -1.24229684510699        0.92901965275879
H            2.05816909262640       -1.05069237307497       -0.66496051056348
H            0.93457727929226        0.23425159837447        1.86279330025876
H            2.10141981414782        1.01909267696637        0.79752881268870
H           -1.84781828793555        0.79345320368106       -0.65621017824784
H           -0.56419261968628       -1.10754121098563       -1.76416764299247
H           -0.70206660040609       -1.98727183612847       -0.24414310216338
H           -2.15556785520609       -1.50292849061871       -1.10480996846893
H           -1.79185757578165        0.88949583703940        1.83245843012902
H           -1.18451344125248       -0.76779274573363        1.87453956702456
H           -2.78471625183548       -0.43473355567620        1.22072856100345
H            0.03109505044960        1.43973595775009       -1.91176448544582
21
 energy: -24.055887993818 gnorm: 0.002932469234 xtb: 6.7.1 (edcfbbe)
C            1.85505546644615       -1.05767773424882        0.40001918900170
C            1.28818153555520        0.28776016536739        0.83678171602880
C            0.17509075506383        0.86858864030855       -0.04933534177719
H           -0.03915616909583        1.87170923568098        0.36753340206534
C           -1.18117292257734        0.12627209928973       -0.09390980939217
C           -1.14081040616861       -1.20182281791994       -0.84801478704676
C           -1.76747006632498       -0.05869757893394        1.30295555474411
O            0.71375307610298        1.03053958745946       -1.35150376414226
H            1.17733502169485       -1.87238340228470        0.62903100379534
H            2.79099498462831       -1.24110816297605        0.92119035362750
H            2.04896790675722       -1.04472643799528       -0.66815184968451
H            0.92683945820396        0.23408787920014        1.86286924265301
H            2.09779657148168        1.02019230788805        0.80362451372131
H           -1.85257423811478        0.79424248923363       -0.65161771128063
H           -0.54984190305450       -1.10594419238118       -1.75505471319496
H           -0.71061201293441       -1.98767487572352       -0.23763404748319
H           -2.15121135215534       -1.49904279881810       -1.11821767637937
H           -1.78900181396959        0.88710016172039        1.83787151632380
H           -1.18068151808975       -0.77037654663940        1.87538724392450
H           -2.78291911713688       -0.43678398597261        1.22648741801796
H            0.04478620387522        1.44107777777285       -1.91707586826768
21
 energy: -24.055940658986 gnorm: 0.003317830147 xtb: 6.7.1 (edcfbbe)
C            1.85305636343817       -1.05476770487832        0.39779486907114
C            1.28418704287744        0.28964101923731        0.83845823191584
C            0.17441230739043        0.86955413548100       -0.05396709196136
H           -0.03999276729939        1.87525488260092        0.35717159040345
C           -1.18275942865246        0.12640561201828       -0.09205625322714
C           -1.14138580070979       -1.20157005327665       -0.84789616515475
C           -1.76404752696855       -0.06033843692922        1.30703112157343
O            0.71492438725977        1.01656149783066       -1.35441369455767
H            1.17768058346095       -1.87156092422861        0.62894638998137
H            2.79281289803730       -1.23816140059694        0.91314314539148
H            2.04093017693142       -1.04036117043124       -0.67166140168639
H            0.91708167894640        0.23229288867223        1.86221337225070
H            2.09341475353333        1.02283817179358        0.81374120726098
H           -1.85711657319248        0.79423707479937       -0.64630567501369
H           -0.53305151412101       -1.10883354287861       -1.74441086235724
H           -0.72786710754464       -1.99185804375766       -0.22998776266436
H           -2.14897203052578       -1.49212976530816       -1.13777111081607
H           -1.78393992505252        0.88467899868624        1.84478319688609
H           -1.17562198886631       -0.77386308784289        1.87684212255310
H           -2.78054004825956       -0.43837805321637        1.23423407256123
H            0.06014397950466        1.44568971225272       -1.92265371715548
21
 energy: -24.055962991902 gnorm: 0.002524306043 xtb: 6.7.1 (edcfbbe)
C            1.85250101476924       -1.05237959382015        0.39666858072349
C            1.28183634536201        0.29074942860635        0.83877609585167
C            0.17413078975389        0.86936599107347       -0.05629999023235
H           -0.04040428645879        1.87636129500633        0.35042537349182
C           -1.18337310896197        0.12586767487789       -0.09138617097039
C           -1.14252710393380       -1.20199154263936       -0.84759768715196
C           -1.76121395677456       -0.06141699183034        1.30886785692854
O            0.71534737143942        1.01043744709561       -1.35742106176981
H            1.17863440879520       -1.87064632503381        0.62904138459138
H            2.79414744041595       -1.23485449916176        0.90950324790805
H            2.03823286436963       -1.03884568432151       -0.67346075223240
H            0.91083539955489        0.23015387423551        1.86125140402268
H            2.09051647861826        1.02523476835296        0.82090517670875
H           -1.85946629619764        0.79369505618062       -0.64354173966397
H           -0.52228023307117       -1.11389704356833       -1.73661214294913
H           -0.74305878682137       -1.99666230029591       -0.22497374847478
H           -2.14843684824345       -1.48540728798560       -1.15121958408164
H           -1.77920222412781        0.88313205420385        1.84845040680008
H           -1.17260688971562       -0.77644584241482        1.87752754324719
H           -2.77876060739415       -0.43850925014503        1.23902494825930
H            0.06849768880924        1.45139058161167       -1.92469355575185
21
 energy: -24.055974770089 gnorm: 0.001241320448 xtb: 6.7.1 (edcfbbe)
C            1.85272979430553       -1.05078804808127        0.39607870048419
C            1.28032638108137        0.29101930890963        0.83834168394121
C            0.17380498626624        0.86884015087841       -0.05715798264831
H           -0.04038865939530        1.87660544872733        0.34625375189054
C           -1.18350340670587        0.12487952848227       -0.09115190274620
C           -1.14364713605679       -1.20299594444053       -0.84699043502408
C           -1.75935713282557       -0.06200818042933        1.30960314028803
O            0.71495877337024        1.00807186917737       -1.36002428577983
H            1.17941972259385       -1.86975666573686        0.62816234897314
H            2.79469808434740       -1.23237692479859        0.90868530296225
H            2.03865144822403       -1.03782488201025       -0.67420493737365
H            0.90719160159915        0.22809405117723        1.86014319638852
H            2.08842318290355        1.02658222784161        0.82463509624285
H           -1.86039341634800        0.79249621558128       -0.64244762309292
H           -0.51432630694319       -1.11933620827779       -1.72983944961573
H           -0.75560519087770       -2.00068340081185       -0.22090726789891
H           -2.14809742088256       -1.48006476937886       -1.16072873971294
H           -1.77513286523391        0.88230302907696        1.84990561175426
H           -1.17127787195853       -0.77824426033183        1.87750163771129
H           -2.77770637525581       -0.43756401282422        1.24161152364173
H            0.07258126797925        1.45808327729694       -1.92423378513076
21
 energy: -24.055980403724 gnorm: 0.000762545372 xtb: 6.7.1 (edcfbbe)
C            1.85322671129221       -1.05016759593402        0.39522689275326
C            1.27970103108806        0.29065518548262        0.83751237421313
C            0.17323326432256        0.86778073814097       -0.05713750871177
H           -0.04035320253959        1.87577822016597        0.34449337166241
C           -1.18378649973577        0.12372349233469       -0.09112456502955
C           -1.14383590431655       -1.20471186427207       -0.84569180349792
C           -1.75908573766983       -0.06188427014412        1.30981840402476
O            0.71364551889244        1.00789700158624       -1.36200735968433
H            1.17936251449286       -1.86922743699088        0.62462830041194
H            2.79383508927785       -1.23167808990138        0.90991660658206
H            2.04178265391059       -1.03615474811617       -0.67459489542769
H            0.90617305194021        0.22652237907006        1.85913967309836
H            2.08726352695915        1.02686139314855        0.82478631317286
H           -1.86062389087636        0.79074714450505       -0.64298149622653
H           -0.50630666711487       -1.12480087534893       -1.72260293821510
H           -0.76560484541699       -2.00376552090131       -0.21594803464150
H           -2.14656741524331       -1.47648907680642       -1.16805394862964
H           -1.77236654740463        0.88242546560819        1.84977724452135
H           -1.17198988728313       -0.77907782248865        1.87713279959859
H           -2.77798303947291       -0.43542403918638        1.24254212005145
H            0.07362973508539        1.46632213007562       -1.92159596477147
21
 energy: -24.055983461672 gnorm: 0.000561701034 xtb: 6.7.1 (edcfbbe)
C            1.85350735733829       -1.05065793047974        0.39428319449589
C            1.28010975909259        0.29023095543638        0.83696836788670
C            0.17277089348062        0.86765682122697       -0.05667904131760
H           -0.04080497950777        1.87525641111826        0.34598424099084
C           -1.18394369729156        0.12334602209799       -0.09110235088272
C           -1.14290892472506       -1.20583969750165       -0.84461803276321
C           -1.76034694405523       -0.06115011568393        1.30971470107304
O            0.71252391433888        1.00911471909684       -1.36179467280243
H            1.17834361445195       -1.86934367685183        0.62052316547751
H            2.79244970190046       -1.23358467960139        0.91137989085081
H            2.04485131116917       -1.03469125409421       -0.67492987846190
H            0.90771145773923        0.22638016315730        1.85891782591755
H            2.08769093233192        1.02621062714552        0.82254903446155
H           -1.86033562482288        0.78975931649930       -0.64417102473214
H           -0.50235193868207       -1.12654117229587       -1.71927218190736
H           -0.76738552289297       -2.00439133041626       -0.21289446487946
H           -2.14467574905419       -1.47700566257674       -1.17008201712626
H           -1.77304851373385        0.88344310603067        1.84890121798980
H           -1.17384972616097       -0.77838148249020        1.87735292233455
H           -2.77933800824009       -0.43392384067157        1.24186804032874
H            0.07238014751091        1.46944451088181       -1.91966335167925
21
 energy: -24.055986728642 gnorm: 0.000417269211 xtb: 6.7.1 (edcfbbe)
C            1.85391893386730       -1.05116263239501        0.39205830438002
C            1.28089258607040        0.28971346141345        0.83586931659013
C            0.17200777439869        0.86754666295249       -0.05615951813119
H           -0.04202537089815        1.87417773179320        0.34891110837112
C           -1.18425089262709        0.12267325812841       -0.09096388104583
C           -1.14108641296715       -1.20776929420349       -0.84263034524495
C           -1.76242099648270       -0.05969567178568        1.30965963011512
O            0.71064229967108        1.01143147229125       -1.36120122282442
H            1.17602143223827       -1.86924193799430        0.61195163030421
H            2.78959333745807       -1.23731013797747        0.91405424380496
H            2.05122537298558       -1.03197999654185       -0.67597341355810
H            0.91016793067211        0.22581136332359        1.85838804900400
H            2.08852583206907        1.02553451212403        0.81967485707678
H           -1.86016122077409        0.78792823223085       -0.64602587692157
H           -0.49404056638868       -1.13043803597371       -1.71270537587769
H           -0.77204433428857       -2.00634321005441       -0.20692797325222
H           -2.14105861710080       -1.47730467913382       -1.17503563219004
H           -1.77478050181743        0.88556259313542        1.84767062626590
H           -1.17694087420141       -0.77672900928368        1.87862787635763
H           -2.78166439280703       -0.43161570219048        1.24109970846010
H            0.07082814110990        1.47454283016885       -1.91710652642931
21
 energy: -24.055987830553 gnorm: 0.000276216061 xtb: 6.7.1 (edcfbbe)
C            1.85457690381411       -1.05117319202535        0.39064204314475
C            1.28116753482582        0.28919702106035        0.83530028070953
C            0.17173806062653        0.86778731579764       -0.05569885458401
H           -0.04267047432842        1.87390739417819        0.35079715709033
C           -1.18418663811145        0.12228211942102       -0.09081664333637
C           -1.14045287310320       -1.20872571312395       -0.84144583701771
C           -1.76350460664275       -0.05876863122735        1.30944443409552
O            0.70987710824655        1.01292150206642       -1.36050390308303
H            1.17515848155014       -1.86906343461180        0.60632963480703
H            2.78825642492270       -1.23938781264549        0.91557520638635
H            2.05570873177502       -1.02997674537206       -0.67668181513847
H            0.91099996601146        0.22455883708467        1.85801153985299
H            2.08864107528111        1.02520979800656        0.81918556073522
H           -1.85977459007627        0.78701092898573       -0.64689372492997
H           -0.49012623702957       -1.13292176408332       -1.70907647309756
H           -0.77504400597005       -2.00751796589710       -0.20400774630414
H           -2.13941427823567       -1.47731521293452       -1.17744627238090
H           -1.77655549186585        0.88708836706660        1.84646212976476
H           -1.17842764651948       -0.77503962490060        1.87985694413954
H           -2.78267871255035       -0.43091289286953        1.24045819411040
H            0.07006072756701        1.47617151605154       -1.91625626970961
21
 energy: -24.055988690584 gnorm: 0.000205960856 xtb: 6.7.1 (edcfbbe)
C            1.85535175700447       -1.05081784146810        0.38926872176134
C            1.28128131943048        0.28871196101472        0.83528762104739
C            0.17174010989887        0.86753434154000       -0.05541092021932
H           -0.04290843113201        1.87335959421952        0.35185845018533
C           -1.18433905994217        0.12213799283508       -0.09069034214430
C           -1.14020420573545       -1.20922793710285       -0.84056822934209
C           -1.76434228189354       -0.05795641164002        1.30933570243248
O            0.70971217945475        1.01341481296602       -1.35995967014719
H            1.17514256958772       -1.86899770168611        0.60130074885214
H            2.78754929545001       -1.24038831770777        0.91636888160846
H            2.05952330897944       -1.02761640937602       -0.67749508987951
H            0.91084371576383        0.22271388971968        1.85786016320127
H            2.08841123511547        1.02520527572376        0.82040297055655
H           -1.85952157485836        0.78671388423874       -0.64747543584997
H           -0.48706687345498       -1.13491545224224       -1.70628488615222
H           -0.77809342955858       -2.00837866682852       -0.20153799135125
H           -2.13857985025944       -1.47645776929377       -1.17951812150584
H           -1.77858015473616        0.88842956286765        1.84549128126084
H           -1.17912241139354       -0.77316893323581        1.88102252129577
H           -2.78319511941987       -0.43104731160385        1.24011732760868
H            0.06974736188646        1.47608324708753       -1.91613811796391
21
 energy: -24.055989762694 gnorm: 0.000303930003 xtb: 6.7.1 (edcfbbe)
C            1.85679921816122       -1.05015628424403        0.38764431680113
C            1.28109506464741        0.28788647148496        0.83572832118038
C            0.17193314198573        0.86743290588377       -0.05488997514123
H           -0.04271832097220        1.87320658381799        0.35267558371720
C           -1.18438061719408        0.12226923605437       -0.09053004619482
C           -1.14041174621346       -1.20950333059622       -0.83964899166872
C           -1.76529733964469       -0.05693961743931        1.30913827764301
O            0.71005558717880        1.01340424625663       -1.35922704323661
H            1.17610821018448       -1.86908259055335        0.59522781286954
H            2.78754569004359       -1.24106423934322        0.91687375196499
H            2.06409610401438       -1.02400349372702       -0.67850650856477
H            0.90971449329328        0.21946989096837        1.85783732016072
H            2.08765839917230        1.02511684288052        0.82338710424153
H           -1.85897667634674        0.78692156881206       -0.64795813316094
H           -0.48490090265777       -1.13682906786813       -1.70366692651225
H           -0.78140572553970       -2.00900687852545       -0.19927258378392
H           -2.13825174060044       -1.47538798032395       -1.18121016130672
H           -1.78167561096096        0.89012977677906        1.84411781711075
H           -1.17946027800011       -0.77043566711389        1.88243364333802
H           -2.78349505490978       -0.43188298938286        1.23953455789743
H            0.06931756454611        1.47378642620737       -1.91645255210006
21
 energy: -24.055990839712 gnorm: 0.000297012282 xtb: 6.7.1 (edcfbbe)
C            1.85881874634957       -1.04926706293192        0.38548374473497
C            1.28070769558664        0.28669761311445        0.83663154924206
C            0.17221095477972        0.86699271462976       -0.05423113404571
H           -0.04208150776998        1.87288162592311        0.35320112787223
C           -1.18451834419186        0.12257041491620       -0.09033421486902
C           -1.14068866910095       -1.20971681224094       -0.83855913686129
C           -1.76666927700481       -0.05553226979641        1.30893625189114
O            0.71078187940228        1.01290657258505       -1.35842605414791
H            1.17806895676312       -1.86947882352145        0.58774597815991
H            2.78802983406622       -1.24137373341178        0.91696938039276
H            2.06949264277976       -1.01902972706797       -0.67992130120877
H            0.90773509350379        0.21481000434177        1.85792422203685
H            2.08639161992461        1.02497337585587        0.82793238357839
H           -1.85832008929223        0.78733545961542       -0.64858978550982
H           -0.48257771568326       -1.13892407114746       -1.70076481237048
H           -0.78497517316444       -2.00935884813538       -0.19649286223223
H           -2.13800274263981       -1.47410699546711       -1.18274872742902
H           -1.78558424426200        0.89230715838178        1.84248722373445
H           -1.18016159000516       -0.76701287456643        1.88404635369435
H           -2.78402303550564       -0.43265147213328        1.23867311041866
H            0.06871442565182        1.47030956108438       -1.91672771182687
21
 energy: -24.055991467719 gnorm: 0.000156303630 xtb: 6.7.1 (edcfbbe)
C            1.86037909801437       -1.04868008140975        0.38395729595573
C            1.28034660844701        0.28571737171744        0.83736905519024
C            0.17235744355922        0.86669636787858       -0.05368832879386
H           -0.04155940841215        1.87269651814428        0.35356706509895
C           -1.18459707635700        0.12287385025770       -0.09031079017401
C           -1.14077654559702       -1.20995476918483       -0.83765925513278
C           -1.76778250705003       -0.05445202786971        1.30867232985565
O            0.71124432368693        1.01252497423795       -1.35790973659234
H            1.17988985407406       -1.86990995634465        0.58274858528013
H            2.78874860847925       -1.24135792207093        0.91666982338865
H            2.07293237488792       -1.01539706742647       -0.68093884503090
H            0.90617480956376        0.21117800650303        1.85799023251789
H            2.08537927891391        1.02468748741864        0.83130597357251
H           -1.85780941003888        0.78764968524570       -0.64926589374555
H           -0.48128984679041       -1.14016223223897       -1.69885392914685
H           -0.78675928099686       -2.00946284199779       -0.19447160568353
H           -2.13777525438607       -1.47364639193526       -1.18327683237968
H           -1.78782470373643        0.89384312490170        1.84131031846240
H           -1.18125080120615       -0.76499980482025        1.88486840031870
H           -2.78476577241196       -0.43238543159553        1.23779974396121
H            0.06808766754389        1.46787295061680       -1.91664802166792
21
 energy: -24.055991957852 gnorm: 0.000122008664 xtb: 6.7.1 (edcfbbe)
C            1.86149973643794       -1.04831020930479        0.38284589470571
C            1.28003367568030        0.28494625743095        0.83796887869557
C            0.17243293324143        0.86638611193454       -0.05329428428015
H           -0.04115257069008        1.87245962515895        0.35386371847086
C           -1.18464594746708        0.12298536063413       -0.09029055680454
C           -1.14071206006447       -1.21018586950037       -0.83706622286333
C           -1.76879517593814       -0.05353053217938        1.30844755453032
O            0.71167769818244        1.01229616759899       -1.35748659035174
H            1.18160185419192       -1.87041691243266        0.57984436901868
H            2.78965337806384       -1.24098457117426        0.91588609696558
H            2.07469970559650       -1.01302629352347       -0.68181064695333
H            0.90492841192714        0.20851490335257        1.85806750473651
H            2.08453724136500        1.02445662560163        0.83377989026525
H           -1.85738489829918        0.78764964947366       -0.64991721815737
H           -0.48092602423539       -1.14090428523950       -1.69804719915277
H           -0.78692557986486       -2.00922833374073       -0.19326381966448
H           -2.13757774564433       -1.47404428605736       -1.18278022839426
H           -1.78884872428465        0.89496102104526        1.84068068483623
H           -1.18279696600928       -0.76403487007935        1.88516763861980
H           -2.78580162113801       -0.43121523085612        1.23704432743646
H            0.06785213913633        1.46655748188496       -1.91640420640435
21
 energy: -24.055992454609 gnorm: 0.000192458227 xtb: 6.7.1 (edcfbbe)
C            1.86238697808618       -1.04808031945224        0.38203353200696
C            1.27973070173114        0.28428360192197        0.83841977213433
C            0.17240864028248        0.86616483678890       -0.05297274868335
H           -0.04099424613907        1.87224729483609        0.35419809891539
C           -1.18473334970264        0.12307941864472       -0.09045345347720
C           -1.14053332136433       -1.21054735950640       -0.83643131533416
C           -1.76964231963755       -0.05280437483428        1.30810571285716
O            0.71190943435201        1.01220036051430       -1.35714019933780
H            1.18325506623273       -1.87098602117289        0.57822042403278
H            2.79072524124460       -1.24041227451087        0.91484877007949
H            2.07545783503322       -1.01139979436806       -0.68256241094755
H            0.90391953923762        0.20637549879077        1.85810297371970
H            2.08381145959729        1.02420696906644        0.83563890590599
H           -1.85707200231810        0.78757711631211       -0.65076427367873
H           -0.48096216447048       -1.14134587698270       -1.69758089422523
H           -0.78625794648829       -2.00905292058906       -0.19222200960625
H           -2.13741284706992       -1.47489703180013       -1.18176784248101
H           -1.78871865919359        0.89571820703205        1.84024036353139
H           -1.18472589664776       -0.76400668289533        1.88502727943496
H           -2.78705466450161       -0.42921672586896        1.23626644879483
H            0.06785198192344        1.46622788810125       -1.91597154838705
21
 energy: -24.055993086739 gnorm: 0.000246777463 xtb: 6.7.1 (edcfbbe)
C            1.86344694912045       -1.04779561886205        0.38102820672728
C            1.27937415353377        0.28347577579645        0.83893725275910
C            0.17238601002953        0.86584017309023       -0.05262683066707
H           -0.04095097266582        1.87181707041308        0.35481684278642
C           -1.18480778078046        0.12299692007889       -0.09062386083676
C           -1.14023134393377       -1.21110662558841       -0.83569106472838
C           -1.77085639991830       -0.05177556012052        1.30763826970723
O            0.71221008409594        1.01226842342339       -1.35665500617736
H            1.18543989759455       -1.87174681958994        0.57669583825054
H            2.79223172106615       -1.23947724969531        0.91328211234279
H            2.07601555323537       -1.00975930994007       -0.68359834627335