      -----------------------------------------------------------      
     |                   =====================                   |     
     |                           x T B                           |     
     |                   =====================                   |     
     |                         S. Grimme                         |     
     |          Mulliken Center for Theoretical Chemistry        |     
     |                    University of Bonn                     |     
      -----------------------------------------------------------      

   * xtb version 6.7.1 (edcfbbe) compiled by 'albert@albert-system' on 2024-07-22

   xtb is free software: you can redistribute it and/or modify it under
   the terms of the GNU Lesser General Public License as published by
   the Free Software Foundation, either version 3 of the License, or
   (at your option) any later version.
   
   xtb is distributed in the hope that it will be useful,
   but WITHOUT ANY WARRANTY; without even the implied warranty of
   MERCHANTABILITY or FITNESS FOR A PARTICULAR PURPOSE.  See the
   GNU Lesser General Public License for more details.
   
   Cite this work as:
   * C. Bannwarth, E. Caldeweyher, S. Ehlert, A. Hansen, P. Pracht,
     J. Seibert, S. Spicher, S. Grimme, WIREs Comput. Mol. Sci., 2020, 11,
     e01493. DOI: 10.1002/wcms.1493
   
   for GFN2-xTB:
   * C. Bannwarth, S. Ehlert and S. Grimme., J. Chem. Theory Comput., 2019,
     15, 1652-1671. DOI: 10.1021/acs.jctc.8b01176
   for GFN1-xTB:
   * S. Grimme, C. Bannwarth, P. Shushkov, J. Chem. Theory Comput., 2017,
     13, 1989-2009. DOI: 10.1021/acs.jctc.7b00118
   for GFN0-xTB:
   * P. Pracht, E. Caldeweyher, S. Ehlert, S. Grimme, ChemRxiv, 2019, preprint.
     DOI: 10.26434/chemrxiv.8326202.v1
   for GFN-FF:
   * S. Spicher and S. Grimme, Angew. Chem. Int. Ed., 2020, 59, 15665-15673.
     DOI: 10.1002/anie.202004239
   
   for ALPB and GBSA implicit solvation:
   * S. Ehlert, M. Stahn, S. Spicher, S. Grimme, J. Chem. Theory Comput.,
     2021, 17, 4250-4261. DOI: 10.1021/acs.jctc.1c00471
   
   for ddCOSMO and CPCM-X implicit solvation:
   * M. Stahn, S. Ehlert, S. Grimme, J. Phys. Chem. A,
     2023, XX, XXXX-XXXX. DOI: 10.1021/acs.jpca.3c04382
   
   for DFT-D4:
   * E. Caldeweyher, C. Bannwarth and S. Grimme, J. Chem. Phys., 2017,
     147, 034112. DOI: 10.1063/1.4993215
   * E. Caldeweyher, S. Ehlert, A. Hansen, H. Neugebauer, S. Spicher,
     C. Bannwarth and S. Grimme, J. Chem. Phys., 2019, 150, 154122.
     DOI: 10.1063/1.5090222
   * E. Caldeweyher, J.-M. Mewes, S. Ehlert and S. Grimme, Phys. Chem. Chem. Phys.
     2020, 22, 8499-8512. DOI: 10.1039/D0CP00502A
   
   for sTDA-xTB:
   * S. Grimme and C. Bannwarth, J. Chem. Phys., 2016, 145, 054103.
     DOI: 10.1063/1.4959605
   
   in the mass-spec context:
   * V. Asgeirsson, C. Bauer and S. Grimme, Chem. Sci., 2017, 8, 4879.
     DOI: 10.1039/c7sc00601b
   * J. Koopman and S. Grimme, ACS Omega 2019, 4, 12, 15120-15133.
     DOI: 10.1021/acsomega.9b02011
   
   for metadynamics refer to:
   * S. Grimme, J. Chem. Theory Comput., 2019, 155, 2847-2862
     DOI: 10.1021/acs.jctc.9b00143
   
   for SPH calculations refer to:
   * S. Spicher and S. Grimme, J. Chem. Theory Comput., 2021, 17, 1701-1714
     DOI: 10.1021/acs.jctc.0c01306
   
   for ONIOM refer to:
   * C. Plett, A. Katbashev, S. Ehlert, S. Grimme, M. Bursch,
     Phys. Chem. Chem. Phys., 2023, 25, 17860-17868. DOI: 10.1039/D3CP02178E
   
   for DIPRO refer to:
   * J. Kohn, N. Gildemeister, S. Grimme, D. Fazzi, A. Hansen,
     J. Chem. Phys., 2023, just accepted.
   
   for PTB refer to:
   * S. Grimme, M. Mueller, A. Hansen, J. Chem. Phys., 2023, 158, 124111.
     DOI: 10.1063/5.0137838
   
   with help from (in alphabetical order)
   P. Atkinson, C. Bannwarth, F. Bohle, G. Brandenburg, E. Caldeweyher
   M. Checinski, S. Dohm, S. Ehlert, S. Ehrlich, I. Gerasimov, C. Hölzer
   A. Katbashev, J. Kohn, J. Koopman, C. Lavigne, S. Lehtola, F. März, M. Müller,
   F. Musil, H. Neugebauer, J. Pisarek, C. Plett, P. Pracht, F. Pultar,
   J. Seibert, P. Shushkov, S. Spicher, M. Stahn, M. Steiner, T. Strunk,
   J. Stückrath, T. Rose, and J. Unsleber
   
 * started run on 2025/04/11 at 12:25:15.155     
   ID    Z sym.   atoms
    1    6 C      1-4, 6-11
    2    1 H      5, 13-25
    3    8 O      12

           -------------------------------------------------
          |                Calculation Setup                |
           -------------------------------------------------

          program call               : /srv/scratch/z5358697/.xtb/bin/xtb xtb_opt.coord --opt normal --orca -I xtb_opt-xcontrol-inp
          hostname                   : k063
          coordinate file            : xtb_opt.coord
          omp threads                :                    16

           -------------------------------------------------
          |                   Orca driver                   |
           -------------------------------------------------
orca executable           : /apps/z_install_tree/linux-rocky8-ivybridge/gcc-12.2.0/orca-6.0.0-srtngmq3qlimg2qxbl6avaaiffipurdx/bin/orca
orca input file           : xtb_opt.inp
orca input line           : 
orca parallel             : true
orca number of threads    : 16
                         * ORCA takes the control...
  ------------------------------------------------------------------------

                                 *****************
                                 * O   R   C   A *
                                 *****************

                                            #,                                       
                                            ###                                      
                                            ####                                     
                                            #####                                    
                                            ######                                   
                                           ########,                                 
                                     ,,################,,,,,                         
                               ,,#################################,,                 
                          ,,##########################################,,             
                       ,#########################################, ''#####,          
                    ,#############################################,,   '####,        
                  ,##################################################,,,,####,       
                ,###########''''           ''''###############################       
              ,#####''   ,,,,##########,,,,          '''####'''          '####       
            ,##' ,,,,###########################,,,                        '##       
           ' ,,###''''                  '''############,,,                           
         ,,##''                                '''############,,,,        ,,,,,,###''
      ,#''                                            '''#######################'''  
     '                                                          ''''####''''         
             ,#######,   #######,   ,#######,      ##                                
            ,#'     '#,  ##    ##  ,#'     '#,    #''#        ,####,   ,####,        
            ##       ##  ##   ,#'  ##            #'  '#       #'       #'  '#        
            ##       ##  #######   ##           ,######,      #####,   #    #        
            '#,     ,#'  ##    ##  '#,     ,#' ,#      #,     #,   #   #,  ,#        
             '#######'   ##     ##  '#######'  #'      '#     '####' # '####'        



                #########################################################
                #                        -***-                          #
                #          Department of theory and spectroscopy        #
                #                                                       #
                #                      Frank Neese                      #
                #                                                       #
                #     Directorship, Architecture, Infrastructure        #
                #                    SHARK, DRIVERS                     #
                #        Core code/Algorithms in most modules           #
                #                                                       #
                #        Max Planck Institute fuer Kohlenforschung      #
                #                Kaiser Wilhelm Platz 1                 #
                #                 D-45470 Muelheim/Ruhr                 #
                #                      Germany                          #
                #                                                       #
                #                  All rights reserved                  #
                #                        -***-                          #
                #########################################################


                         Program Version 6.0.0  -   RELEASE  -


 With contributions from (in alphabetic order):
   Daniel Aravena         : Magnetic Suceptibility
   Michael Atanasov       : Ab Initio Ligand Field Theory (pilot matlab implementation)
   Alexander A. Auer      : GIAO ZORA, VPT2 properties, NMR spectrum
   Ute Becker             : All parallelization in ORCA, NUMFREQ, NUMCALC
   Giovanni Bistoni       : ED, misc. LED, open-shell LED, HFLD
   Martin Brehm           : Molecular dynamics
   Dmytro Bykov           : pre 5.0 version of the SCF Hessian
   Marcos Casanova-Páez   : Triplet and SCS-CIS(D). UHF-(DLPNO)-IP/EA/STEOM-CCSD. UHF-CVS-IP/STEOM-CCSD
   Vijay G. Chilkuri      : MRCI spin determinant printing, contributions to CSF-ICE
   Pauline Colinet        : FMM embedding
   Dipayan Datta          : RHF DLPNO-CCSD density
   Achintya Kumar Dutta   : EOM-CC, STEOM-CC
   Nicolas Foglia         : Exact transition moments, OPA infrastructure, MCD improvements
   Dmitry Ganyushin       : Spin-Orbit,Spin-Spin,Magnetic field MRCI
   Miquel Garcia          : C-PCM and meta-GGA Hessian, CCSD/C-PCM, Gaussian charge scheme
   Tiago L. C. Gouveia    : GS-ROHF, GS-ROCIS
   Yang Guo               : DLPNO-NEVPT2, F12-NEVPT2, CIM, IAO-localization
   Andreas Hansen         : Spin unrestricted coupled pair/coupled cluster methods
   Ingolf Harden          : AUTO-CI MPn and infrastructure 
   Benjamin Helmich-Paris : MC-RPA, TRAH-(SCF,CASSCF), AVAS, COSX integrals, SCF dyn. polar.
   Lee Huntington         : MR-EOM, pCC
   Robert Izsak           : Overlap fitted RIJCOSX, COSX-SCS-MP3, EOM
   Riya Kayal             : Wick's Theorem for AUTO-CI, AUTO-CI UHF-CCSDT
   Emily Kempfer          : AUTO-CI, RHF CISDT and CCSDT
   Christian Kollmar      : KDIIS, OOCD, Brueckner-CCSD(T), CCSD density, CASPT2, CASPT2-K, improved NEVPT2
   Axel Koslowski         : Symmetry handling
   Simone Kossmann        : Meta GGA functionals, TD-DFT gradient, OOMP2, (MP2 Hessian; deprecated post 5.0)
   Lucas Lang             : DCDCAS
   Marvin Lechner         : AUTO-CI (C++ implementation), FIC-MRCC
   Spencer Leger          : CASSCF response
   Dagmar Lenk            : GEPOL surface, SMD, ORCA-2-JSON
   Dimitrios Liakos       : Extrapolation schemes; Compound Job, initial MDCI parallelization
   Dimitrios Manganas     : Further ROCIS development; embedding schemes. LFT, Crystal Embedding
   Dimitrios Pantazis     : SARC Basis sets
   Anastasios Papadopoulos: AUTO-CI, single reference methods and gradients
   Taras Petrenko         : pre 6.0 DFT Hessian and TD-DFT gradient, (ASA, deprecated), ECA, 1-Electron XAS/XES, NRVS
   Peter Pinski           : DLPNO-MP2, DLPNO-MP2 Gradient
   Christoph Reimann      : Effective Core Potentials
   Marius Retegan         : Local ZFS, SOC
   Christoph Riplinger    : Optimizer, TS searches, QM/MM, DLPNO-CCSD(T), (RO)-DLPNO pert. Triples
   Michael Roemelt        : Original ROCIS implementation
   Masaaki Saitow         : Open-shell DLPNO-CCSD energy and density
   Barbara Sandhoefer     : DKH picture change effects
   Kantharuban Sivalingam : CASSCF convergence/infrastructure, NEVPT2 and variants, FIC-MRCI
   Bernardo de Souza      : ESD, SOC TD-DFT
   Georgi Stoychev        : AutoAux, RI-MP2 NMR, DLPNO-MP2 response, X2C
   Van Anh Tran           : RI-MP2 g-tensors
   Willem Van den Heuvel  : Paramagnetic NMR
   Zikuan Wang            : NOTCH, Electric field optimization 
   Frank Wennmohs         : Technical directorship and infrastructure
   Hang Xu                : AUTO-CI-Response properties 


 We gratefully acknowledge several colleagues who have allowed us to
 interface, adapt or use parts of their codes:
   Stefan Grimme, W. Hujo, H. Kruse, P. Pracht,  : VdW corrections, initial TS optimization,
                  C. Bannwarth, S. Ehlert,         DFT functionals, gCP, sTDA/sTD-DF
                  L. Wittmann, M. Mueller
   Ed Valeev, F. Pavosevic, A. Kumar             : LibInt (2-el integral package), F12 methods
   Garnet Chan, S. Sharma, J. Yang, R. Olivares  : DMRG
   Ulf Ekstrom                                   : XCFun DFT Library
   Mihaly Kallay                                 : mrcc  (arbitrary order and MRCC methods)
   Frank Weinhold                                : gennbo (NPA and NBO analysis)
   Simon Mueller                                 : openCOSMO-RS
   Christopher J. Cramer and Donald G. Truhlar   : smd solvation model
   Lars Goerigk                                  : TD-DFT with DH, B97 family of functionals
   V. Asgeirsson, H. Jonsson                     : NEB implementation
   FAccTs GmbH                                   : IRC, NEB, NEB-TS, DLPNO-Multilevel, CI-OPT
                                                   MM, QMMM, 2- and 3-layer-ONIOM, Crystal-QMMM,
                                                   LR-CPCM, SF, NACMEs, symmetry and pop. for TD-DFT,
                                                   nearIR, NL-DFT gradient (VV10), updates on ESD,
                                                   ML-optimized integration grids, MBIS, APM,
                                                   GOAT, DOCKER, SOLVATOR, interface openCOSMO-RS
   S Lehtola, MJT Oliveira, MAL Marques          : LibXC Library
   Liviu Ungur et al                             : ANISO software


 Your calculation uses the libint2 library for the computation of 2-el integrals
 For citations please refer to: http://libint.valeyev.net

 Your ORCA version has been built with support for libXC version: 6.2.2
 For citations please refer to: https://libxc.gitlab.io

 This ORCA versions uses:
   CBLAS   interface :  Fast vector & matrix operations
   LAPACKE interface :  Fast linear algebra routines
   SCALAPACK package :  Parallel linear algebra routines
   Shared memory     :  Shared parallel matrices
   BLAS/LAPACK       :  OpenBLAS 0.3.27  USE64BITINT DYNAMIC_ARCH NO_AFFINITY SkylakeX SINGLE_THREADED
        Core in use  :  SkylakeX
   Copyright (c) 2011-2014, The OpenBLAS Project




***************************************
The coordinates will be read from file: xtb_opt.xyz
***************************************


Your calculation utilizes the geometrical counterpoise correction gCP
Please cite in your paper:
H.Kruse, S. Grimme J.Chem.Phys., 136, (2012), 154101 
   

Your calculation utilizes the atom-pairwise dispersion correction
based on EEQ partial charges (D4)


Your calculation utilizes the SMD solvation module
Please cite in your paper:
A.V. Marenich, C.J. Cramer, D.G. Truhlar J. Phys. Chem. B, 113, (2009), 6378 

================================================================================

----- Orbital basis set information -----
Your calculation utilizes the basis: def2-mTZVPP
   Stefan Grimme, Andreas Hansen, Sebastian Ehlert, and Jan-Michael Mewes 
   J. Chem. Phys. 154, 064103 (2021). DOI: 10.1063/5.0040021

----- AuxJ basis set information -----
Your calculation utilizes the auxiliary basis: def2/J
   F. Weigend, Phys. Chem. Chem. Phys. 8, 1057 (2006).

================================================================================
                                        WARNINGS
                       Please study these warnings very carefully!
================================================================================

WARNING: Old DensityContainer found on disk!
         Will remove this file - 
         If you want to keep old densities, please start your calculation with a different basename. 

Using LibXC functional ID 497 : Re-regularized SCAN exchange by Furness et al
[ 1]  J. W. Furness, A. D. Kaplan, J. Ning, J. P. Perdew, and J. Sun.,  J. Phys. Chem. Lett. 11, 8208-8215 (2020)
[ 2]  J. W. Furness, A. D. Kaplan, J. Ning, J. P. Perdew, and J. Sun.,  J. Phys. Chem. Lett. 11, 9248-9248 (2020)
Using LibXC functional ID 498 : Re-regularized SCAN correlation by Furness et al
[ 1]  J. W. Furness, A. D. Kaplan, J. Ning, J. P. Perdew, and J. Sun.,  J. Phys. Chem. Lett. 11, 8208-8215 (2020)
[ 2]  J. W. Furness, A. D. Kaplan, J. Ning, J. P. Perdew, and J. Sun.,  J. Phys. Chem. Lett. 11, 9248-9248 (2020)
Using LibXC functional ID 497 : Re-regularized SCAN exchange by Furness et al
[ 1]  J. W. Furness, A. D. Kaplan, J. Ning, J. P. Perdew, and J. Sun.,  J. Phys. Chem. Lett. 11, 8208-8215 (2020)
[ 2]  J. W. Furness, A. D. Kaplan, J. Ning, J. P. Perdew, and J. Sun.,  J. Phys. Chem. Lett. 11, 9248-9248 (2020)
Using LibXC functional ID 498 : Re-regularized SCAN correlation by Furness et al
[ 1]  J. W. Furness, A. D. Kaplan, J. Ning, J. P. Perdew, and J. Sun.,  J. Phys. Chem. Lett. 11, 8208-8215 (2020)
[ 2]  J. W. Furness, A. D. Kaplan, J. Ning, J. P. Perdew, and J. Sun.,  J. Phys. Chem. Lett. 11, 9248-9248 (2020)

================================================================================
                                       INPUT FILE
================================================================================
NAME = xtb_opt.inp
|  1> ! r2scan-3c def2/J RI DEFGRID2 scfconv7 ENGRAD tightSCF miniprint
|  2> %cpcm
|  3>     smd true
|  4>     smdsolvent "water"
|  5> end
|  6> * xyzfile 0 1 xtb_opt.xyz
|  7> 
|  8>                          ****END OF INPUT****
================================================================================

                     *******************************
                     * Energy+Gradient Calculation *
                     *******************************

---------------------------------
CARTESIAN COORDINATES (ANGSTROEM)
---------------------------------
  C      3.422272    1.035862   -0.251290
  C      2.593531   -0.119991    0.234571
  C      3.114757   -1.059721    1.029747
  C      1.152925   -0.127617   -0.226149
  H      1.163386   -0.008887   -1.320719
  C      0.373674   -1.403814    0.095724
  C     -1.006615   -1.372935   -0.557861
  C     -1.721270   -0.076796   -0.282058
  C     -1.071834    1.020012    0.151767
  C      0.399968    1.090644    0.347037
  C     -3.171561   -0.047885   -0.480370
  O     -3.901423    0.928733   -0.315654
  H      3.062312    1.985186    0.160176
  H      4.470559    0.920748    0.033182
  H      3.362481    1.125514   -1.341805
  H      2.534886   -1.900754    1.396005
  H      4.154954   -1.007119    1.340889
  H      0.924862   -2.283730   -0.250388
  H      0.257123   -1.496048    1.183113
  H     -0.915101   -1.520361   -1.642554
  H     -1.618734   -2.205047   -0.189735
  H     -1.645921    1.917051    0.376921
  H      0.765240    2.024007   -0.098379
  H      0.604597    1.188058    1.425431
  H     -3.615802   -1.008567   -0.812046

----------------------------
CARTESIAN COORDINATES (A.U.)
----------------------------
  NO LB      ZA    FRAG     MASS         X           Y           Z
   0 C     6.0000    0    12.011    6.467157    1.957496   -0.474870
   1 C     6.0000    0    12.011    4.901063   -0.226749    0.443276
   2 C     6.0000    0    12.011    5.886037   -2.002583    1.945941
   3 C     6.0000    0    12.011    2.178713   -0.241161   -0.427360
   4 H     1.0000    0     1.008    2.198480   -0.016794   -2.495797
   5 C     6.0000    0    12.011    0.706142   -2.652824    0.180892
   6 C     6.0000    0    12.011   -1.902226   -2.594471   -1.054205
   7 C     6.0000    0    12.011   -3.252729   -0.145123   -0.533013
   8 C     6.0000    0    12.011   -2.025473    1.927544    0.286799
   9 C     6.0000    0    12.011    0.755831    2.061019    0.655805
  10 C     6.0000    0    12.011   -5.993382   -0.090490   -0.907769
  11 O     8.0000    0    15.999   -7.372621    1.755051   -0.596499
  12 H     1.0000    0     1.008    5.786930    3.751457    0.302688
  13 H     1.0000    0     1.008    8.448133    1.739961    0.062706
  14 H     1.0000    0     1.008    6.354169    2.126913   -2.535644
  15 H     1.0000    0     1.008    4.790240   -3.591905    2.638067
  16 H     1.0000    0     1.008    7.851725   -1.903180    2.533914
  17 H     1.0000    0     1.008    1.747737   -4.315624   -0.473164
  18 H     1.0000    0     1.008    0.485892   -2.827121    2.235759
  19 H     1.0000    0     1.008   -1.729290   -2.873066   -3.103977
  20 H     1.0000    0     1.008   -3.058965   -4.166934   -0.358548
  21 H     1.0000    0     1.008   -3.110340    3.622701    0.712278
  22 H     1.0000    0     1.008    1.446095    3.824819   -0.185910
  23 H     1.0000    0     1.008    1.142522    2.245105    2.693674
  24 H     1.0000    0     1.008   -6.832875   -1.905915   -1.534545

------------------------------------------------------------------------------
                   ___                                                        
                  /   \      - P O W E R E D   B Y -                         
                 /     \                                                     
                 |  |  |   _    _      __       _____    __    __             
                 |  |  |  | |  | |    /  \     |  _  \  |  |  /  |          
                  \  \/   | |  | |   /    \    | | | |  |  | /  /          
                 / \  \   | |__| |  /  /\  \   | |_| |  |  |/  /          
                |  |  |   |  __  | /  /__\  \  |    /   |      \           
                |  |  |   | |  | | |   __   |  |    \   |  |\   \          
                \     /   | |  | | |  |  |  |  | |\  \  |  | \   \       
                 \___/    |_|  |_| |__|  |__|  |_| \__\ |__|  \__/        
                                                                              
                      - O R C A' S   B I G   F R I E N D -                    
                                      &                                       
                       - I N T E G R A L  F E E D E R -                       
                                                                              
 v1 FN, 2020, v2 2021, v3 2022-2024                                           
------------------------------------------------------------------------------


----------------------
SHARK INTEGRAL PACKAGE
----------------------

Number of atoms                             ...     25
Number of basis functions                   ...    284
Number of shells                            ...    142
Maximum angular momentum                    ...      2
Integral batch strategy                     ... SHARK/LIBINT Hybrid
RI-J (if used) integral strategy            ... SPLIT-RIJ (Revised 2003 algorithm where possible)
Printlevel                                  ...      1
Contraction scheme used                     ... SEGMENTED contraction
Prescreening option                         ... SCHWARTZ
   Thresh                                   ... 3.000e-11
   Tcut                                     ... 1.000e-12
   Tpresel                                  ... 1.000e-12 
Coulomb Range Separation                    ... NOT USED
Exchange Range Separation                   ... NOT USED
Multipole approximations                    ... NOT USED
Finite Nucleus Model                        ... NOT USED
CABS basis                                  ... NOT available
Auxiliary Coulomb fitting basis             ... AVAILABLE
   # of basis functions in Aux-J            ...    693
   # of shells in Aux-J                     ...    235
   Maximum angular momentum in Aux-J        ...      4
Auxiliary J/K fitting basis                 ... NOT available
Auxiliary Correlation fitting basis         ... NOT available
Auxiliary 'external' fitting basis          ... NOT available

Checking pre-screening integrals            ... done (  0.0 sec) Dimension = 142
Check shell pair data                       ... done (  0.0 sec)
Shell pair information
Shell pair cut-off parameter TPreSel        ...   1.0e-12
Total number of shell pairs                 ...     10153
Shell pairs after pre-screening             ...      8669
Total number of primitive shell pairs       ...     36599
Primitive shell pairs kept                  ...     21503
          la=0 lb=0:   2923 shell pairs
          la=1 lb=0:   3371 shell pairs
          la=1 lb=1:    998 shell pairs
          la=2 lb=0:    827 shell pairs
          la=2 lb=1:    483 shell pairs
          la=2 lb=2:     67 shell pairs

Calculating one electron integrals          ... done (  0.1 sec)
Calculating RI/J V-Matrix + Cholesky decomp.... done (  0.1 sec)
Calculating Nuclear repulsion               ... done (  0.0 sec) ENN=    593.218631414808 Eh

Diagonalization of the overlap matrix:
Smallest eigenvalue                        ... 5.701e-05
Time for diagonalization                   ...    0.012 sec
Threshold for overlap eigenvalues          ... 1.000e-07
Number of eigenvalues below threshold      ... 0
Time for construction of square roots      ...    0.018 sec
Total time needed                          ...    0.041 sec

-------------------
DFT GRID GENERATION
-------------------

General Integration Accuracy     IntAcc      ... 4.388
Radial Grid Type                 RadialGrid  ... OptM3 with GC (2021)
Angular Grid (max. ang.)         AngularGrid ... 4 (Lebedev-302)
Angular grid pruning method      GridPruning ... 4 (adaptive)
Weight generation scheme         WeightScheme... mBecke (2022)
Basis function cutoff            BFCut       ... 1.0000e-11
Integration weight cutoff        WCut        ... 1.0000e-14
Partially contracted basis set               ... off
Rotationally invariant grid construction     ... off
Angular grids for H and He will be reduced by one unit
Diffuse basis detected: some atoms will have their outermost
                        angular grid increased by 1.

Total number of grid points                  ...   110731
Total number of batches                      ...     1743
Average number of points per batch           ...       63
Average number of grid points per atom       ...     4429
Initializing property integral containers    ... done (  0.0 sec)

SHARK setup successfully completed in   1.8 seconds

Maximum memory used throughout the entire STARTUP-calculation: 52.0 MB
Occupation numbers will be reassigned to an Aufbau configuration
             **** ENERGY FILE WAS UPDATED (xtb_opt.en.tmp) ****
Finished Guess after   0.4 sec
Maximum memory used throughout the entire GUESS-calculation: 21.3 MB
--------------------
CPCM SOLVATION MODEL
--------------------
CPCM parameters:
  Epsilon                                         ...      78.3550
  Refrac                                          ...       1.3328
  Rsolv                                           ...       1.3000
  Surface type                                    ... GAUSSIAN VDW
  Discretization scheme                           ... Constant charge density
    Threshold for H atoms                         ...       5.0000 (charges/Ang^2)
    Threshold for non-H atoms                     ...       5.0000 (charges/Ang^2)
  Epsilon function type                           ...         CPCM
Solvent:                                          ... WATER
SMD-CDS solvent descriptors:
  Soln                                            ...       1.3328
  Soln25                                          ...       1.3323
  Sola                                            ...       0.0000
  Solb                                            ...       0.0000
  Solg                                            ...       0.0000
  Solc                                            ...       0.0000
  Solh                                            ...       0.0000
Radii:
  Scheme                                          ... Element-dependent radii
  Radius for C  used is    3.4960 Bohr (=   1.8500 Ang.)
  Radius for H  used is    2.2677 Bohr (=   1.2000 Ang.)
  Radius for O  used is    2.8724 Bohr (=   1.5200 Ang.)
Calculating surface                               ...        done! (  0.0s)
Cavity surface points                             ...         1841
Cavity Volume                                     ...    1152.4947
Cavity Surface-area                               ...     706.5272
Calculating surface distance matrix               ...        done! (  0.0s)
Performing Cholesky decomposition & store         ...        done! (  0.1s)
Overall time for CPCM initialization              ...                 0.2s

----------------------------------------D-I-I-S--------------------------------------------
Iteration    Energy (Eh)           Delta-E    RMSDP     MaxDP     DIISErr   Damp  Time(sec)
-------------------------------------------------------------------------------------------
               ***  Starting incremental Fock matrix formation  ***
                              *** Initializing SOSCF ***
---------------------------------------S-O-S-C-F--------------------------------------
Iteration    Energy (Eh)           Delta-E    RMSDP     MaxDP     MaxGrad    Time(sec)
--------------------------------------------------------------------------------------
    1    -464.5693120254106816     0.00e+00  7.66e-07  1.85e-05  7.85e-06     6.0
               *** Restarting incremental Fock matrix formation ***
    2    -464.5693120252019526     2.09e-10  1.35e-06  3.72e-05  1.13e-05     6.1
                  *** Gradient check signals convergence ***

               *****************************************************
               *                     SUCCESS                       *
               *           SCF CONVERGED AFTER   2 CYCLES          *
               *****************************************************


SMD CDS free energy correction energy :                 5.72603     Kcal/mol
Total Energy after SMD CDS correction =              -464.560187011 Eh
             **** ENERGY FILE WAS UPDATED (xtb_opt.en.tmp) ****

----------------
TOTAL SCF ENERGY
----------------

Total Energy       :       -464.56018701116994 Eh          -12641.32536 eV

Components:
Nuclear Repulsion  :        593.21863141480753 Eh           16142.29962 eV
Electronic Energy  :      -1057.76712971762709 Eh          -28783.30691 eV
One Electron Energy:      -1803.87437445079581 Eh          -49085.91721 eV
Two Electron Energy:        746.10724473316884 Eh           20302.61029 eV
CPCM Dielectric    :         -0.02081372238251 Eh              -0.56637 eV
SMD CDS (Gcds)     :          0.00912501403200 Eh               0.24830 eV

Virial components:
Potential Energy   :       -926.92053960439830 Eh          -25222.79018 eV
Kinetic Energy     :        462.36035259322841 Eh           12581.46482 eV
Virial Ratio       :          2.00475783532391

DFT components:
N(Alpha)           :       41.000062799336 electrons
N(Beta)            :       41.000062799336 electrons
N(Total)           :       82.000125598671 electrons
E(X)               :      -65.272840060744 Eh       
E(C)               :       -2.613010837540 Eh       
E(XC)              :      -67.885850898284 Eh       

CPCM Solvation Model Properties:
Surface-charge          :         -0.05422250150790
Corrected charge        :          0.00000000000000
Outlying charge corr.   :          0.00020359291774 Eh               0.00554 eV
Free-energy (cav+disp)  :          0.00912501403200 Eh               0.24830 eV

---------------
SCF CONVERGENCE
---------------

  Last Energy change         ...   -2.0873e-10  Tolerance :   1.0000e-07
  Last MAX-Density change    ...    3.7166e-05  Tolerance :   1.0000e-07
  Last RMS-Density change    ...    1.3519e-06  Tolerance :   5.0000e-09
  Last DIIS Error            ...    2.5342e-05  Tolerance :   1.0000e-07
  Last Orbital Gradient      ...    1.1303e-05  Tolerance :   1.0000e-04
  Last Orbital Rotation      ...    5.2283e-05  Tolerance :   1.0000e-04


----------------
ORBITAL ENERGIES
----------------

  NO   OCC          E(Eh)            E(eV) 
   0   2.0000     -18.950156      -515.6600 
   1   2.0000     -10.119272      -275.3594 
   2   2.0000     -10.052709      -273.5481 
   3   2.0000     -10.041697      -273.2485 
   4   2.0000     -10.041535      -273.2441 
   5   2.0000     -10.037598      -273.1369 
   6   2.0000     -10.036774      -273.1145 
   7   2.0000     -10.030838      -272.9530 
   8   2.0000     -10.023784      -272.7610 
   9   2.0000     -10.017913      -272.6013 
  10   2.0000     -10.011612      -272.4298 
  11   2.0000      -1.006677       -27.3931 
  12   2.0000      -0.818666       -22.2770 
  13   2.0000      -0.771312       -20.9885 
  14   2.0000      -0.716764       -19.5041 
  15   2.0000      -0.710364       -19.3300 
  16   2.0000      -0.646533       -17.5931 
  17   2.0000      -0.615988       -16.7619 
  18   2.0000      -0.592045       -16.1104 
  19   2.0000      -0.552177       -15.0255 
  20   2.0000      -0.495430       -13.4813 
  21   2.0000      -0.476758       -12.9732 
  22   2.0000      -0.463068       -12.6007 
  23   2.0000      -0.431490       -11.7414 
  24   2.0000      -0.419314       -11.4101 
  25   2.0000      -0.409741       -11.1496 
  26   2.0000      -0.403443       -10.9782 
  27   2.0000      -0.388197       -10.5634 
  28   2.0000      -0.378673       -10.3042 
  29   2.0000      -0.372996       -10.1497 
  30   2.0000      -0.362765        -9.8713 
  31   2.0000      -0.350591        -9.5401 
  32   2.0000      -0.345807        -9.4099 
  33   2.0000      -0.340293        -9.2598 
  34   2.0000      -0.324758        -8.8371 
  35   2.0000      -0.295089        -8.0298 
  36   2.0000      -0.284647        -7.7456 
  37   2.0000      -0.282682        -7.6922 
  38   2.0000      -0.234733        -6.3874 
  39   2.0000      -0.231062        -6.2875 
  40   2.0000      -0.225493        -6.1360 
  41   0.0000      -0.095028        -2.5858 
  42   0.0000      -0.009300        -0.2531 
  43   0.0000       0.034375         0.9354 
  44   0.0000       0.079830         2.1723 
  45   0.0000       0.103611         2.8194 
  46   0.0000       0.110997         3.0204 
  47   0.0000       0.118243         3.2176 
  48   0.0000       0.124622         3.3911 
  49   0.0000       0.127373         3.4660 
  50   0.0000       0.136050         3.7021 
  51   0.0000       0.141028         3.8376 
*Only the first 10 virtual orbitals were printed.
Total SCF time: 0 days 0 hours 0 min 12 sec 
Finished LeanSCF after  13.1 sec

Maximum memory used throughout the entire LEANSCF-calculation: 44.9 MB


-------------------------------------------------------------------------------
                          DFT DISPERSION CORRECTION                            
                                                                               
                                DFTD4 V3.4.0                                   
-------------------------------------------------------------------------------
-------------------------   ----------------
Dispersion correction           -0.008810012
-------------------------   ----------------

------------------   -----------------
gCP correction             0.009476680
------------------   -----------------

-------------------------   --------------------
FINAL SINGLE POINT ENERGY      -464.559520343517
-------------------------   --------------------

------------------------------------------------------------------------------
                         ORCA SCF GRADIENT CALCULATION
------------------------------------------------------------------------------

Nuc. rep. gradient        (SHARK) ... done (  0.0 sec)
HCore & Overlap gradient  (SHARK) ... done (  0.6 sec)
Split-RIJ-J gradient      (SHARK) ... done (  3.3 sec)
XC gradient                       ... done ( 10.6 sec)
CPCM gradient                     ... done (  1.7 sec)
SMD gradient                      ... done (  0.0 sec)
Dispersion correction             ... done (  0.0 sec)

-------------------
DISPERSION GRADIENT
-------------------

   1   C   :    0.000106644    0.000061198   -0.000025576
   2   C   :    0.000111947    0.000001678    0.000010252
   3   C   :    0.000115420   -0.000065214    0.000059023
   4   C   :    0.000033696   -0.000002161   -0.000016137
   5   H   :    0.000015283    0.000001043   -0.000029046
   6   C   :   -0.000001788   -0.000092433    0.000007509
   7   C   :   -0.000059819   -0.000084364   -0.000038194
   8   C   :   -0.000099840    0.000000301   -0.000014488
   9   C   :   -0.000079686    0.000081124    0.000016470
  10   C   :    0.000001943    0.000086861    0.000027225
  11   C   :   -0.000119063   -0.000000219   -0.000018969
  12   O   :   -0.000097926    0.000035623   -0.000004740
  13   H   :    0.000040847    0.000033863   -0.000004721
  14   H   :    0.000039040    0.000014479   -0.000004780
  15   H   :    0.000044436    0.000023973   -0.000026119
  16   H   :    0.000035997   -0.000038695    0.000030439
  17   H   :    0.000041301   -0.000017109    0.000021610
  18   H   :    0.000003426   -0.000053634   -0.000007853
  19   H   :   -0.000004502   -0.000037654    0.000021375
  20   H   :   -0.000018271   -0.000036557   -0.000033310
  21   H   :   -0.000024338   -0.000043835   -0.000005086
  22   H   :   -0.000031559    0.000043407    0.000010617
  23   H   :   -0.000000383    0.000055139   -0.000000062
  24   H   :   -0.000007506    0.000039470    0.000033782
  25   H   :   -0.000045299   -0.000006282   -0.000009220

Difference to translation invariance:
           :   -0.0000000000    0.0000000000   -0.0000000000

Difference to rotation invariance:
           :    0.0000000000    0.0000000000    0.0000000000

Norm of the Dispersion gradient    ...    0.0004061210
RMS gradient                       ...    0.0000468948
MAX gradient                       ...    0.0001190626
gCP correction                   ... done

------------------
CARTESIAN GRADIENT
------------------

   1   C   :    0.000099522    0.000310931   -0.000055207
   2   C   :   -0.000357777   -0.000102154   -0.000018351
   3   C   :    0.000099554    0.000301409   -0.000135203
   4   C   :    0.000184298    0.000138529   -0.000210268
   5   H   :   -0.000016592   -0.000007215    0.000140082
   6   C   :   -0.000042896   -0.000165166    0.000131441
   7   C   :    0.000054403   -0.000199664   -0.000172502
   8   C   :   -0.000152605    0.000402506    0.000115957
   9   C   :   -0.000123685   -0.000145885   -0.000144598
  10   C   :   -0.000013855    0.000107582    0.000165273
  11   C   :    0.000447025   -0.000670988    0.000236921
  12   O   :   -0.000266184    0.000386228   -0.000091636
  13   H   :    0.000323662   -0.000504227   -0.000350204
  14   H   :   -0.000350245    0.000079972   -0.000147640
  15   H   :    0.000158526    0.000002739    0.000629173
  16   H   :   -0.000032689   -0.000017988   -0.000005356
  17   H   :   -0.000004476   -0.000025920    0.000089931
  18   H   :   -0.000079207    0.000092688   -0.000032294
  19   H   :    0.000016523   -0.000042129   -0.000209810
  20   H   :   -0.000068574   -0.000009353    0.000254408
  21   H   :    0.000103951    0.000161529   -0.000037308
  22   H   :    0.000085355   -0.000017015    0.000027971
  23   H   :   -0.000015380   -0.000120411    0.000058836
  24   H   :   -0.000021780   -0.000002962   -0.000119162
  25   H   :   -0.000026875    0.000046961   -0.000120454

Difference to translation invariance:
           :   -0.0000000000    0.0000000000    0.0000000000

Difference to rotation invariance:
           :    0.0000164690   -0.0003816330    0.0001462677

Norm of the Cartesian gradient     ...    0.0017680014
RMS gradient                       ...    0.0002041512
MAX gradient                       ...    0.0006709884

-------
TIMINGS
-------

Total SCF gradient time     ....       17.726 sec

Densities                   ....       0.001 sec  (  0.0%)
One electron gradient       ....       0.650 sec  (  3.7%)
RI-J Coulomb gradient       ....       3.348 sec  ( 18.9%)
XC gradient                 ....      10.570 sec  ( 59.6%)
CPCM gradient               ....       1.696 sec  (  9.6%)
   A-Matrix (El+Nuc)        ....       0.110 sec  (  0.6%)
   Potential                ....       1.586 sec  (  8.9%)
SMD gradient                ....       0.016 sec  (  0.1%)

Maximum memory used throughout the entire SCFGRAD-calculation: 41.3 MB

------------------------------------------------------------------------------
                              ORCA PROPERTY CALCULATIONS
------------------------------------------------------------------------------

GBWName                                 ... xtb_opt.gbw
Number of atoms                         ...     25
Number of basis functions               ...    284
Max core memory                         ...   1024 MB

Electric properties:
Dipole moment                           ... YES
Quadrupole moment                       ...  NO
Static polarizability (Dipole/Dipole)   ...  NO
Static polarizability (Dipole/Quad.)    ...  NO
Static polarizability (Quad./Quad.)     ...  NO
Static polarizability (Velocity)        ...  NO

Atomic electric properties:
Dipole moment                           ...  NO
Quadrupole moment                       ...  NO
Static polarizability                   ...  NO

Choice of electric origin               ... Center of mass
Position of electric origin             ...     0.003386    -0.002363    -0.050997

General magnetic properties:
Magnetizability                         ...  NO

EPR properties:
g-Tensor (aka g-matrix)                 ...  NO
Zero-Field splitting spin-orbit         ...  NO
Zero-field splitting spin-spin          ...  NO
Hyperfine couplings                     ...  NO (   0 nuclei)
Quadrupole couplings                    ...  NO (   0 nuclei)
Contact density                         ...  NO (   0 nuclei)

NMR properties:
Chemical shifts                         ...  NO (   0 nuclei)
Spin-rotation constants                 ...  NO (   0 nuclei)
Spin-spin couplings                     ...  NO (   0 nuclei,    0 pairs)

Choice of magnetic origin               ... GIAO
Position of magnetic origin             ...     0.000000     0.000000     0.000000

Properties with geometric perturbations:
SCF Hessian                             ...  NO
IR spectrum                             ...  NO
VCD spectrum                            ...  NO
X-ray spectroscopy properties:
SCF XES/XAS/RIXS spectra                ...  NO


-------------
DIPOLE MOMENT
-------------

Method             : SCF
Type of density    : Electron Density
Multiplicity       :   1
Irrep              :   0
Energy             :  -464.5601870111699441 Eh
Relativity type    : 
Basis              : AO
                                X                 Y                 Z
Electronic contribution:    -10.900578925       1.474879835      -0.775406157
Nuclear contribution   :     12.588667706      -2.099432850       0.594190996
                        -----------------------------------------
Total Dipole Moment    :      1.688088781      -0.624553015      -0.181215161
                        -----------------------------------------
Magnitude (a.u.)       :      1.809018832
Magnitude (Debye)      :      4.598160449



--------------------
Rotational spectrum 
--------------------
 
Rotational constants in cm-1:             0.095362             0.018450             0.016358 
Rotational constants in MHz :          2858.883927           553.106567           490.391362 

Dipole components along the rotational axes: 
x,y,z [a.u.] :     1.693432    -0.516029     0.372224 
x,y,z [Debye]:     4.304363    -1.311640     0.946119 

 

Dipole moment calculation done in   0.0 sec 

Maximum memory used throughout the entire PROP-calculation: 20.2 MB

--------------------------------
SUGGESTED CITATIONS FOR THIS RUN
--------------------------------

Below you find a list of papers that are relevant to this ORCA run
We neither can nor want to force you to cite these papers, but we appreciate if you do
You receive ORCA, which is the product of decades of hard work by many enthusiastic individuals, for free
The only thing we kindly ask in return is that you cite our papers,
We deeply appreciate it, if you show your appreciation for ORCA by not just citing the generic ORCA reference.

Please note that relegating all ORCA citations to the supporting information does *not* help us.
SI sections are not indexed - citations you put there will not count into any citation statistics
But we need these citations in order to attract the funding resources that allow us to do what we are doing

Therefore, if you are a happy ORCA user, please consider citing a few of the papers listed below in the main body of your paper

In addition to the list printed below, the program has created the file xtb_opt.bibtex that contains the list in bibtex format
You can import this file easily into all common literature databanks and citation aid programs


List of essential papers. We consider these as the minimum necessary citations

  1. Neese,F.
     Software update: the ORCA program system, version 5.0
     WIRES Comput. Molec. Sci., 2022 12(1)e1606
     doi.org/10.1002/wcms.1606
  2. Grimme,S.; Hansen,A.; Ehlert,S.; Mewes,J.
     r2SCAN-3c: A 'Swiss army knife' composite electronic-structure method
     J. Chem. Phys., 2021 154 064103
     doi.org/10.1063/5.0040021

List of papers to cite with high priority. The work reported in these papers was absolutely
necessary for this run to complete.
Our perspective: the developers of density functionals and basis sets usually get cited in chemistry papers
Good! But without the algorithms to do something with them, the functionals or basis sets would not do anything.
Hence, in our opinion, the algorithm design and method developments papers are equally worthy of getting cited

  1. Neese,F.
     An improvement of the resolution of the identity approximation for the formation of the Coulomb matrix
     J. Comp. Chem., 2003 24(14)1740-1747
     doi.org/10.1002/jcc.10318
  2. Garcia-Rates,M.; Neese,F.
     Effect of the Solute Cavity on the Solvation Energy and its Derivatives within the Framework of the Gaussian Charge Scheme
     J. Comput. Chem., 2020 41 922-939
     doi.org/10.1002/jcc.26139
  3. Neese,F.
     The SHARK Integral Generation and Digestion System
     J. Comp. Chem., 2022  1-16
     doi.org/10.1002/jcc.26942
  4. Lehtola,S.; Steigemann,C.; Oliveira,M.; Marques,M.
     Recent developments in Libxc - A comprehensive library of functionals for density functional theory
     Software X, 2018 7 
     doi.org/10.1016/j.softx.2017.11.002
  5. Caldeweyher,E.; Bannwarth,C.; Grimme,S.
     Extension of the D3 dispersion coefficient model
     J. Chem. Phys., 2017 147 034112-XXXX
     doi.org/10.1063/1.4993215
  6. Caldeweyher,E.; Ehlert,S.; Hansen,A.; Neugebauer,H.; Spicher,S.; Bannwarth,C.; Grimme,S.
     A generally applicable atomic-charge dependent London dispersion correction
     J. Chem. Phys., 2019 150 154122-XXXX
     doi.org/10.1063/1.5090222
  7. Caldeweyher,E.; Mewes,J.; Ehlert,S.; Grimme,S.
     Extension and evaluation of the D4 London-dispersion model for periodic systems
     Phys. Chem. Chem. Phys., 2020 22(16)8499-8512
     doi.org/10.1039/D0CP00502A

List of suggested additional citations. These are papers that are important in the 'surrounding' of 
of this run, or papers that preceded the highly important papers. If you like your results we are grateful for a citation.

  1. Neese,F.
     The ORCA program system
     WIRES Comput. Molec. Sci., 2012 2(1)73-78
     doi.org/10.1002/wcms.81
  2. Neese,F.
     Software update: the ORCA program system, version 4.0
     WIRES Comput. Molec. Sci., 2018 8(1)1-6
     doi.org/10.1002/wcms.1327
  3. Neese,F.; Wennmohs,F.; Becker,U.; Riplinger,C.
     The ORCA quantum chemistry program package
     J. Chem. Phys., 2020 152 Art. No. L224108
     doi.org/10.1063/5.0004608

List of optional additional citations

  1. Neese,F.
     Approximate second-order SCF convergence for spin unrestricted wavefunctions
     Chem. Phys. Lett., 2000 325(1-3)93-98
     doi.org/10.1016/s0009-2614(00)00662-x

Timings for individual modules:

Sum of individual times          ...       33.345 sec (=   0.556 min)
Startup calculation              ...        1.845 sec (=   0.031 min)   5.5 %
SCF iterations                   ...       13.509 sec (=   0.225 min)  40.5 %
Property calculations            ...        0.130 sec (=   0.002 min)   0.4 %
SCF Gradient evaluation          ...       17.861 sec (=   0.298 min)  53.6 %
                             ****ORCA TERMINATED NORMALLY****
TOTAL RUN TIME: 0 days 0 hours 0 minutes 34 seconds 327 msec
  ------------------------------------------------------------------------
          * successful ORCA run, taking over control again...

         :::::::::::::::::::::::::::::::::::::::::::::::::::::
         ::                  ORCA SUMMARY                   ::
         :::::::::::::::::::::::::::::::::::::::::::::::::::::
         :: total energy            -464.559520343517 Eh    ::
         :: gradient norm              0.001768001446 Eh/a0 ::
         :: HOMO-LUMO gap              0.000000000000 eV    ::
         :::::::::::::::::::::::::::::::::::::::::::::::::::::

      ----------------------------------------------------------- 
     |                       L-ANC optimizer                     |
      ----------------------------------------------------------- 
          low memory version by Sebastian Ehlert

          ...................................................
          :                      SETUP                      :
          :.................................................:
          :   energy convergence        0.5000000E-05 Eh    :
          :   grad. convergence         0.1000000E-02 Eh/a0 :
          :   optimization log               true           :
          :   writing optlog all                1     steps :
          :   Hessian reset                     8     steps :
          :   maximium step len.        1.0000000     a0    :
          :   LBFGS images                      8           :
          ...................................................
 * calculating model hessian...
Using Lindh-Hessian (1995)
 Shifting diagonal of input Hessian by   1.000000000000000E-002
 Lowest  eigenvalues of input Hessian
    0.000000    0.000000    0.000000    0.000000    0.000000    0.000000
    0.011565    0.011716    0.013902    0.017128    0.018686    0.019259
    0.020730    0.021794    0.023213    0.023889    0.027834    0.032168
 Highest eigenvalues
    1.322294    1.472714    1.496823    1.861267    1.876679    2.130915
 

........................................................................
.............................. CYCLE    1 ..............................
........................................................................
                         * ORCA takes the control...
  ------------------------------------------------------------------------

                                 *****************
                                 * O   R   C   A *
                                 *****************

                                            #,                                       
                                            ###                                      
                                            ####                                     
                                            #####                                    
                                            ######                                   
                                           ########,                                 
                                     ,,################,,,,,                         
                               ,,#################################,,                 
                          ,,##########################################,,             
                       ,#########################################, ''#####,          
                    ,#############################################,,   '####,        
                  ,##################################################,,,,####,       
                ,###########''''           ''''###############################       
              ,#####''   ,,,,##########,,,,          '''####'''          '####       
            ,##' ,,,,###########################,,,                        '##       
           ' ,,###''''                  '''############,,,                           
         ,,##''                                '''############,,,,        ,,,,,,###''
      ,#''                                            '''#######################'''  
     '                                                          ''''####''''         
             ,#######,   #######,   ,#######,      ##                                
            ,#'     '#,  ##    ##  ,#'     '#,    #''#        ,####,   ,####,        
            ##       ##  ##   ,#'  ##            #'  '#       #'       #'  '#        
            ##       ##  #######   ##           ,######,      #####,   #    #        
            '#,     ,#'  ##    ##  '#,     ,#' ,#      #,     #,   #   #,  ,#        
             '#######'   ##     ##  '#######'  #'      '#     '####' # '####'        



                #########################################################
                #                        -***-                          #
                #          Department of theory and spectroscopy        #
                #                                                       #
                #                      Frank Neese                      #
                #                                                       #
                #     Directorship, Architecture, Infrastructure        #
                #                    SHARK, DRIVERS                     #
                #        Core code/Algorithms in most modules           #
                #                                                       #
                #        Max Planck Institute fuer Kohlenforschung      #
                #                Kaiser Wilhelm Platz 1                 #
                #                 D-45470 Muelheim/Ruhr                 #
                #                      Germany                          #
                #                                                       #
                #                  All rights reserved                  #
                #                        -***-                          #
                #########################################################


                         Program Version 6.0.0  -   RELEASE  -


 With contributions from (in alphabetic order):
   Daniel Aravena         : Magnetic Suceptibility
   Michael Atanasov       : Ab Initio Ligand Field Theory (pilot matlab implementation)
   Alexander A. Auer      : GIAO ZORA, VPT2 properties, NMR spectrum
   Ute Becker             : All parallelization in ORCA, NUMFREQ, NUMCALC
   Giovanni Bistoni       : ED, misc. LED, open-shell LED, HFLD
   Martin Brehm           : Molecular dynamics
   Dmytro Bykov           : pre 5.0 version of the SCF Hessian
   Marcos Casanova-Páez   : Triplet and SCS-CIS(D). UHF-(DLPNO)-IP/EA/STEOM-CCSD. UHF-CVS-IP/STEOM-CCSD
   Vijay G. Chilkuri      : MRCI spin determinant printing, contributions to CSF-ICE
   Pauline Colinet        : FMM embedding
   Dipayan Datta          : RHF DLPNO-CCSD density
   Achintya Kumar Dutta   : EOM-CC, STEOM-CC
   Nicolas Foglia         : Exact transition moments, OPA infrastructure, MCD improvements
   Dmitry Ganyushin       : Spin-Orbit,Spin-Spin,Magnetic field MRCI
   Miquel Garcia          : C-PCM and meta-GGA Hessian, CCSD/C-PCM, Gaussian charge scheme
   Tiago L. C. Gouveia    : GS-ROHF, GS-ROCIS
   Yang Guo               : DLPNO-NEVPT2, F12-NEVPT2, CIM, IAO-localization
   Andreas Hansen         : Spin unrestricted coupled pair/coupled cluster methods
   Ingolf Harden          : AUTO-CI MPn and infrastructure 
   Benjamin Helmich-Paris : MC-RPA, TRAH-(SCF,CASSCF), AVAS, COSX integrals, SCF dyn. polar.
   Lee Huntington         : MR-EOM, pCC
   Robert Izsak           : Overlap fitted RIJCOSX, COSX-SCS-MP3, EOM
   Riya Kayal             : Wick's Theorem for AUTO-CI, AUTO-CI UHF-CCSDT
   Emily Kempfer          : AUTO-CI, RHF CISDT and CCSDT
   Christian Kollmar      : KDIIS, OOCD, Brueckner-CCSD(T), CCSD density, CASPT2, CASPT2-K, improved NEVPT2
   Axel Koslowski         : Symmetry handling
   Simone Kossmann        : Meta GGA functionals, TD-DFT gradient, OOMP2, (MP2 Hessian; deprecated post 5.0)
   Lucas Lang             : DCDCAS
   Marvin Lechner         : AUTO-CI (C++ implementation), FIC-MRCC
   Spencer Leger          : CASSCF response
   Dagmar Lenk            : GEPOL surface, SMD, ORCA-2-JSON
   Dimitrios Liakos       : Extrapolation schemes; Compound Job, initial MDCI parallelization
   Dimitrios Manganas     : Further ROCIS development; embedding schemes. LFT, Crystal Embedding
   Dimitrios Pantazis     : SARC Basis sets
   Anastasios Papadopoulos: AUTO-CI, single reference methods and gradients
   Taras Petrenko         : pre 6.0 DFT Hessian and TD-DFT gradient, (ASA, deprecated), ECA, 1-Electron XAS/XES, NRVS
   Peter Pinski           : DLPNO-MP2, DLPNO-MP2 Gradient
   Christoph Reimann      : Effective Core Potentials
   Marius Retegan         : Local ZFS, SOC
   Christoph Riplinger    : Optimizer, TS searches, QM/MM, DLPNO-CCSD(T), (RO)-DLPNO pert. Triples
   Michael Roemelt        : Original ROCIS implementation
   Masaaki Saitow         : Open-shell DLPNO-CCSD energy and density
   Barbara Sandhoefer     : DKH picture change effects
   Kantharuban Sivalingam : CASSCF convergence/infrastructure, NEVPT2 and variants, FIC-MRCI
   Bernardo de Souza      : ESD, SOC TD-DFT
   Georgi Stoychev        : AutoAux, RI-MP2 NMR, DLPNO-MP2 response, X2C
   Van Anh Tran           : RI-MP2 g-tensors
   Willem Van den Heuvel  : Paramagnetic NMR
   Zikuan Wang            : NOTCH, Electric field optimization 
   Frank Wennmohs         : Technical directorship and infrastructure
   Hang Xu                : AUTO-CI-Response properties 


 We gratefully acknowledge several colleagues who have allowed us to
 interface, adapt or use parts of their codes:
   Stefan Grimme, W. Hujo, H. Kruse, P. Pracht,  : VdW corrections, initial TS optimization,
                  C. Bannwarth, S. Ehlert,         DFT functionals, gCP, sTDA/sTD-DF
                  L. Wittmann, M. Mueller
   Ed Valeev, F. Pavosevic, A. Kumar             : LibInt (2-el integral package), F12 methods
   Garnet Chan, S. Sharma, J. Yang, R. Olivares  : DMRG
   Ulf Ekstrom                                   : XCFun DFT Library
   Mihaly Kallay                                 : mrcc  (arbitrary order and MRCC methods)
   Frank Weinhold                                : gennbo (NPA and NBO analysis)
   Simon Mueller                                 : openCOSMO-RS
   Christopher J. Cramer and Donald G. Truhlar   : smd solvation model
   Lars Goerigk                                  : TD-DFT with DH, B97 family of functionals
   V. Asgeirsson, H. Jonsson                     : NEB implementation
   FAccTs GmbH                                   : IRC, NEB, NEB-TS, DLPNO-Multilevel, CI-OPT
                                                   MM, QMMM, 2- and 3-layer-ONIOM, Crystal-QMMM,
                                                   LR-CPCM, SF, NACMEs, symmetry and pop. for TD-DFT,
                                                   nearIR, NL-DFT gradient (VV10), updates on ESD,
                                                   ML-optimized integration grids, MBIS, APM,
                                                   GOAT, DOCKER, SOLVATOR, interface openCOSMO-RS
   S Lehtola, MJT Oliveira, MAL Marques          : LibXC Library
   Liviu Ungur et al                             : ANISO software


 Your calculation uses the libint2 library for the computation of 2-el integrals
 For citations please refer to: http://libint.valeyev.net

 Your ORCA version has been built with support for libXC version: 6.2.2
 For citations please refer to: https://libxc.gitlab.io

 This ORCA versions uses:
   CBLAS   interface :  Fast vector & matrix operations
   LAPACKE interface :  Fast linear algebra routines
   SCALAPACK package :  Parallel linear algebra routines
   Shared memory     :  Shared parallel matrices
   BLAS/LAPACK       :  OpenBLAS 0.3.27  USE64BITINT DYNAMIC_ARCH NO_AFFINITY SkylakeX SINGLE_THREADED
        Core in use  :  SkylakeX
   Copyright (c) 2011-2014, The OpenBLAS Project




***************************************
The coordinates will be read from file: xtb_opt.xyz
***************************************


Your calculation utilizes the geometrical counterpoise correction gCP
Please cite in your paper:
H.Kruse, S. Grimme J.Chem.Phys., 136, (2012), 154101 
   

Your calculation utilizes the atom-pairwise dispersion correction
based on EEQ partial charges (D4)


Your calculation utilizes the SMD solvation module
Please cite in your paper:
A.V. Marenich, C.J. Cramer, D.G. Truhlar J. Phys. Chem. B, 113, (2009), 6378 

================================================================================

----- Orbital basis set information -----
Your calculation utilizes the basis: def2-mTZVPP
   Stefan Grimme, Andreas Hansen, Sebastian Ehlert, and Jan-Michael Mewes 
   J. Chem. Phys. 154, 064103 (2021). DOI: 10.1063/5.0040021

----- AuxJ basis set information -----
Your calculation utilizes the auxiliary basis: def2/J
   F. Weigend, Phys. Chem. Chem. Phys. 8, 1057 (2006).

================================================================================
                                        WARNINGS
                       Please study these warnings very carefully!
================================================================================

WARNING: Old DensityContainer found on disk!
         Will remove this file - 
         If you want to keep old densities, please start your calculation with a different basename. 

Using LibXC functional ID 497 : Re-regularized SCAN exchange by Furness et al
[ 1]  J. W. Furness, A. D. Kaplan, J. Ning, J. P. Perdew, and J. Sun.,  J. Phys. Chem. Lett. 11, 8208-8215 (2020)
[ 2]  J. W. Furness, A. D. Kaplan, J. Ning, J. P. Perdew, and J. Sun.,  J. Phys. Chem. Lett. 11, 9248-9248 (2020)
Using LibXC functional ID 498 : Re-regularized SCAN correlation by Furness et al
[ 1]  J. W. Furness, A. D. Kaplan, J. Ning, J. P. Perdew, and J. Sun.,  J. Phys. Chem. Lett. 11, 8208-8215 (2020)
[ 2]  J. W. Furness, A. D. Kaplan, J. Ning, J. P. Perdew, and J. Sun.,  J. Phys. Chem. Lett. 11, 9248-9248 (2020)
Using LibXC functional ID 497 : Re-regularized SCAN exchange by Furness et al
[ 1]  J. W. Furness, A. D. Kaplan, J. Ning, J. P. Perdew, and J. Sun.,  J. Phys. Chem. Lett. 11, 8208-8215 (2020)
[ 2]  J. W. Furness, A. D. Kaplan, J. Ning, J. P. Perdew, and J. Sun.,  J. Phys. Chem. Lett. 11, 9248-9248 (2020)
Using LibXC functional ID 498 : Re-regularized SCAN correlation by Furness et al
[ 1]  J. W. Furness, A. D. Kaplan, J. Ning, J. P. Perdew, and J. Sun.,  J. Phys. Chem. Lett. 11, 8208-8215 (2020)
[ 2]  J. W. Furness, A. D. Kaplan, J. Ning, J. P. Perdew, and J. Sun.,  J. Phys. Chem. Lett. 11, 9248-9248 (2020)

================================================================================
                                       INPUT FILE
================================================================================
NAME = xtb_opt.inp
|  1> ! r2scan-3c def2/J RI DEFGRID2 scfconv7 ENGRAD tightSCF miniprint
|  2> %cpcm
|  3>     smd true
|  4>     smdsolvent "water"
|  5> end
|  6> * xyzfile 0 1 xtb_opt.xyz
|  7> 
|  8>                          ****END OF INPUT****
================================================================================

                     *******************************
                     * Energy+Gradient Calculation *
                     *******************************

---------------------------------
CARTESIAN COORDINATES (ANGSTROEM)
---------------------------------
  C      3.420904    1.036603   -0.251223
  C      2.594255   -0.120669    0.234936
  C      3.115698   -1.061068    1.029439
  C      1.153217   -0.128360   -0.225283
  H      1.163887   -0.010118   -1.320188
  C      0.373381   -1.403854    0.096974
  C     -1.006174   -1.373105   -0.558707
  C     -1.720575   -0.076739   -0.284115
  C     -1.071341    1.019772    0.151447
  C      0.400455    1.090535    0.346747
  C     -3.170875   -0.045754   -0.484171
  O     -3.900586    0.929480   -0.313655
  H      3.058969    1.985488    0.162862
  H      4.470171    0.921959    0.032783
  H      3.358765    1.126536   -1.342791
  H      2.535880   -1.901799    1.396296
  H      4.156367   -1.008780    1.338888
  H      0.925113   -2.284353   -0.247429
  H      0.255801   -1.494566    1.184742
  H     -0.912747   -1.520190   -1.643753
  H     -1.619136   -2.205473   -0.191483
  H     -1.645916    1.916885    0.375579
  H      0.765491    2.024078   -0.099071
  H      0.604850    1.188293    1.425391
  H     -3.616585   -1.008258   -0.808660

----------------------------
CARTESIAN COORDINATES (A.U.)
----------------------------
  NO LB      ZA    FRAG     MASS         X           Y           Z
   0 C     6.0000    0    12.011    6.464572    1.958896   -0.474742
   1 C     6.0000    0    12.011    4.902432   -0.228030    0.443964
   2 C     6.0000    0    12.011    5.887815   -2.005128    1.945357
   3 C     6.0000    0    12.011    2.179265   -0.242565   -0.425723
   4 H     1.0000    0     1.008    2.199428   -0.019121   -2.494794
   5 C     6.0000    0    12.011    0.705588   -2.652900    0.183254
   6 C     6.0000    0    12.011   -1.901393   -2.594793   -1.055803
   7 C     6.0000    0    12.011   -3.251416   -0.145015   -0.536899
   8 C     6.0000    0    12.011   -2.024541    1.927090    0.286194
   9 C     6.0000    0    12.011    0.756750    2.060812    0.655256
  10 C     6.0000    0    12.011   -5.992086   -0.086462   -0.914951
  11 O     8.0000    0    15.999   -7.371039    1.756462   -0.592722
  12 H     1.0000    0     1.008    5.780614    3.752029    0.307764
  13 H     1.0000    0     1.008    8.447398    1.742250    0.061950
  14 H     1.0000    0     1.008    6.347145    2.128845   -2.537508
  15 H     1.0000    0     1.008    4.792119   -3.593879    2.638616
  16 H     1.0000    0     1.008    7.854396   -1.906318    2.530132
  17 H     1.0000    0     1.008    1.748209   -4.316801   -0.467573
  18 H     1.0000    0     1.008    0.483394   -2.824320    2.238837
  19 H     1.0000    0     1.008   -1.724842   -2.872742   -3.106243
  20 H     1.0000    0     1.008   -3.059723   -4.167741   -0.361850
  21 H     1.0000    0     1.008   -3.110330    3.622388    0.709741
  22 H     1.0000    0     1.008    1.446568    3.824953   -0.187218
  23 H     1.0000    0     1.008    1.143000    2.245549    2.693600
  24 H     1.0000    0     1.008   -6.834354   -1.905332   -1.528146

------------------------------------------------------------------------------
                   ___                                                        
                  /   \      - P O W E R E D   B Y -                         
                 /     \                                                     
                 |  |  |   _    _      __       _____    __    __             
                 |  |  |  | |  | |    /  \     |  _  \  |  |  /  |          
                  \  \/   | |  | |   /    \    | | | |  |  | /  /          
                 / \  \   | |__| |  /  /\  \   | |_| |  |  |/  /          
                |  |  |   |  __  | /  /__\  \  |    /   |      \           
                |  |  |   | |  | | |   __   |  |    \   |  |\   \          
                \     /   | |  | | |  |  |  |  | |\  \  |  | \   \       
                 \___/    |_|  |_| |__|  |__|  |_| \__\ |__|  \__/        
                                                                              
                      - O R C A' S   B I G   F R I E N D -                    
                                      &                                       
                       - I N T E G R A L  F E E D E R -                       
                                                                              
 v1 FN, 2020, v2 2021, v3 2022-2024                                           
------------------------------------------------------------------------------


----------------------
SHARK INTEGRAL PACKAGE
----------------------

Number of atoms                             ...     25
Number of basis functions                   ...    284
Number of shells                            ...    142
Maximum angular momentum                    ...      2
Integral batch strategy                     ... SHARK/LIBINT Hybrid
RI-J (if used) integral strategy            ... SPLIT-RIJ (Revised 2003 algorithm where possible)
Printlevel                                  ...      1
Contraction scheme used                     ... SEGMENTED contraction
Prescreening option                         ... SCHWARTZ
   Thresh                                   ... 3.000e-11
   Tcut                                     ... 1.000e-12
   Tpresel                                  ... 1.000e-12 
Coulomb Range Separation                    ... NOT USED
Exchange Range Separation                   ... NOT USED
Multipole approximations                    ... NOT USED
Finite Nucleus Model                        ... NOT USED
CABS basis                                  ... NOT available
Auxiliary Coulomb fitting basis             ... AVAILABLE
   # of basis functions in Aux-J            ...    693
   # of shells in Aux-J                     ...    235
   Maximum angular momentum in Aux-J        ...      4
Auxiliary J/K fitting basis                 ... NOT available
Auxiliary Correlation fitting basis         ... NOT available
Auxiliary 'external' fitting basis          ... NOT available

Checking pre-screening integrals            ... done (  0.0 sec) Dimension = 142
Check shell pair data                       ... done (  0.0 sec)
Shell pair information
Shell pair cut-off parameter TPreSel        ...   1.0e-12
Total number of shell pairs                 ...     10153
Shell pairs after pre-screening             ...      8669
Total number of primitive shell pairs       ...     36599
Primitive shell pairs kept                  ...     21504
          la=0 lb=0:   2923 shell pairs
          la=1 lb=0:   3371 shell pairs
          la=1 lb=1:    998 shell pairs
          la=2 lb=0:    827 shell pairs
          la=2 lb=1:    483 shell pairs
          la=2 lb=2:     67 shell pairs

Calculating one electron integrals          ... done (  0.1 sec)
Calculating RI/J V-Matrix + Cholesky decomp.... done (  0.1 sec)
Calculating Nuclear repulsion               ... done (  0.0 sec) ENN=    593.206917728302 Eh

Diagonalization of the overlap matrix:
Smallest eigenvalue                        ... 5.693e-05
Time for diagonalization                   ...    0.013 sec
Threshold for overlap eigenvalues          ... 1.000e-07
Number of eigenvalues below threshold      ... 0
Time for construction of square roots      ...    0.018 sec
Total time needed                          ...    0.056 sec

-------------------
DFT GRID GENERATION
-------------------

General Integration Accuracy     IntAcc      ... 4.388
Radial Grid Type                 RadialGrid  ... OptM3 with GC (2021)
Angular Grid (max. ang.)         AngularGrid ... 4 (Lebedev-302)
Angular grid pruning method      GridPruning ... 4 (adaptive)
Weight generation scheme         WeightScheme... mBecke (2022)
Basis function cutoff            BFCut       ... 1.0000e-11
Integration weight cutoff        WCut        ... 1.0000e-14
Partially contracted basis set               ... off
Rotationally invariant grid construction     ... off
Angular grids for H and He will be reduced by one unit
Diffuse basis detected: some atoms will have their outermost
                        angular grid increased by 1.

Total number of grid points                  ...   110733
Total number of batches                      ...     1744
Average number of points per batch           ...       63
Average number of grid points per atom       ...     4429
Initializing property integral containers    ... done (  0.0 sec)

SHARK setup successfully completed in   1.8 seconds

Maximum memory used throughout the entire STARTUP-calculation: 52.0 MB
Occupation numbers will be reassigned to an Aufbau configuration
             **** ENERGY FILE WAS UPDATED (xtb_opt.en.tmp) ****
Finished Guess after   0.4 sec
Maximum memory used throughout the entire GUESS-calculation: 21.3 MB
--------------------
CPCM SOLVATION MODEL
--------------------
CPCM parameters:
  Epsilon                                         ...      78.3550
  Refrac                                          ...       1.3328
  Rsolv                                           ...       1.3000
  Surface type                                    ... GAUSSIAN VDW
  Discretization scheme                           ... Constant charge density
    Threshold for H atoms                         ...       5.0000 (charges/Ang^2)
    Threshold for non-H atoms                     ...       5.0000 (charges/Ang^2)
  Epsilon function type                           ...         CPCM
Solvent:                                          ... WATER
SMD-CDS solvent descriptors:
  Soln                                            ...       1.3328
  Soln25                                          ...       1.3323
  Sola                                            ...       0.0000
  Solb                                            ...       0.0000
  Solg                                            ...       0.0000
  Solc                                            ...       0.0000
  Solh                                            ...       0.0000
Radii:
  Scheme                                          ... Element-dependent radii
  Radius for C  used is    3.4960 Bohr (=   1.8500 Ang.)
  Radius for H  used is    2.2677 Bohr (=   1.2000 Ang.)
  Radius for O  used is    2.8724 Bohr (=   1.5200 Ang.)
Calculating surface                               ...        done! (  0.0s)
Cavity surface points                             ...         1840
Cavity Volume                                     ...    1152.6502
Cavity Surface-area                               ...     706.5890
Calculating surface distance matrix               ...        done! (  0.0s)
Performing Cholesky decomposition & store         ...        done! (  0.1s)
Overall time for CPCM initialization              ...                 0.2s

----------------------------------------D-I-I-S--------------------------------------------
Iteration    Energy (Eh)           Delta-E    RMSDP     MaxDP     DIISErr   Damp  Time(sec)
-------------------------------------------------------------------------------------------
               ***  Starting incremental Fock matrix formation  ***
                              *** Initializing SOSCF ***
---------------------------------------S-O-S-C-F--------------------------------------
Iteration    Energy (Eh)           Delta-E    RMSDP     MaxDP     MaxGrad    Time(sec)
--------------------------------------------------------------------------------------
    1    -464.5692893182911121     0.00e+00  4.92e-05  1.25e-03  2.01e-04     6.0
               *** Restarting incremental Fock matrix formation ***
    2    -464.5693107362262708    -2.14e-05  2.37e-05  6.05e-04  1.87e-04     5.8
    3    -464.5693122364073133    -1.50e-06  1.56e-05  5.75e-04  1.33e-04     4.2
    4    -464.5693120608441404     1.76e-07  1.10e-05  3.71e-04  1.50e-04     4.4
    5    -464.5693125466516449    -4.86e-07  3.36e-06  7.86e-05  2.42e-05     4.3
                  *** Gradient check signals convergence ***

               *****************************************************
               *                     SUCCESS                       *
               *           SCF CONVERGED AFTER   5 CYCLES          *
               *****************************************************


SMD CDS free energy correction energy :                 5.72955     Kcal/mol
Total Energy after SMD CDS correction =              -464.560181935 Eh
             **** ENERGY FILE WAS UPDATED (xtb_opt.en.tmp) ****

----------------
TOTAL SCF ENERGY
----------------

Total Energy       :       -464.56018193492605 Eh          -12641.32522 eV

Components:
Nuclear Repulsion  :        593.20691772830219 Eh           16141.98087 eV
Electronic Energy  :      -1057.75544089183222 Eh          -28782.98885 eV
One Electron Energy:      -1803.85192406603164 Eh          -49085.30630 eV
Two Electron Energy:        746.09648317419953 Eh           20302.31746 eV
CPCM Dielectric    :         -0.02078938312162 Eh              -0.56571 eV
SMD CDS (Gcds)     :          0.00913061172558 Eh               0.24846 eV

Virial components:
Potential Energy   :       -926.91375508022770 Eh          -25222.60557 eV
Kinetic Energy     :        462.35357314530160 Eh           12581.28035 eV
Virial Ratio       :          2.00477255701651

DFT components:
N(Alpha)           :       41.000061467375 electrons
N(Beta)            :       41.000061467375 electrons
N(Total)           :       82.000122934751 electrons
E(X)               :      -65.270732201207 Eh       
E(C)               :       -2.612962205459 Eh       
E(XC)              :      -67.883694406665 Eh       

CPCM Solvation Model Properties:
Surface-charge          :         -0.05423450711954
Corrected charge        :         -0.00000000000000
Outlying charge corr.   :          0.00020367715019 Eh               0.00554 eV
Free-energy (cav+disp)  :          0.00913061172558 Eh               0.24846 eV

---------------
SCF CONVERGENCE
---------------

  Last Energy change         ...    4.8581e-07  Tolerance :   1.0000e-07
  Last MAX-Density change    ...    7.8583e-05  Tolerance :   1.0000e-07
  Last RMS-Density change    ...    3.3551e-06  Tolerance :   5.0000e-09
  Last DIIS Error            ...    2.0932e-03  Tolerance :   1.0000e-07
  Last Orbital Gradient      ...    2.4249e-05  Tolerance :   1.0000e-04
  Last Orbital Rotation      ...    8.0997e-05  Tolerance :   1.0000e-04


----------------
ORBITAL ENERGIES
----------------

  NO   OCC          E(Eh)            E(eV) 
   0   2.0000     -18.950258      -515.6627 
   1   2.0000     -10.119215      -275.3578 
   2   2.0000     -10.052631      -273.5460 
   3   2.0000     -10.041708      -273.2488 
   4   2.0000     -10.041566      -273.2449 
   5   2.0000     -10.037597      -273.1369 
   6   2.0000     -10.036787      -273.1149 
   7   2.0000     -10.031008      -272.9576 
   8   2.0000     -10.023869      -272.7634 
   9   2.0000     -10.018459      -272.6161 
  10   2.0000     -10.011675      -272.4315 
  11   2.0000      -1.006914       -27.3995 
  12   2.0000      -0.818636       -22.2762 
  13   2.0000      -0.771258       -20.9870 
  14   2.0000      -0.716688       -19.5021 
  15   2.0000      -0.710298       -19.3282 
  16   2.0000      -0.646480       -17.5916 
[...]
  16   2.0000      -0.646523       -17.5928 
  17   2.0000      -0.615857       -16.7583 
  18   2.0000      -0.591962       -16.1081 
  19   2.0000      -0.552155       -15.0249 
  20   2.0000      -0.495375       -13.4798 
  21   2.0000      -0.476721       -12.9722 
  22   2.0000      -0.463064       -12.6006 
  23   2.0000      -0.431405       -11.7391 
  24   2.0000      -0.419284       -11.4093 
  25   2.0000      -0.409708       -11.1487 
  26   2.0000      -0.403477       -10.9792 
  27   2.0000      -0.388193       -10.5633 
  28   2.0000      -0.378582       -10.3017 
  29   2.0000      -0.373041       -10.1510 
  30   2.0000      -0.362768        -9.8714 
  31   2.0000      -0.350544        -9.5388 
  32   2.0000      -0.345771        -9.4089 
  33   2.0000      -0.340296        -9.2599 
  34   2.0000      -0.324865        -8.8400 
  35   2.0000      -0.295027        -8.0281 
  36   2.0000      -0.284632        -7.7452 
  37   2.0000      -0.282661        -7.6916 
  38   2.0000      -0.234678        -6.3859 
  39   2.0000      -0.231045        -6.2870 
  40   2.0000      -0.225495        -6.1360 
  41   0.0000      -0.094941        -2.5835 
  42   0.0000      -0.009291        -0.2528 
  43   0.0000       0.034345         0.9346 
  44   0.0000       0.079853         2.1729 
  45   0.0000       0.103611         2.8194 
  46   0.0000       0.111011         3.0208 
  47   0.0000       0.118286         3.2187 
  48   0.0000       0.124570         3.3897 
  49   0.0000       0.127281         3.4635 
  50   0.0000       0.135975         3.7001 
  51   0.0000       0.140991         3.8366 
*Only the first 10 virtual orbitals were printed.
Total SCF time: 0 days 0 hours 0 min 20 sec 
Finished LeanSCF after  21.0 sec

Maximum memory used throughout the entire LEANSCF-calculation: 44.9 MB


-------------------------------------------------------------------------------
                          DFT DISPERSION CORRECTION                            
                                                                               
                                DFTD4 V3.4.0                                   
-------------------------------------------------------------------------------
-------------------------   ----------------
Dispersion correction           -0.008810638
-------------------------   ----------------

------------------   -----------------
gCP correction             0.009473525
------------------   -----------------

-------------------------   --------------------
FINAL SINGLE POINT ENERGY      -464.559528320166
-------------------------   --------------------

------------------------------------------------------------------------------
                         ORCA SCF GRADIENT CALCULATION
------------------------------------------------------------------------------

Nuc. rep. gradient        (SHARK) ... done (  0.0 sec)
HCore & Overlap gradient  (SHARK) ... done (  0.6 sec)
Split-RIJ-J gradient      (SHARK) ... done (  3.1 sec)
XC gradient                       ... done ( 10.4 sec)
CPCM gradient                     ... done (  1.7 sec)
SMD gradient                      ... done (  0.0 sec)
Dispersion correction             ... done (  0.0 sec)

-------------------
DISPERSION GRADIENT
-------------------

   1   C   :    0.000106534    0.000061370   -0.000025552
   2   C   :    0.000111986    0.000001643    0.000010285
   3   C   :    0.000115494   -0.000065342    0.000058889
   4   C   :    0.000033710   -0.000002219   -0.000016083
   5   H   :    0.000015285    0.000000970   -0.000028979
   6   C   :   -0.000001881   -0.000092434    0.000007720
   7   C   :   -0.000059785   -0.000084394   -0.000038234
   8   C   :   -0.000099825    0.000000261   -0.000014580
   9   C   :   -0.000079720    0.000081063    0.000016376
  10   C   :    0.000002054    0.000086856    0.000027169
  11   C   :   -0.000119094   -0.000000124   -0.000019013
  12   O   :   -0.000097914    0.000035692   -0.000004675
  13   H   :    0.000040848    0.000033856   -0.000004648
  14   H   :    0.000039012    0.000014529   -0.000004812
  15   H   :    0.000044447    0.000024065   -0.000026077
  16   H   :    0.000036007   -0.000038716    0.000030368
  17   H   :    0.000041313   -0.000017139    0.000021533
  18   H   :    0.000003413   -0.000053640   -0.000007683
  19   H   :   -0.000004587   -0.000037604    0.000021464
  20   H   :   -0.000018263   -0.000036592   -0.000033336
  21   H   :   -0.000024319   -0.000043830   -0.000005128
  22   H   :   -0.000031612    0.000043386    0.000010558
  23   H   :   -0.000000309    0.000055098   -0.000000107
  24   H   :   -0.000007478    0.000039498    0.000033761
  25   H   :   -0.000045315   -0.000006254   -0.000009218

Difference to translation invariance:
           :   -0.0000000000   -0.0000000000    0.0000000000

Difference to rotation invariance:
           :   -0.0000000000   -0.0000000000    0.0000000000

Norm of the Dispersion gradient    ...    0.0004061505
RMS gradient                       ...    0.0000468982
MAX gradient                       ...    0.0001190937
gCP correction                   ... done

------------------
CARTESIAN GRADIENT
------------------

   1   C   :    0.000063108   -0.000008817   -0.000030888
   2   C   :   -0.000028052   -0.000017867    0.000037847
   3   C   :   -0.000020453    0.000004656    0.000002607
   4   C   :   -0.000053332    0.000028309   -0.000012530
   5   H   :    0.000019874    0.000020182   -0.000011484
   6   C   :    0.000006264    0.000003764   -0.000013746
   7   C   :    0.000008446    0.000011606   -0.000009507
   8   C   :    0.000021537    0.000021710   -0.000000063
   9   C   :   -0.000002945   -0.000000525   -0.000052859
  10   C   :   -0.000023490   -0.000007342    0.000053800
  11   C   :   -0.000011126   -0.000053210    0.000121866
  12   O   :   -0.000009393    0.000033352   -0.000050385
  13   H   :    0.000022782   -0.000059893   -0.000065299
  14   H   :   -0.000040531    0.000045330   -0.000010617
  15   H   :    0.000040706   -0.000008928    0.000068063
  16   H   :   -0.000005481    0.000022123   -0.000004856
  17   H   :   -0.000007384    0.000024233    0.000029017
  18   H   :    0.000001315    0.000013694   -0.000019680
  19   H   :   -0.000000517   -0.000026922   -0.000028224
  20   H   :   -0.000008750   -0.000027616    0.000012228
  21   H   :    0.000016343    0.000016734   -0.000000389
  22   H   :    0.000002493   -0.000011251    0.000006286
  23   H   :   -0.000006906   -0.000006762    0.000017062
  24   H   :    0.000008651   -0.000007661    0.000008577
  25   H   :    0.000006839   -0.000008899   -0.000046828

Difference to translation invariance:
           :   -0.0000000000   -0.0000000000   -0.0000000000

Difference to rotation invariance:
           :    0.0000024125   -0.0004074697    0.0001791084

Norm of the Cartesian gradient     ...    0.0002633494
RMS gradient                       ...    0.0000304090
MAX gradient                       ...    0.0001218662

-------
TIMINGS
-------

Total SCF gradient time     ....       17.280 sec

Densities                   ....       0.001 sec  (  0.0%)
One electron gradient       ....       0.603 sec  (  3.5%)
RI-J Coulomb gradient       ....       3.087 sec  ( 17.9%)
XC gradient                 ....      10.428 sec  ( 60.4%)
CPCM gradient               ....       1.724 sec  ( 10.0%)
   A-Matrix (El+Nuc)        ....       0.114 sec  (  0.7%)
   Potential                ....       1.610 sec  (  9.3%)
SMD gradient                ....       0.013 sec  (  0.1%)

Maximum memory used throughout the entire SCFGRAD-calculation: 41.3 MB

------------------------------------------------------------------------------
                              ORCA PROPERTY CALCULATIONS
------------------------------------------------------------------------------

GBWName                                 ... xtb_opt.gbw
Number of atoms                         ...     25
Number of basis functions               ...    284
Max core memory                         ...   1024 MB

Electric properties:
Dipole moment                           ... YES
Quadrupole moment                       ...  NO
Static polarizability (Dipole/Dipole)   ...  NO
Static polarizability (Dipole/Quad.)    ...  NO
Static polarizability (Quad./Quad.)     ...  NO
Static polarizability (Velocity)        ...  NO

Atomic electric properties:
Dipole moment                           ...  NO
Quadrupole moment                       ...  NO
Static polarizability                   ...  NO

Choice of electric origin               ... Center of mass
Position of electric origin             ...     0.004173    -0.002423    -0.050900

General magnetic properties:
Magnetizability                         ...  NO

EPR properties:
g-Tensor (aka g-matrix)                 ...  NO
Zero-Field splitting spin-orbit         ...  NO
Zero-field splitting spin-spin          ...  NO
Hyperfine couplings                     ...  NO (   0 nuclei)
Quadrupole couplings                    ...  NO (   0 nuclei)
Contact density                         ...  NO (   0 nuclei)

NMR properties:
Chemical shifts                         ...  NO (   0 nuclei)
Spin-rotation constants                 ...  NO (   0 nuclei)
Spin-spin couplings                     ...  NO (   0 nuclei,    0 pairs)

Choice of magnetic origin               ... GIAO
Position of magnetic origin             ...     0.000000     0.000000     0.000000

Properties with geometric perturbations:
SCF Hessian                             ...  NO
IR spectrum                             ...  NO
VCD spectrum                            ...  NO
X-ray spectroscopy properties:
SCF XES/XAS/RIXS spectra                ...  NO


-------------
DIPOLE MOMENT
-------------

Method             : SCF
Type of density    : Electron Density
Multiplicity       :   1
Irrep              :   0
Energy             :  -464.5601912077649445 Eh
Relativity type    : 
Basis              : AO
                                X                 Y                 Z
Electronic contribution:    -10.893590663       1.474129364      -0.776555823
Nuclear contribution   :     12.578440757      -2.097963343       0.593445687
                        -----------------------------------------
Total Dipole Moment    :      1.684850094      -0.623833979      -0.183110136
                        -----------------------------------------
Magnitude (a.u.)       :      1.805939643
Magnitude (Debye)      :      4.590333774



--------------------
Rotational spectrum 
--------------------
 
Rotational constants in cm-1:             0.095319             0.018457             0.016360 
Rotational constants in MHz :          2857.594919           553.324197           490.456759 

Dipole components along the rotational axes: 
x,y,z [a.u.] :     1.690177    -0.514597     0.374043 
x,y,z [Debye]:     4.296090    -1.308001     0.950742 

 

Dipole moment calculation done in   0.0 sec 

Maximum memory used throughout the entire PROP-calculation: 20.2 MB

--------------------------------
SUGGESTED CITATIONS FOR THIS RUN
--------------------------------

Below you find a list of papers that are relevant to this ORCA run
We neither can nor want to force you to cite these papers, but we appreciate if you do
You receive ORCA, which is the product of decades of hard work by many enthusiastic individuals, for free
The only thing we kindly ask in return is that you cite our papers,
We deeply appreciate it, if you show your appreciation for ORCA by not just citing the generic ORCA reference.

Please note that relegating all ORCA citations to the supporting information does *not* help us.
SI sections are not indexed - citations you put there will not count into any citation statistics
But we need these citations in order to attract the funding resources that allow us to do what we are doing

Therefore, if you are a happy ORCA user, please consider citing a few of the papers listed below in the main body of your paper

In addition to the list printed below, the program has created the file xtb_opt.bibtex that contains the list in bibtex format
You can import this file easily into all common literature databanks and citation aid programs


List of essential papers. We consider these as the minimum necessary citations

  1. Neese,F.
     Software update: the ORCA program system, version 5.0
     WIRES Comput. Molec. Sci., 2022 12(1)e1606
     doi.org/10.1002/wcms.1606
  2. Grimme,S.; Hansen,A.; Ehlert,S.; Mewes,J.
     r2SCAN-3c: A 'Swiss army knife' composite electronic-structure method
     J. Chem. Phys., 2021 154 064103
     doi.org/10.1063/5.0040021

List of papers to cite with high priority. The work reported in these papers was absolutely
necessary for this run to complete.
Our perspective: the developers of density functionals and basis sets usually get cited in chemistry papers
Good! But without the algorithms to do something with them, the functionals or basis sets would not do anything.
Hence, in our opinion, the algorithm design and method developments papers are equally worthy of getting cited

  1. Neese,F.
     An improvement of the resolution of the identity approximation for the formation of the Coulomb matrix
     J. Comp. Chem., 2003 24(14)1740-1747
     doi.org/10.1002/jcc.10318
  2. Garcia-Rates,M.; Neese,F.
     Effect of the Solute Cavity on the Solvation Energy and its Derivatives within the Framework of the Gaussian Charge Scheme
     J. Comput. Chem., 2020 41 922-939
     doi.org/10.1002/jcc.26139
  3. Neese,F.
     The SHARK Integral Generation and Digestion System
     J. Comp. Chem., 2022  1-16
     doi.org/10.1002/jcc.26942
  4. Lehtola,S.; Steigemann,C.; Oliveira,M.; Marques,M.
     Recent developments in Libxc - A comprehensive library of functionals for density functional theory
     Software X, 2018 7 
     doi.org/10.1016/j.softx.2017.11.002
  5. Caldeweyher,E.; Bannwarth,C.; Grimme,S.
     Extension of the D3 dispersion coefficient model
     J. Chem. Phys., 2017 147 034112-XXXX
     doi.org/10.1063/1.4993215
  6. Caldeweyher,E.; Ehlert,S.; Hansen,A.; Neugebauer,H.; Spicher,S.; Bannwarth,C.; Grimme,S.
     A generally applicable atomic-charge dependent London dispersion correction
     J. Chem. Phys., 2019 150 154122-XXXX
     doi.org/10.1063/1.5090222
  7. Caldeweyher,E.; Mewes,J.; Ehlert,S.; Grimme,S.
     Extension and evaluation of the D4 London-dispersion model for periodic systems
     Phys. Chem. Chem. Phys., 2020 22(16)8499-8512
     doi.org/10.1039/D0CP00502A

List of suggested additional citations. These are papers that are important in the 'surrounding' of 
of this run, or papers that preceded the highly important papers. If you like your results we are grateful for a citation.

  1. Neese,F.
     The ORCA program system
     WIRES Comput. Molec. Sci., 2012 2(1)73-78
     doi.org/10.1002/wcms.81
  2. Neese,F.
     Software update: the ORCA program system, version 4.0
     WIRES Comput. Molec. Sci., 2018 8(1)1-6
     doi.org/10.1002/wcms.1327
  3. Neese,F.; Wennmohs,F.; Becker,U.; Riplinger,C.
     The ORCA quantum chemistry program package
     J. Chem. Phys., 2020 152 Art. No. L224108
     doi.org/10.1063/5.0004608

List of optional additional citations

  1. Neese,F.
     Approximate second-order SCF convergence for spin unrestricted wavefunctions
     Chem. Phys. Lett., 2000 325(1-3)93-98
     doi.org/10.1016/s0009-2614(00)00662-x

Timings for individual modules:

Sum of individual times          ...       41.521 sec (=   0.692 min)
Startup calculation              ...        2.313 sec (=   0.039 min)   5.6 %
SCF iterations                   ...       21.657 sec (=   0.361 min)  52.2 %
Property calculations            ...        0.142 sec (=   0.002 min)   0.3 %
SCF Gradient evaluation          ...       17.410 sec (=   0.290 min)  41.9 %
                             ****ORCA TERMINATED NORMALLY****
TOTAL RUN TIME: 0 days 0 hours 0 minutes 43 seconds 418 msec
  ------------------------------------------------------------------------
          * successful ORCA run, taking over control again...

         :::::::::::::::::::::::::::::::::::::::::::::::::::::
         ::                  ORCA SUMMARY                   ::
         :::::::::::::::::::::::::::::::::::::::::::::::::::::
         :: total energy            -464.559528320166 Eh    ::
         :: gradient norm              0.000263349386 Eh/a0 ::
         :: HOMO-LUMO gap              0.000000000000 eV    ::
         :::::::::::::::::::::::::::::::::::::::::::::::::::::

           -------------------------------------------------
          |                Property Printout                |
           -------------------------------------------------
           -------------------------------------------------
          |                Geometry Summary                 |
           -------------------------------------------------

      molecular mass/u    :      150.2179344
   center of mass at/Å    :        0.0021855      -0.0012771      -0.0269368
  moments of inertia/u·Å² :        0.1768495E+03   0.9133398E+03   0.1030411E+04
rotational constants/cm⁻¹ :        0.9532192E-01   0.1845713E-01   0.1636010E-01

 * 19 selected distances

     #   Z          #   Z                                           value/Å
     2   6 C        3   6 C                                       1.3368928
     4   6 C        5   1 H                                       1.1013311
     4   6 C        6   6 C                                       1.5292586 (max)
     6   6 C        7   6 C                                       1.5277555
     8   6 C        9   6 C                                       1.3466452
     9   6 C       10   6 C                                       1.4862840
    11   6 C       12   8 O                                       1.2298885
     1   6 C       13   1 H                                       1.0963930
     1   6 C       14   1 H                                       1.0927869
     1   6 C       15   1 H                                       1.0966634
     3   6 C       16   1 H                                       1.0851394 (min)
     3   6 C       17   1 H                                       1.0870025
     6   6 C       18   1 H                                       1.0946116
     6   6 C       19   1 H                                       1.0978299
     7   6 C       20   1 H                                       1.0988890
     7   6 C       21   1 H                                       1.0969003
     9   6 C       22   1 H                                       1.0886103
    10   6 C       23   1 H                                       1.0969828
    10   6 C       24   1 H                                       1.1021683

 * 3 distinct bonds (by element types)

   Z      Z             #   av. dist./Å        max./Å        min./Å
   1 H    6 C          13     1.0950237     1.1021683     1.0851394
   6 C    6 C           5     1.4453672     1.5292586     1.3368928
   6 C    8 O           1     1.2298885     1.2298885     1.2298885


optimized geometry written to: xtbopt.coord


           -------------------------------------------------
          | TOTAL ENERGY             -464.559528320166 Eh   |
          | GRADIENT NORM               0.000263349386 Eh/α |
           -------------------------------------------------

------------------------------------------------------------------------
 * finished run on 2025/04/11 at 12:28:47.244     
------------------------------------------------------------------------
 total:
 * wall-time:     0 d,  0 h,  3 min, 32.089 sec
 *  cpu-time:     0 d,  0 h,  0 min,  3.972 sec
 * ratio c/w:     0.019 speedup
 SCF:
 * wall-time:     0 d,  0 h,  0 min, 34.438 sec
 *  cpu-time:     0 d,  0 h,  0 min,  1.082 sec
 * ratio c/w:     0.031 speedup
 ANC optimizer:
 * wall-time:     0 d,  0 h,  2 min, 57.477 sec
 *  cpu-time:     0 d,  0 h,  0 min,  2.541 sec
 * ratio c/w:     0.014 speedup

