
                                 *****************
                                 * O   R   C   A *
                                 *****************

                                            #,                                       
                                            ###                                      
                                            ####                                     
                                            #####                                    
                                            ######                                   
                                           ########,                                 
                                     ,,################,,,,,                         
                               ,,#################################,,                 
                          ,,##########################################,,             
                       ,#########################################, ''#####,          
                    ,#############################################,,   '####,        
                  ,##################################################,,,,####,       
                ,###########''''           ''''###############################       
              ,#####''   ,,,,##########,,,,          '''####'''          '####       
            ,##' ,,,,###########################,,,                        '##       
           ' ,,###''''                  '''############,,,                           
         ,,##''                                '''############,,,,        ,,,,,,###''
      ,#''                                            '''#######################'''  
     '                                                          ''''####''''         
             ,#######,   #######,   ,#######,      ##                                
            ,#'     '#,  ##    ##  ,#'     '#,    #''#        ,####,   ,####,        
            ##       ##  ##   ,#'  ##            #'  '#       #'       #'  '#        
            ##       ##  #######   ##           ,######,      #####,   #    #        
            '#,     ,#'  ##    ##  '#,     ,#' ,#      #,     #,   #   #,  ,#        
             '#######'   ##     ##  '#######'  #'      '#     '####' # '####'        



                #########################################################
                #                        -***-                          #
                #          Department of theory and spectroscopy        #
                #                                                       #
                #                      Frank Neese                      #
                #                                                       #
                #     Directorship, Architecture, Infrastructure        #
                #                    SHARK, DRIVERS                     #
                #        Core code/Algorithms in most modules           #
                #                                                       #
                #        Max Planck Institute fuer Kohlenforschung      #
                #                Kaiser Wilhelm Platz 1                 #
                #                 D-45470 Muelheim/Ruhr                 #
                #                      Germany                          #
                #                                                       #
                #                  All rights reserved                  #
                #                        -***-                          #
                #########################################################


                         Program Version 6.0.0  -   RELEASE  -


 With contributions from (in alphabetic order):
   Daniel Aravena         : Magnetic Suceptibility
   Michael Atanasov       : Ab Initio Ligand Field Theory (pilot matlab implementation)
   Alexander A. Auer      : GIAO ZORA, VPT2 properties, NMR spectrum
   Ute Becker             : All parallelization in ORCA, NUMFREQ, NUMCALC
   Giovanni Bistoni       : ED, misc. LED, open-shell LED, HFLD
   Martin Brehm           : Molecular dynamics
   Dmytro Bykov           : pre 5.0 version of the SCF Hessian
   Marcos Casanova-Páez   : Triplet and SCS-CIS(D). UHF-(DLPNO)-IP/EA/STEOM-CCSD. UHF-CVS-IP/STEOM-CCSD
   Vijay G. Chilkuri      : MRCI spin determinant printing, contributions to CSF-ICE
   Pauline Colinet        : FMM embedding
   Dipayan Datta          : RHF DLPNO-CCSD density
   Achintya Kumar Dutta   : EOM-CC, STEOM-CC
   Nicolas Foglia         : Exact transition moments, OPA infrastructure, MCD improvements
   Dmitry Ganyushin       : Spin-Orbit,Spin-Spin,Magnetic field MRCI
   Miquel Garcia          : C-PCM and meta-GGA Hessian, CCSD/C-PCM, Gaussian charge scheme
   Tiago L. C. Gouveia    : GS-ROHF, GS-ROCIS
   Yang Guo               : DLPNO-NEVPT2, F12-NEVPT2, CIM, IAO-localization
   Andreas Hansen         : Spin unrestricted coupled pair/coupled cluster methods
   Ingolf Harden          : AUTO-CI MPn and infrastructure 
   Benjamin Helmich-Paris : MC-RPA, TRAH-(SCF,CASSCF), AVAS, COSX integrals, SCF dyn. polar.
   Lee Huntington         : MR-EOM, pCC
   Robert Izsak           : Overlap fitted RIJCOSX, COSX-SCS-MP3, EOM
   Riya Kayal             : Wick's Theorem for AUTO-CI, AUTO-CI UHF-CCSDT
   Emily Kempfer          : AUTO-CI, RHF CISDT and CCSDT
   Christian Kollmar      : KDIIS, OOCD, Brueckner-CCSD(T), CCSD density, CASPT2, CASPT2-K, improved NEVPT2
   Axel Koslowski         : Symmetry handling
   Simone Kossmann        : Meta GGA functionals, TD-DFT gradient, OOMP2, (MP2 Hessian; deprecated post 5.0)
   Lucas Lang             : DCDCAS
   Marvin Lechner         : AUTO-CI (C++ implementation), FIC-MRCC
   Spencer Leger          : CASSCF response
   Dagmar Lenk            : GEPOL surface, SMD, ORCA-2-JSON
   Dimitrios Liakos       : Extrapolation schemes; Compound Job, initial MDCI parallelization
   Dimitrios Manganas     : Further ROCIS development; embedding schemes. LFT, Crystal Embedding
   Dimitrios Pantazis     : SARC Basis sets
   Anastasios Papadopoulos: AUTO-CI, single reference methods and gradients
   Taras Petrenko         : pre 6.0 DFT Hessian and TD-DFT gradient, (ASA, deprecated), ECA, 1-Electron XAS/XES, NRVS
   Peter Pinski           : DLPNO-MP2, DLPNO-MP2 Gradient
   Christoph Reimann      : Effective Core Potentials
   Marius Retegan         : Local ZFS, SOC
   Christoph Riplinger    : Optimizer, TS searches, QM/MM, DLPNO-CCSD(T), (RO)-DLPNO pert. Triples
   Michael Roemelt        : Original ROCIS implementation
   Masaaki Saitow         : Open-shell DLPNO-CCSD energy and density
   Barbara Sandhoefer     : DKH picture change effects
   Kantharuban Sivalingam : CASSCF convergence/infrastructure, NEVPT2 and variants, FIC-MRCI
   Bernardo de Souza      : ESD, SOC TD-DFT
   Georgi Stoychev        : AutoAux, RI-MP2 NMR, DLPNO-MP2 response, X2C
   Van Anh Tran           : RI-MP2 g-tensors
   Willem Van den Heuvel  : Paramagnetic NMR
   Zikuan Wang            : NOTCH, Electric field optimization 
   Frank Wennmohs         : Technical directorship and infrastructure
   Hang Xu                : AUTO-CI-Response properties 


 We gratefully acknowledge several colleagues who have allowed us to
 interface, adapt or use parts of their codes:
   Stefan Grimme, W. Hujo, H. Kruse, P. Pracht,  : VdW corrections, initial TS optimization,
                  C. Bannwarth, S. Ehlert,         DFT functionals, gCP, sTDA/sTD-DF
                  L. Wittmann, M. Mueller
   Ed Valeev, F. Pavosevic, A. Kumar             : LibInt (2-el integral package), F12 methods
   Garnet Chan, S. Sharma, J. Yang, R. Olivares  : DMRG
   Ulf Ekstrom                                   : XCFun DFT Library
   Mihaly Kallay                                 : mrcc  (arbitrary order and MRCC methods)
   Frank Weinhold                                : gennbo (NPA and NBO analysis)
   Simon Mueller                                 : openCOSMO-RS
   Christopher J. Cramer and Donald G. Truhlar   : smd solvation model
   Lars Goerigk                                  : TD-DFT with DH, B97 family of functionals
   V. Asgeirsson, H. Jonsson                     : NEB implementation
   FAccTs GmbH                                   : IRC, NEB, NEB-TS, DLPNO-Multilevel, CI-OPT
                                                   MM, QMMM, 2- and 3-layer-ONIOM, Crystal-QMMM,
                                                   LR-CPCM, SF, NACMEs, symmetry and pop. for TD-DFT,
                                                   nearIR, NL-DFT gradient (VV10), updates on ESD,
                                                   ML-optimized integration grids, MBIS, APM,
                                                   GOAT, DOCKER, SOLVATOR, interface openCOSMO-RS
   S Lehtola, MJT Oliveira, MAL Marques          : LibXC Library
   Liviu Ungur et al                             : ANISO software


 Your calculation uses the libint2 library for the computation of 2-el integrals
 For citations please refer to: http://libint.valeyev.net

 Your ORCA version has been built with support for libXC version: 6.2.2
 For citations please refer to: https://libxc.gitlab.io

 This ORCA versions uses:
   CBLAS   interface :  Fast vector & matrix operations
   LAPACKE interface :  Fast linear algebra routines
   SCALAPACK package :  Parallel linear algebra routines
   Shared memory     :  Shared parallel matrices
   BLAS/LAPACK       :  OpenBLAS 0.3.27  USE64BITINT DYNAMIC_ARCH NO_AFFINITY SkylakeX SINGLE_THREADED
        Core in use  :  SkylakeX
   Copyright (c) 2011-2014, The OpenBLAS Project


Your calculation utilizes the geometrical counterpoise correction gCP
Please cite in your paper:
H.Kruse, S. Grimme J.Chem.Phys., 136, (2012), 154101 
   

Your calculation utilizes the atom-pairwise dispersion correction
based on EEQ partial charges (D4)


================================================================================

----- Orbital basis set information -----
Your calculation utilizes the basis: def2-SV(P)
   F. Weigend and R. Ahlrichs, Phys. Chem. Chem. Phys. 7, 3297 (2005).

----- AuxJ basis set information -----
Your calculation utilizes the auxiliary basis: def2/J
   F. Weigend, Phys. Chem. Chem. Phys. 8, 1057 (2006).

================================================================================
                                        WARNINGS
                       Please study these warnings very carefully!
================================================================================


================================================================================
                                       INPUT FILE
================================================================================
NAME = sp.inp
|  1> ! pbe def2-sv(p) def2/J RI DEFGRID1 loosescf d4 GCP(DFT/SV(P)) printgap
|  2> %output
|  3>     printlevel normal
|  4> end
|  5> * xyz 0 1
|  6> C 1.7465762854 1.226629639 0.2145161433
|  7> C 1.3265381813 -0.1163829161 -0.3812093279
|  8> C 1.722697431 -1.2761477414 0.5400594709
|  9> O -0.0363825184 -0.1827557017 -0.7981666989
| 10> C -1.0751954765 0.3800664782 -0.0007680236
| 11> C -2.3087703801 0.3856176383 -0.9036617781
| 12> C -1.3604924832 -0.399935039 1.2849576121
| 13> H 1.4416887679 2.0438218617 -0.4351948184
| 14> H 1.3118756975 1.3729232411 1.2005852518
| 15> H 2.8281918909 1.2427210826 0.3095668562
| 16> H 1.8532751251 -0.253079239 -1.336085335
| 17> H 2.8051740485 -1.3680058413 0.5550410634
| 18> H 1.2970019573 -2.2027313553 0.1637773939
| 19> H 1.3750834746 -1.1168446338 1.5562665568
| 20> H -0.8207164662 1.4191665073 0.2550089542
| 21> H -2.5905306721 -0.6362383678 -1.1416311844
| 22> H -3.1354955538 0.8825859039 -0.4059894864
| 23> H -2.082399809 0.9046175541 -1.8308263382
| 24> H -0.5762967227 -0.2541062243 2.0222147021
| 25> H -1.4431608766 -1.460517859 1.0616333609
| 26> H -2.2981279274 -0.0548101631 1.7116795427
| 27> *
| 28> 
| 29>                          ****END OF INPUT****
================================================================================

                       ****************************
                       * Single Point Calculation *
                       ****************************

---------------------------------
CARTESIAN COORDINATES (ANGSTROEM)
---------------------------------
  C      1.746576    1.226630    0.214516
  C      1.326538   -0.116383   -0.381209
  C      1.722697   -1.276148    0.540059
  O     -0.036383   -0.182756   -0.798167
  C     -1.075195    0.380066   -0.000768
  C     -2.308770    0.385618   -0.903662
  C     -1.360492   -0.399935    1.284958
  H      1.441689    2.043822   -0.435195
  H      1.311876    1.372923    1.200585
  H      2.828192    1.242721    0.309567
  H      1.853275   -0.253079   -1.336085
  H      2.805174   -1.368006    0.555041
  H      1.297002   -2.202731    0.163777
  H      1.375083   -1.116845    1.556267
  H     -0.820716    1.419167    0.255009
  H     -2.590531   -0.636238   -1.141631
  H     -3.135496    0.882586   -0.405989
  H     -2.082400    0.904618   -1.830826
  H     -0.576297   -0.254106    2.022215
  H     -1.443161   -1.460518    1.061633
  H     -2.298128   -0.054810    1.711680

----------------------------
CARTESIAN COORDINATES (A.U.)
----------------------------
  NO LB      ZA    FRAG     MASS         X           Y           Z
   0 C     6.0000    0    12.011    3.300551    2.317994    0.405377
   1 C     6.0000    0    12.011    2.506794   -0.219932   -0.720381
   2 C     6.0000    0    12.011    3.255426   -2.411570    1.020564
   3 O     8.0000    0    15.999   -0.068753   -0.345358   -1.508316
   4 C     6.0000    0    12.011   -2.031825    0.718222   -0.001451
   5 C     6.0000    0    12.011   -4.362944    0.728712   -1.707673
   6 C     6.0000    0    12.011   -2.570958   -0.755768    2.428218
   7 H     1.0000    0     1.008    2.724397    3.862264   -0.822399
   8 H     1.0000    0     1.008    2.479086    2.594449    2.268777
   9 H     1.0000    0     1.008    5.344508    2.348403    0.584997
  10 H     1.0000    0     1.008    3.502182   -0.478250   -2.524835
  11 H     1.0000    0     1.008    5.301011   -2.585156    1.048876
  12 H     1.0000    0     1.008    2.450978   -4.162559    0.309494
  13 H     1.0000    0     1.008    2.598531   -2.110530    2.940918
  14 H     1.0000    0     1.008   -1.550929    2.681836    0.481897
  15 H     1.0000    0     1.008   -4.895394   -1.202316   -2.157370
  16 H     1.0000    0     1.008   -5.925228    1.667846   -0.767209
  17 H     1.0000    0     1.008   -3.935165    1.709479   -3.459760
  18 H     1.0000    0     1.008   -1.089043   -0.480191    3.821432
  19 H     1.0000    0     1.008   -2.727179   -2.759979    2.006196
  20 H     1.0000    0     1.008   -4.342832   -0.103576    3.234606

--------------------------------
INTERNAL COORDINATES (ANGSTROEM)
--------------------------------
 C      0   0   0     0.000000000000     0.00000000     0.00000000
 C      1   0   0     1.528071846835     0.00000000     0.00000000
 C      2   1   0     1.533209966302   111.07203688     0.00000000
 O      2   1   3     1.426818709427   114.66941174   129.31763426
 C      4   2   1     1.425393214336   120.95102168   318.03308371
 C      5   4   2     1.528710237450   105.01746390   167.91688452
 C      5   4   2     1.530649260661   113.86195682   288.72451787
 H      1   2   3     1.087604643665   110.51335031   181.26246715
 H      1   2   3     1.087519519767   111.21328511   302.69433691
 H      1   2   3     1.085903260259   108.72003346    62.05564501
 H      2   1   3     1.099056814543   108.43834339   241.83408068
 H      3   2   1     1.086470425767   109.24907122   291.54171858
 H      3   2   1     1.086904794059   109.61111664   172.36396804
 H      3   2   1     1.085766910625   111.63387969    51.63407665
 H      5   4   2     1.099959226304   109.54115427    51.33736069
 H      6   5   4     1.086373783596   109.58753409    64.49655515
 H      6   5   4     1.085416823054   110.21073965   185.04564164
 H      6   5   4     1.086387900138   109.73403212   305.51689942
 H      7   5   4     1.086175423557   111.54100902    73.47354867
 H      7   5   4     1.086988363563   109.80424890   312.54780477
 H      7   5   4     1.086445126198   109.20218139   193.12790665

---------------------------
INTERNAL COORDINATES (A.U.)
---------------------------
 C      0   0   0     0.000000000000     0.00000000     0.00000000
 C      1   0   0     2.887637303473     0.00000000     0.00000000
 C      2   1   0     2.897346942110   111.07203688     0.00000000
 O      2   1   3     2.696296603572   114.66941174   129.31763426
 C      4   2   1     2.693602808244   120.95102168   318.03308371
 C      5   4   2     2.888843686903   105.01746390   167.91688452
 C      5   4   2     2.892507909739   113.86195682   288.72451787
 H      1   2   3     2.055274918508   110.51335031   181.26246715
 H      1   2   3     2.055114057653   111.21328511   302.69433691
 H      1   2   3     2.052059769822   108.72003346    62.05564501
 H      2   1   3     2.076916385106   108.43834339   241.83408068
 H      3   2   1     2.053131557304   109.24907122   291.54171858
 H      3   2   1     2.053952394417   109.61111664   172.36396804
 H      3   2   1     2.051802106355   111.63387969    51.63407665
 H      5   4   2     2.078621696195   109.54115427    51.33736069
 H      6   5   4     2.052948930069   109.58753409    64.49655515
 H      6   5   4     2.051140536723   110.21073965   185.04564164
 H      6   5   4     2.052975606466   109.73403212   305.51689942
 H      7   5   4     2.052574083918   111.54100902    73.47354867
 H      7   5   4     2.054110317893   109.80424890   312.54780477
 H      7   5   4     2.053083748048   109.20218139   193.12790665

---------------------
BASIS SET INFORMATION
---------------------
There are 3 groups of distinct atoms

 Group   1 Type C   : 7s4p1d contracted to 3s2p1d pattern {511/31/1}
 Group   2 Type O   : 7s4p1d contracted to 3s2p1d pattern {511/31/1}
 Group   3 Type H   : 4s contracted to 2s pattern {31}

Atom   0C    basis set group =>   1
Atom   1C    basis set group =>   1
Atom   2C    basis set group =>   1
Atom   3O    basis set group =>   2
Atom   4C    basis set group =>   1
Atom   5C    basis set group =>   1
Atom   6C    basis set group =>   1
Atom   7H    basis set group =>   3
Atom   8H    basis set group =>   3
Atom   9H    basis set group =>   3
Atom  10H    basis set group =>   3
Atom  11H    basis set group =>   3
Atom  12H    basis set group =>   3
Atom  13H    basis set group =>   3
Atom  14H    basis set group =>   3
Atom  15H    basis set group =>   3
Atom  16H    basis set group =>   3
Atom  17H    basis set group =>   3
Atom  18H    basis set group =>   3
Atom  19H    basis set group =>   3
Atom  20H    basis set group =>   3
---------------------------------
AUXILIARY/J BASIS SET INFORMATION
---------------------------------
There are 3 groups of distinct atoms

 Group   1 Type C   : 12s5p4d2f1g contracted to 6s4p3d1f1g pattern {711111/2111/211/2/1}
 Group   2 Type O   : 12s5p4d2f1g contracted to 6s4p3d1f1g pattern {711111/2111/211/2/1}
 Group   3 Type H   : 5s2p1d contracted to 3s1p1d pattern {311/2/1}

Atom   0C    basis set group =>   1
Atom   1C    basis set group =>   1
Atom   2C    basis set group =>   1
Atom   3O    basis set group =>   2
Atom   4C    basis set group =>   1
Atom   5C    basis set group =>   1
Atom   6C    basis set group =>   1
Atom   7H    basis set group =>   3
Atom   8H    basis set group =>   3
Atom   9H    basis set group =>   3
Atom  10H    basis set group =>   3
Atom  11H    basis set group =>   3
Atom  12H    basis set group =>   3
Atom  13H    basis set group =>   3
Atom  14H    basis set group =>   3
Atom  15H    basis set group =>   3
Atom  16H    basis set group =>   3
Atom  17H    basis set group =>   3
Atom  18H    basis set group =>   3
Atom  19H    basis set group =>   3
Atom  20H    basis set group =>   3
------------------------------------------------------------------------------
                             ORCA STARTUP CALCULATIONS
                           -- RI-GTO INTEGRALS CHOSEN --
------------------------------------------------------------------------------
------------------------------------------------------------------------------
                   ___                                                        
                  /   \      - P O W E R E D   B Y -                         
                 /     \                                                     
                 |  |  |   _    _      __       _____    __    __             
                 |  |  |  | |  | |    /  \     |  _  \  |  |  /  |          
                  \  \/   | |  | |   /    \    | | | |  |  | /  /          
                 / \  \   | |__| |  /  /\  \   | |_| |  |  |/  /          
                |  |  |   |  __  | /  /__\  \  |    /   |      \           
                |  |  |   | |  | | |   __   |  |    \   |  |\   \          
                \     /   | |  | | |  |  |  |  | |\  \  |  | \   \       
                 \___/    |_|  |_| |__|  |__|  |_| \__\ |__|  \__/        
                                                                              
                      - O R C A' S   B I G   F R I E N D -                    
                                      &                                       
                       - I N T E G R A L  F E E D E R -                       
                                                                              
 v1 FN, 2020, v2 2021, v3 2022-2024                                           
------------------------------------------------------------------------------


----------------------
SHARK INTEGRAL PACKAGE
----------------------

Number of atoms                             ...     21
Number of basis functions                   ...    126
Number of shells                            ...     70
Maximum angular momentum                    ...      2
Integral batch strategy                     ... SHARK/LIBINT Hybrid
RI-J (if used) integral strategy            ... SPLIT-RIJ (Revised 2003 algorithm where possible)
Printlevel                                  ...      1
Contraction scheme used                     ... SEGMENTED contraction
Prescreening option                         ... SCHWARTZ
   Thresh                                   ... 1.000e-09
   Tcut                                     ... 1.000e-10
   Tpresel                                  ... 1.000e-10 
Coulomb Range Separation                    ... NOT USED
Exchange Range Separation                   ... NOT USED
Multipole approximations                    ... NOT USED
Finite Nucleus Model                        ... NOT USED
CABS basis                                  ... NOT available
Auxiliary Coulomb fitting basis             ... AVAILABLE
   # of basis functions in Aux-J            ...    497
   # of shells in Aux-J                     ...    175
   Maximum angular momentum in Aux-J        ...      4
Auxiliary J/K fitting basis                 ... NOT available
Auxiliary Correlation fitting basis         ... NOT available
Auxiliary 'external' fitting basis          ... NOT available

Checking pre-screening integrals            ... done (  0.0 sec) Dimension = 70
Check shell pair data                       ... done (  0.0 sec)
Shell pair information
Shell pair cut-off parameter TPreSel        ...   1.0e-10
Total number of shell pairs                 ...      2485
Shell pairs after pre-screening             ...      2411
Total number of primitive shell pairs       ...     10003
Primitive shell pairs kept                  ...      6905
          la=0 lb=0:   1171 shell pairs
          la=1 lb=0:    679 shell pairs
          la=1 lb=1:    105 shell pairs
          la=2 lb=0:    331 shell pairs
          la=2 lb=1:     98 shell pairs
          la=2 lb=2:     27 shell pairs

Calculating one electron integrals          ... done (  0.0 sec)
Calculating RI/J V-Matrix + Cholesky decomp.... done (  0.1 sec)
Calculating Nuclear repulsion               ... done (  0.0 sec) ENN=    341.652708115129 Eh

Diagonalization of the overlap matrix:
Smallest eigenvalue                        ... 2.163e-03
Time for diagonalization                   ...    0.001 sec
Threshold for overlap eigenvalues          ... 1.000e-07
Number of eigenvalues below threshold      ... 0
Time for construction of square roots      ...    0.023 sec
Total time needed                          ...    0.032 sec

-------------------
DFT GRID GENERATION
-------------------

General Integration Accuracy     IntAcc      ... 4.159
Radial Grid Type                 RadialGrid  ... OptM3 with GC (2021)
Angular Grid (max. ang.)         AngularGrid ... 3 (Lebedev-194)
Angular grid pruning method      GridPruning ... 4 (adaptive)
Weight generation scheme         WeightScheme... mBecke (2022)
Basis function cutoff            BFCut       ... 1.0000e-10
Integration weight cutoff        WCut        ... 1.0000e-14
Partially contracted basis set               ... off
Rotationally invariant grid construction     ... off
Angular grids for H and He will be reduced by one unit

Total number of grid points                  ...    42263
Total number of batches                      ...      670
Average number of points per batch           ...       63
Average number of grid points per atom       ...     2013
Initializing property integral containers    ... done (  0.0 sec)

SHARK setup successfully completed in   0.7 seconds

Maximum memory used throughout the entire STARTUP-calculation: 20.9 MB
-------------------------------------------------------------------------------
                                 ORCA GUESS
                   Start orbitals & Density for SCF / CASSCF
-------------------------------------------------------------------------------

------------
SCF SETTINGS
------------
Hamiltonian:
 Density Functional     Method          .... DFT(GTOs)
 Exchange Functional    Exchange        .... PBE
   PBE kappa parameter   XKappa         ....  0.804000
   PBE mue parameter    XMuePBE         ....  0.219520
 Correlation Functional Correlation     .... PBE
   PBE beta parameter  CBetaPBE         ....  0.066725
 LDA part of GGA corr.  LDAOpt          .... PW91-LDA
 Gradients option       PostSCFGGA      .... off
   NL short-range parameter             ....  6.400000
 RI-approximation to the Coulomb term is turned on
   Number of AuxJ basis functions       .... 497


General Settings:
 Integral files         IntName         .... sp
 Hartree-Fock type      HFTyp           .... RHF
 Total Charge           Charge          ....    0
 Multiplicity           Mult            ....    1
 Number of Electrons    NEL             ....   58
 Basis Dimension        Dim             ....  126
 Nuclear Repulsion      ENuc            ....    341.6527081151 Eh

Convergence Acceleration:
 AO-DIIS                CNVDIIS         .... on
   Start iteration      DIISMaxIt       ....    12
   Startup error        DIISStart       ....  0.200000
   # of expansion vecs  DIISMaxEq       ....     5
   Bias factor          DIISBfac        ....   1.050
   Max. coefficient     DIISMaxC        ....  10.000
 MO-DIIS                CNVKDIIS        .... off
 Trust-Rad. Augm. Hess. CNVTRAH         .... auto
   Auto Start mean grad. ratio tolernc. ....  1.125000
   Auto Start start iteration           ....    50
   Auto Start num. interpolation iter.  ....    10
   Max. Number of Micro iterations      ....    24
   Max. Number of Macro iterations      .... Maxiter - #DIIS iter
   Number of Davidson start vectors     ....     2
   Converg. threshold    (grad. norm)   ....   1.000e-04
   Grad. Scal. Fac. for Micro threshold ....   0.100
   Minimum threshold for Micro iter.    ....   1.000e-02
   NR start threshold (gradient norm)   ....   1.000e-04
   Initial trust radius                 ....   0.400
   Minimum AH scaling param. (alpha)    ....   1.000
   Maximum AH scaling param. (alpha)    .... 1000.000
   Quad. conv. algorithm                .... NR
   White noise on init. David. guess    .... on
   Maximum white noise                  ....   0.010
   Pseudo random numbers                .... off
   Inactive MOs                         .... canonical
   Orbital update algorithm             .... Taylor
   Preconditioner                       .... Diag
   Full preconditioner red. dimension   ....   250
 SOSCF                  CNVSOSCF        .... on
   Start iteration      SOSCFMaxIt      ....   150
   Startup grad/error   SOSCFStart      ....  0.003300
   Hessian update       SOSCFHessUp     .... L-BFGS
 Level Shifting         CNVShift        .... on
   Level shift para.    LevelShift      ....    0.2500
   Turn off err/grad.   ShiftErr        ....    0.0010
 Zerner damping         CNVZerner       .... off
 Static damping         CNVDamp         .... on
   Fraction old density DampFac         ....    0.7000
   Max. Damping (<1)    DampMax         ....    0.9800
   Min. Damping (>=0)   DampMin         ....    0.0000
   Turn off err/grad.   DampErr         ....    0.1000

SCF Procedure:
 Maximum # iterations   MaxIter         ....   125
 SCF integral mode      SCFMode         .... Direct
   Integral package                     .... SHARK and LIBINT hybrid scheme
 Reset frequency        DirectResetFreq ....    20
 Integral Threshold     Thresh          ....  1.000e-09 Eh
 Primitive CutOff       TCut            ....  1.000e-10 Eh

Convergence Tolerance:
 Convergence Check Mode ConvCheckMode   .... Total+1el-Energy
 Convergence forced     ConvForced      .... 0
 Energy Change          TolE            ....  1.000e-05 Eh
 1-El. energy change                    ....  1.000e-02 Eh
 Orbital Gradient       TolG            ....  1.000e-04
 Orbital Rotation angle TolX            ....  1.000e-04
 DIIS Error             TolErr          ....  5.000e-04

------------------------------
INITIAL GUESS: MODEL POTENTIAL
------------------------------
Loading Hartree-Fock densities                     ... done
Calculating cut-offs                               ... done
Initializing the effective Hamiltonian             ... done
Setting up the integral package (SHARK)            ... done
Starting the Coulomb interaction                   ... done (   0.1 sec)
Making the grid                                    ... done (   0.2 sec)
Mapping shells                                     ... done
Starting the XC term evaluation                    ... done (   0.1 sec)
  promolecular density results
     # of electrons  =     57.993465084
     EX              =    -42.975665066
     EC              =     -1.892920423
     EX+EC           =    -44.868585490
Transforming the Hamiltonian                       ... done (   0.0 sec)
Diagonalizing the Hamiltonian                      ... done (   0.0 sec)
Back transforming the eigenvectors                 ... done (   0.0 sec)
Now organizing SCF variables                       ... done
                      ------------------
                      INITIAL GUESS DONE (   0.4 sec)
                      ------------------
             **** ENERGY FILE WAS UPDATED (sp.en.tmp) ****
Finished Guess after   0.6 sec
Maximum memory used throughout the entire GUESS-calculation: 15.8 MB

-------------------------------------------------------------------------------------------
                                      ORCA LEAN-SCF
                              memory conserving SCF solver
-------------------------------------------------------------------------------------------

----------------------------------------D-I-I-S--------------------------------------------
Iteration    Energy (Eh)           Delta-E    RMSDP     MaxDP     DIISErr   Damp  Time(sec)
-------------------------------------------------------------------------------------------
               ***  Starting incremental Fock matrix formation  ***
    1    -311.3747729247384655     0.00e+00  5.07e-03  8.38e-02  1.61e-01  0.700   0.6
    2    -311.4843041460833888    -1.10e-01  3.66e-03  4.85e-02  7.68e-02  0.700   0.7
                               ***Turning on AO-DIIS***
    3    -311.5227354582926296    -3.84e-02  1.39e-03  1.49e-02  2.24e-02  0.700   0.7
    4    -311.5449777433533995    -2.22e-02  1.94e-03  2.37e-02  1.22e-02  0.000   0.6
    5    -311.5953568100276811    -5.04e-02  6.13e-04  7.04e-03  7.10e-03  0.000   0.6
                              *** Initializing SOSCF ***
---------------------------------------S-O-S-C-F--------------------------------------
Iteration    Energy (Eh)           Delta-E    RMSDP     MaxDP     MaxGrad    Time(sec)
--------------------------------------------------------------------------------------
    6    -311.5958801437282659    -5.23e-04  2.13e-04  2.06e-03  1.92e-03     0.6
               *** Restarting incremental Fock matrix formation ***
    7    -311.5959278305758176    -4.77e-05  1.87e-04  2.98e-03  3.05e-04     0.6
    8    -311.5959243238226577     3.51e-06  7.05e-05  1.37e-03  6.58e-04     0.6
                 **** Energy Check signals convergence ****

               *****************************************************
               *                     SUCCESS                       *
               *           SCF CONVERGED AFTER   8 CYCLES          *
               *****************************************************

             **** ENERGY FILE WAS UPDATED (sp.en.tmp) ****

----------------
TOTAL SCF ENERGY
----------------

Total Energy       :       -311.59592432382266 Eh           -8478.95616 eV

Components:
Nuclear Repulsion  :        341.65270811512909 Eh            9296.84283 eV
Electronic Energy  :       -653.24863243895174 Eh          -17775.79899 eV
One Electron Energy:      -1098.26214980347186 Eh          -29885.23243 eV
Two Electron Energy:        445.01351736452011 Eh           12109.43344 eV

Virial components:
Potential Energy   :       -620.44387263047042 Eh          -16883.13610 eV
Kinetic Energy     :        308.84794830664771 Eh            8404.17993 eV
Virial Ratio       :          2.00889750452364

DFT components:
N(Alpha)           :       28.999937288984 electrons
N(Beta)            :       28.999937288984 electrons
N(Total)           :       57.999874577968 electrons
E(X)               :      -44.043484819600 Eh       
E(C)               :       -1.902777771320 Eh       
E(XC)              :      -45.946262590920 Eh       

---------------
SCF CONVERGENCE
---------------

  Last Energy change         ...   -3.5068e-06  Tolerance :   1.0000e-05
  Last MAX-Density change    ...    1.3742e-03  Tolerance :   1.0000e-03
  Last RMS-Density change    ...    7.0484e-05  Tolerance :   1.0000e-04
  Last DIIS Error            ...    1.9231e-03  Tolerance :   5.0000e-04
  Last Orbital Gradient      ...    6.5782e-04  Tolerance :   1.0000e-04
  Last Orbital Rotation      ...    3.2298e-04  Tolerance :   1.0000e-04


----------------
ORBITAL ENERGIES
----------------

  NO   OCC          E(Eh)            E(eV) 
   0   2.0000     -18.737619      -509.8765 
   1   2.0000      -9.936485      -270.3855 
   2   2.0000      -9.934855      -270.3411 
   3   2.0000      -9.877578      -268.7826 
   4   2.0000      -9.872096      -268.6334 
   5   2.0000      -9.870709      -268.5957 
   6   2.0000      -9.868086      -268.5243 
   7   2.0000      -0.917705       -24.9720 
   8   2.0000      -0.714800       -19.4507 
   9   2.0000      -0.673895       -18.3376 
  10   2.0000      -0.617126       -16.7929 
  11   2.0000      -0.610105       -16.6018 
  12   2.0000      -0.549266       -14.9463 
  13   2.0000      -0.484656       -13.1882 
  14   2.0000      -0.442684       -12.0460 
  15   2.0000      -0.416880       -11.3439 
  16   2.0000      -0.402723       -10.9587 
  17   2.0000      -0.373022       -10.1504 
  18   2.0000      -0.370858       -10.0916 
  19   2.0000      -0.356494        -9.7007 
  20   2.0000      -0.346803        -9.4370 
  21   2.0000      -0.340826        -9.2743 
  22   2.0000      -0.334546        -9.1035 
  23   2.0000      -0.318484        -8.6664 
  24   2.0000      -0.312241        -8.4965 
  25   2.0000      -0.297040        -8.0829 
  26   2.0000      -0.285418        -7.7666 
  27   2.0000      -0.242565        -6.6005 
  28   2.0000      -0.196906        -5.3581 
  29   0.0000       0.031725         0.8633 
  30   0.0000       0.058580         1.5941 
  31   0.0000       0.066039         1.7970 
  32   0.0000       0.070825         1.9272 
  33   0.0000       0.084131         2.2893 
  34   0.0000       0.101480         2.7614 
  35   0.0000       0.105556         2.8723 
  36   0.0000       0.112405         3.0587 
  37   0.0000       0.128859         3.5064 
  38   0.0000       0.131489         3.5780 
  39   0.0000       0.136677         3.7192 
*Only the first 10 virtual orbitals were printed.

                    ********************************
                    * MULLIKEN POPULATION ANALYSIS *
                    ********************************

-----------------------
MULLIKEN ATOMIC CHARGES
-----------------------
   0 C :   -0.290511
   1 C :    0.020366
   2 C :   -0.253093
   3 O :   -0.331661
   4 C :   -0.005489
   5 C :   -0.239777
   6 C :   -0.260760
   7 H :    0.114776
   8 H :    0.107267
   9 H :    0.106033
  10 H :    0.070804
  11 H :    0.094956
  12 H :    0.106310
  13 H :    0.095186
  14 H :    0.062852
  15 H :    0.099812
  16 H :    0.093999
  17 H :    0.103771
  18 H :    0.107118
  19 H :    0.101504
  20 H :    0.096538
Sum of atomic charges:   -0.0000000

--------------------------------
MULLIKEN REDUCED ORBITAL CHARGES
--------------------------------
  0 C s       :     3.098198  s :     3.098198
      pz      :     1.065581  p :     3.164279
      px      :     1.054952
      py      :     1.043745
      dz2     :     0.006463  d :     0.028034
      dxz     :     0.003302
      dyz     :     0.007315
      dx2y2   :     0.008211
      dxy     :     0.002743

  1 C s       :     3.068269  s :     3.068269
      pz      :     1.030960  p :     2.841687
      px      :     0.794459
      py      :     1.016268
      dz2     :     0.010946  d :     0.069678
      dxz     :     0.017377
      dyz     :     0.009164
      dx2y2   :     0.017613
      dxy     :     0.014578

  2 C s       :     3.072866  s :     3.072866
      pz      :     1.059214  p :     3.152496
      px      :     1.040708
      py      :     1.052575
      dz2     :     0.009027  d :     0.027731
      dxz     :     0.002633
      dyz     :     0.004777
      dx2y2   :     0.008014
      dxy     :     0.003280

  3 O s       :     3.770065  s :     3.770065
      pz      :     1.622411  p :     4.547310
      px      :     1.179244
      py      :     1.745656
      dz2     :     0.002013  d :     0.014285
      dxz     :     0.004854
      dyz     :     0.002037
      dx2y2   :     0.002961
      dxy     :     0.002421

  4 C s       :     3.080038  s :     3.080038
      pz      :     0.962617  p :     2.855871
      px      :     0.891044
      py      :     1.002211
      dz2     :     0.013064  d :     0.069580
      dxz     :     0.018490
      dyz     :     0.011387
      dx2y2   :     0.014932
      dxy     :     0.011707

  5 C s       :     3.078227  s :     3.078227
      pz      :     1.045800  p :     3.133888
      px      :     1.016894
      py      :     1.071193
      dz2     :     0.004915  d :     0.027663
      dxz     :     0.006157
      dyz     :     0.005879
      dx2y2   :     0.005331
      dxy     :     0.005381

  6 C s       :     3.075954  s :     3.075954
      pz      :     1.040125  p :     3.157016
      px      :     1.050918
      py      :     1.065974
      dz2     :     0.005031  d :     0.027790
      dxz     :     0.008784
      dyz     :     0.003881
      dx2y2   :     0.007774
      dxy     :     0.002320

  7 H s       :     0.885224  s :     0.885224

  8 H s       :     0.892733  s :     0.892733

  9 H s       :     0.893967  s :     0.893967

 10 H s       :     0.929196  s :     0.929196

 11 H s       :     0.905044  s :     0.905044

 12 H s       :     0.893690  s :     0.893690

 13 H s       :     0.904814  s :     0.904814

 14 H s       :     0.937148  s :     0.937148

 15 H s       :     0.900188  s :     0.900188

 16 H s       :     0.906001  s :     0.906001

 17 H s       :     0.896229  s :     0.896229

 18 H s       :     0.892882  s :     0.892882

 19 H s       :     0.898496  s :     0.898496

 20 H s       :     0.903462  s :     0.903462


------------------------
MULLIKEN OVERLAP CHARGES
------------------------
B(  0-C ,  1-C ) :   0.8301 B(  0-C ,  2-C ) :  -0.1990 B(  0-C ,  3-O ) :  -0.1066 
B(  0-C ,  7-H ) :   0.6947 B(  0-C ,  8-H ) :   0.7437 B(  0-C ,  9-H ) :   0.6926 
B(  0-C , 10-H ) :  -0.0604 B(  0-C , 14-H ) :   0.0622 B(  1-C ,  2-C ) :   0.8261 
B(  1-C ,  3-O ) :   0.7038 B(  1-C ,  4-C ) :  -0.1113 B(  1-C , 10-H ) :   0.7149 
B(  2-C ,  3-O ) :  -0.1426 B(  2-C , 10-H ) :  -0.0954 B(  2-C , 11-H ) :   0.6499 
B(  2-C , 12-H ) :   0.6935 B(  2-C , 13-H ) :   0.7260 B(  3-O ,  4-C ) :   0.6709 
B(  3-O ,  5-C ) :  -0.1419 B(  3-O ,  6-C ) :  -0.1405 B(  3-O , 10-H ) :  -0.0702 
B(  3-O , 14-H ) :  -0.0726 B(  4-C ,  5-C ) :   0.8559 B(  4-C ,  6-C ) :   0.7657 
B(  4-C , 14-H ) :   0.7259 B(  5-C ,  6-C ) :  -0.1243 B(  5-C , 14-H ) :  -0.0831 
B(  5-C , 15-H ) :   0.7254 B(  5-C , 16-H ) :   0.6926 B(  5-C , 17-H ) :   0.7035 
B(  6-C , 14-H ) :  -0.1559 B(  6-C , 18-H ) :   0.7190 B(  6-C , 19-H ) :   0.6819 
B(  6-C , 20-H ) :   0.6569 B(  7-H ,  8-H ) :  -0.0584 B( 12-H , 13-H ) :  -0.0505 
B( 18-H , 19-H ) :  -0.0521 


                     *******************************
                     * LOEWDIN POPULATION ANALYSIS *
                     *******************************

----------------------
LOEWDIN ATOMIC CHARGES
----------------------
   0 C :   -0.351211
   1 C :   -0.050150
   2 C :   -0.352007
   3 O :   -0.166378
   4 C :   -0.049355
   5 C :   -0.338727
   6 C :   -0.352368
   7 H :    0.123642
   8 H :    0.118570
   9 H :    0.127760
  10 H :    0.111525
  11 H :    0.121530
  12 H :    0.122982
  13 H :    0.115210
  14 H :    0.096840
  15 H :    0.121215
  16 H :    0.119130
  17 H :    0.121590
  18 H :    0.114376
  19 H :    0.123088
  20 H :    0.122740

-------------------------------
LOEWDIN REDUCED ORBITAL CHARGES
-------------------------------
  0 C s       :     2.952843  s :     2.952843
      pz      :     1.120219  p :     3.329195
      px      :     1.119386
      py      :     1.089590
      dz2     :     0.015299  d :     0.069172
      dxz     :     0.008316
      dyz     :     0.017788
      dx2y2   :     0.020850
      dxy     :     0.006919

  1 C s       :     2.881560  s :     2.881560
      pz      :     1.083568  p :     3.010710
      px      :     0.861916
      py      :     1.065226
      dz2     :     0.022298  d :     0.157880
      dxz     :     0.038584
      dyz     :     0.025428
      dx2y2   :     0.040574
      dxy     :     0.030996

  2 C s       :     2.958538  s :     2.958538
      pz      :     1.111557  p :     3.325006
      px      :     1.116422
      py      :     1.097028
      dz2     :     0.020621  d :     0.068463
      dxz     :     0.006622
      dyz     :     0.013440
      dx2y2   :     0.019538
      dxy     :     0.008242

  3 O s       :     3.474535  s :     3.474535
      pz      :     1.649549  p :     4.664096
      px      :     1.248037
      py      :     1.766509
      dz2     :     0.003430  d :     0.027747
      dxz     :     0.009727
      dyz     :     0.002795
      dx2y2   :     0.006729
      dxy     :     0.005066

  4 C s       :     2.884722  s :     2.884722
      pz      :     1.015132  p :     3.006559
      px      :     0.941798
      py      :     1.049629
      dz2     :     0.028122  d :     0.158075
      dxz     :     0.044521
      dyz     :     0.027982
      dx2y2   :     0.033600
      dxy     :     0.023850

  5 C s       :     2.955367  s :     2.955367
      pz      :     1.102204  p :     3.314880
      px      :     1.083706
      py      :     1.128970
      dz2     :     0.011601  d :     0.068480
      dxz     :     0.017021
      dyz     :     0.013730
      dx2y2   :     0.014079
      dxy     :     0.012048

  6 C s       :     2.958129  s :     2.958129
      pz      :     1.088863  p :     3.325336
      px      :     1.115948
      py      :     1.120525
      dz2     :     0.012211  d :     0.068904
      dxz     :     0.021262
      dyz     :     0.010859
      dx2y2   :     0.019176
      dxy     :     0.005396

  7 H s       :     0.876358  s :     0.876358

  8 H s       :     0.881430  s :     0.881430

  9 H s       :     0.872240  s :     0.872240

 10 H s       :     0.888475  s :     0.888475

 11 H s       :     0.878470  s :     0.878470

 12 H s       :     0.877018  s :     0.877018

 13 H s       :     0.884790  s :     0.884790

 14 H s       :     0.903160  s :     0.903160

 15 H s       :     0.878785  s :     0.878785

 16 H s       :     0.880870  s :     0.880870

 17 H s       :     0.878410  s :     0.878410

 18 H s       :     0.885624  s :     0.885624

 19 H s       :     0.876912  s :     0.876912

 20 H s       :     0.877260  s :     0.877260


---------------------------------
LOEWDIN BOND ORDERS (THRESH 0.050000)
---------------------------------
B(  0-C ,  1-C ) :   1.1051 B(  0-C ,  2-C ) :   0.0570 B(  0-C ,  3-O ) :   0.0550 
B(  0-C ,  7-H ) :   0.9327 B(  0-C ,  8-H ) :   0.9332 B(  0-C ,  9-H ) :   0.9282 
B(  1-C ,  2-C ) :   1.1012 B(  1-C ,  3-O ) :   1.1450 B(  1-C ,  4-C ) :   0.0557 
B(  1-C , 10-H ) :   0.8843 B(  2-C ,  3-O ) :   0.0666 B(  2-C , 11-H ) :   0.9306 
B(  2-C , 12-H ) :   0.9339 B(  2-C , 13-H ) :   0.9324 B(  3-O ,  4-C ) :   1.1347 
B(  3-O ,  5-C ) :   0.0632 B(  3-O ,  6-C ) :   0.0644 B(  4-C ,  5-C ) :   1.1059 
B(  4-C ,  6-C ) :   1.1020 B(  4-C , 14-H ) :   0.8756 B(  5-C ,  6-C ) :   0.0575 
B(  5-C , 15-H ) :   0.9353 B(  5-C , 16-H ) :   0.9342 B(  5-C , 17-H ) :   0.9354 
B(  6-C , 18-H ) :   0.9311 B(  6-C , 19-H ) :   0.9337 B(  6-C , 20-H ) :   0.9280 


------------------------------------------
LOEWDIN REDUCED ORBITAL POPULATIONS PER MO
-------------------------------------------
THRESHOLD FOR PRINTING IS 0.1%%
                      0         1         2         3         4         5   
                 -18.73762  -9.93648  -9.93485  -9.87758  -9.87210  -9.87071
                   2.00000   2.00000   2.00000   2.00000   2.00000   2.00000
                  --------  --------  --------  --------  --------  --------
 0 C  s               0.0       0.0       0.0      99.7       0.0       0.0
 1 C  s               0.0      99.6       0.0       0.0       0.0       0.0
 2 C  s               0.0       0.0       0.0       0.0       0.1      99.6
 3 O  s              99.9       0.0       0.0       0.0       0.0       0.0
 4 C  s               0.0       0.0      99.6       0.0       0.0       0.0
 6 C  s               0.0       0.0       0.0       0.0      99.6       0.1

                      6         7         8         9        10        11   
                  -9.86809  -0.91770  -0.71480  -0.67390  -0.61713  -0.61011
                   2.00000   2.00000   2.00000   2.00000   2.00000   2.00000
                  --------  --------  --------  --------  --------  --------
 0 C  s               0.0       0.7       7.5      10.8      20.7       2.0
 0 C  pz              0.0       0.2       0.2       0.0       0.0       0.0
 0 C  px              0.0       0.3       0.0       0.0       0.0       0.0
 0 C  py              0.0       0.6       1.4       0.6       0.5       0.2
 1 C  s               0.0       8.9      15.3       4.8       0.0       0.1
 1 C  pz              0.0       0.4       0.3       3.0       0.1       0.1
 1 C  px              0.0       6.9       0.6       4.6       0.1       0.3
 1 C  py              0.0       0.0       0.0       0.1      13.2       2.4
 1 C  dz2             0.0       0.1       0.0       0.0       0.0       0.0
 1 C  dxz             0.0       0.1       0.0       0.0       0.0       0.0
 1 C  dyz             0.0       0.0       0.0       0.0       0.2       0.1
 1 C  dx2y2           0.0       0.4       0.0       0.3       0.0       0.0
 2 C  s               0.0       0.6       7.4       8.5      17.0       5.9
 2 C  pz              0.0       0.3       0.6       0.0       0.0       0.0
 2 C  px              0.0       0.2       0.1       0.0       0.0       0.1
 2 C  py              0.0       0.4       1.1       0.6       0.4       0.1
 3 O  s               0.0      53.3       0.0       7.3       0.0       0.0
 3 O  pz              0.0       1.9       0.1       0.2       0.0       0.2
 3 O  px              0.0       0.1       8.9       0.1       0.2       0.2
 3 O  py              0.0       0.5       0.3       0.0       0.6       0.0
 4 C  s               0.0       8.9      14.1       5.9       0.0       0.0
 4 C  pz              0.0       2.0       0.0       2.1       2.0       9.9
 4 C  px              0.1       4.1       1.4       3.8       0.0       2.5
 4 C  py              0.0       1.2       0.2       0.0       0.7       1.0
 4 C  dxz             0.0       0.3       0.0       0.1       0.0       0.2
 4 C  dxy             0.0       0.2       0.0       0.1       0.0       0.0
 5 C  s              99.7       0.7       8.4       6.8       2.4      20.0
 5 C  pz              0.0       0.1       0.7       0.7       0.1       0.3
 5 C  px              0.0       1.0       1.1       0.1       0.0       0.1
 6 C  s               0.0       0.6       6.6      11.3       4.8      17.7
 6 C  pz              0.0       0.7       1.3       0.3       0.1       0.5
 6 C  px              0.0       0.1       0.0       0.0       0.0       0.1
 6 C  py              0.0       0.1       0.4       0.3       0.1       0.0
 7 H  s               0.0       0.1       1.3       2.0       6.1       0.7
 8 H  s               0.0       0.1       1.3       2.6       5.1       0.6
 9 H  s               0.0       0.1       1.5       2.7       5.4       0.4
10 H  s               0.0       1.2       3.1       0.9       0.0       0.1
11 H  s               0.0       0.1       1.4       2.0       4.2       1.7
12 H  s               0.0       0.1       1.3       1.5       5.0       1.5
13 H  s               0.0       0.1       1.3       2.2       4.4       1.1
14 H  s               0.0       1.1       2.1       1.7       0.2       0.0
15 H  s               0.1       0.1       1.6       1.4       0.5       4.9
16 H  s               0.1       0.1       1.5       1.7       0.6       5.1
17 H  s               0.1       0.1       1.5       1.1       0.7       5.8
18 H  s               0.0       0.1       1.0       2.6       1.5       5.4
19 H  s               0.0       0.1       1.2       2.3       1.4       4.3
20 H  s               0.0       0.1       1.4       2.7       1.2       4.4

                     12        13        14        15        16        17   
                  -0.54927  -0.48466  -0.44268  -0.41688  -0.40272  -0.37302
                   2.00000   2.00000   2.00000   2.00000   2.00000   2.00000
                  --------  --------  --------  --------  --------  --------
 0 C  s               1.9       2.1       0.1       0.5       0.3       0.0
 0 C  pz              1.4       1.5       2.4       2.6       2.5      17.3
 0 C  px              0.1       0.7       5.6       1.9       0.2       9.4
 0 C  py              0.9       3.0       2.7      13.8       1.3       1.8
 0 C  dx2y2           0.0       0.0       0.0       0.1       0.0       0.2
 1 C  s               6.2       4.4       1.5       2.1       0.0       0.1
 1 C  pz              6.7       0.9       1.8      16.6       0.4       1.2
 1 C  px              0.8       1.2      16.4       0.1       2.0       0.1
 1 C  py              0.0       0.0       0.1       0.4       3.3       3.3
 1 C  dxz             0.0       0.1       0.1       0.0       0.0       0.2
 1 C  dx2y2           0.1       0.0       0.0       0.0       0.0       0.2
 2 C  s               5.4       0.6       0.3       0.7       0.0       0.1
 2 C  pz              2.2       2.0       3.7       0.4       1.2       0.1
 2 C  px              0.4       0.0       2.8       2.3       3.2       1.5
 2 C  py              0.7       1.2       1.4      14.5       0.0       4.5
 3 O  s               0.0       3.4       0.0       1.3       0.0       2.6
 3 O  pz              1.4       0.6       0.5       8.1       1.4       2.4
 3 O  px             18.7       1.1      12.8       0.7       1.5       0.0
 3 O  py              1.2       1.7       0.2       0.1       8.3       1.2
 3 O  dxz             0.1       0.0       0.1       0.0       0.0       0.0
 4 C  s               3.9       9.3       0.2       0.1       0.8       0.1
 4 C  pz              0.8       2.6       3.5       0.1       3.7       0.3
 4 C  px              4.9       0.1       0.2       2.0       5.3       1.0
 4 C  py              0.2      11.4       8.9       2.0       6.4       1.7
 4 C  dxz             0.1       0.0       0.0       0.0       0.0       0.0
 4 C  dyz             0.1       0.0       0.0       0.0       0.0       0.0
 5 C  s               5.9       1.5       0.4       0.3       0.1       0.1
 5 C  pz              0.1       3.2       0.0       1.3      10.0       1.0
 5 C  px              3.0       2.2       3.0       0.7       0.3       0.0
 5 C  py              0.0       1.8       3.2       0.6       4.7       3.7
 5 C  dxz             0.1       0.1       0.1       0.0       0.1       0.0
 6 C  s               3.0       1.7       0.1       0.0       0.7       0.0
 6 C  pz              0.9       2.2       1.3       0.1      18.6       3.7
 6 C  px              0.9       0.1       0.5       3.4       1.1       5.9
 6 C  py              0.2       6.4       2.2       0.6       0.4       3.5
 6 C  dyz             0.0       0.2       0.0       0.0       0.1       0.0
 7 H  s               0.6       1.0       0.6       6.4       0.0       8.6
 8 H  s               1.6       1.6       3.1       0.2       1.2       2.6
 9 H  s               1.0       1.7       1.1       1.7       0.4       5.9
10 H  s               4.2       3.6       6.3       1.7       0.6       0.5
11 H  s               2.5       0.2       0.3       2.8       1.4       0.4
12 H  s               1.5       0.6       0.8       5.0       0.5       2.4
13 H  s               2.8       1.3       2.6       0.3       0.3       0.2
14 H  s               1.5      12.3       3.8       0.7       0.9       0.0
15 H  s               2.3       3.1       0.1       1.0       0.5       2.5
16 H  s               3.4       0.4       2.5       0.0       0.1       0.7
17 H  s               1.7       1.1       0.5       0.2       6.8       0.0
18 H  s               0.7       1.2       0.8       0.4       7.7       0.0
19 H  s               1.1       3.5       1.1       0.1       0.1       1.9
20 H  s               2.1       0.7       0.0       1.7       0.8       6.3

                     18        19        20        21        22        23   
                  -0.37086  -0.35649  -0.34680  -0.34083  -0.33455  -0.31848
                   2.00000   2.00000   2.00000   2.00000   2.00000   2.00000
                  --------  --------  --------  --------  --------  --------
 0 C  pz              2.5       2.5       4.9       0.4       7.1       0.3
 0 C  px              4.2       8.4      14.0       0.0       0.2       7.2
 0 C  py              2.8       0.1       0.4       0.0       0.1       0.7
 0 C  dz2             0.0       0.1       0.1       0.0       0.1       0.1
 0 C  dx2y2           0.1       0.1       0.1       0.0       0.0       0.2
 1 C  s               0.0       0.5       0.0       0.0       0.2       0.1
 1 C  pz              0.5       0.6       0.0       1.7       3.7       1.1
 1 C  px              0.4       0.3       0.1       0.0       0.3       3.4
 1 C  py             11.3       1.0       0.3       0.0       0.0       0.4
 1 C  dz2             0.0       0.0       0.0       0.1       0.1       0.2
 1 C  dxz             0.1       0.0       0.0       0.0       0.1       0.1
 1 C  dx2y2           0.0       0.2       0.0       0.0       0.2       0.1
 1 C  dxy             0.0       0.0       0.3       0.0       0.0       0.0
 2 C  s               0.2       0.0       0.0       0.0       0.1       0.0
 2 C  pz             13.0       2.1      10.9       6.7       3.9       0.1
 2 C  px              4.1       8.5      15.3       0.8      10.0       1.2
 2 C  py              0.5       0.0       0.3       0.4       0.6       0.7
 2 C  dz2             0.0       0.0       0.2       0.2       0.0       0.1
 2 C  dx2y2           0.1       0.2       0.1       0.0       0.3       0.0
 3 O  s               0.2       0.4       0.0       0.0       0.0       0.5
 3 O  pz              0.5       1.4       0.3       5.8       3.5       3.7
 3 O  px              0.3       0.1       0.2       0.4       3.7       6.9
 3 O  py              3.6       0.0       0.3       0.7       0.3       0.8
 4 C  s               0.1       0.0       0.1       0.2       0.2       0.1
 4 C  pz              0.7       7.6       0.5       0.2       0.3       2.5
 4 C  px              2.1       2.6       1.7       2.1       1.5       0.7
 4 C  py              0.1       1.0       0.2       0.1       0.2       0.7
 4 C  dz2             0.0       0.0       0.0       0.2       0.0       0.0
 4 C  dxz             0.1       0.0       0.0       0.1       0.2       0.0
 4 C  dyz             0.0       0.0       0.0       0.0       0.1       0.0
 4 C  dx2y2           0.1       0.0       0.0       0.0       0.1       0.1
 4 C  dxy             0.0       0.0       0.0       0.1       0.0       0.1
 5 C  s               0.1       0.1       0.0       0.0       0.0       0.0
 5 C  pz              5.8       0.7       1.2       2.0       0.0      16.2
 5 C  px              0.1      16.8       1.3       7.0       1.6       1.7
 5 C  py              1.0       0.4       5.8      18.4       0.9       1.2
 5 C  dxz             0.0       0.1       0.0       0.2       0.0       0.0
 5 C  dx2y2           0.0       0.0       0.1       0.1       0.0       0.2
 5 C  dxy             0.0       0.0       0.0       0.2       0.0       0.2
 6 C  s               0.0       0.0       0.0       0.0       0.0       0.1
 6 C  pz              0.3       0.2       0.3       1.0       5.7       3.5
 6 C  px             17.0       7.3       0.5       1.3       6.5       4.4
 6 C  py              0.1       5.8       2.0      11.8      11.0       0.2
 6 C  dxz             0.1       0.0       0.0       0.1       0.1       0.2
 6 C  dx2y2           0.0       0.0       0.0       0.1       0.4       0.1
 7 H  s               0.0       0.0       0.0       0.1       1.1       0.8
 8 H  s               0.8       3.7       7.0       0.4       4.1       2.5
 9 H  s               2.7       4.2       6.4       0.0       0.1       5.4
10 H  s               1.0       0.0       0.0       0.8       0.9       3.2
11 H  s               2.4       5.0       8.0       0.6       5.2       1.2
12 H  s               2.5       1.6       0.0       0.8       4.2       0.1
13 H  s               3.7       0.1      10.3       5.2       0.7       1.1
14 H  s               0.6       0.1       0.1       0.0       0.5       1.2
15 H  s               0.0       1.3       4.1       7.1       0.6       1.7
16 H  s               0.2       6.1       0.2      11.9       0.3       8.2
17 H  s               3.4       1.4       0.1       0.0       0.2       6.6
18 H  s               5.1       1.5       0.0       3.0       0.0       5.8
19 H  s               0.1       3.6       1.0       7.4       7.5       1.1
20 H  s               5.1       1.5       0.9       0.0      11.0       0.6

                     24        25        26        27        28        29   
                  -0.31224  -0.29704  -0.28542  -0.24256  -0.19691   0.03172
                   2.00000   2.00000   2.00000   2.00000   2.00000   0.00000
                  --------  --------  --------  --------  --------  --------
 0 C  s               0.0       0.4       0.2       0.4       0.2       8.5
 0 C  pz              5.1       0.5       2.2       2.3       0.3       0.7
 0 C  px              1.2       1.3       0.1       0.7       0.3       0.1
 0 C  py              9.5       6.8       1.4       4.4       1.4       1.1
 0 C  dz2             0.0       0.0       0.1       0.0       0.0       0.0
 0 C  dyz             0.3       0.2       0.0       0.0       0.0       0.1
 0 C  dx2y2           0.2       0.0       0.0       0.1       0.0       0.1
 1 C  s               0.0       0.0       0.1       0.2       0.0       1.3
 1 C  pz              1.7       0.6       6.6       5.2       1.0       0.8
 1 C  px              0.1       0.0       3.8       1.6       0.1       1.0
 1 C  py              4.6       8.8       1.2       1.2       1.6       0.1
 1 C  dz2             0.0       0.0       0.4       0.0       0.0       0.0
 1 C  dxz             0.0       0.0       0.3       0.4       0.3       0.1
 1 C  dyz             0.1       0.2       0.0       0.0       0.5       0.0
 1 C  dx2y2           0.0       0.0       0.0       0.3       0.0       0.0
 1 C  dxy             0.0       0.1       0.0       0.2       0.8       0.0
 2 C  s               0.1       0.2       0.0       0.0       1.1       4.6
 2 C  pz              0.0       0.3       4.8       0.7       2.7       1.2
 2 C  px              1.9       0.0       2.2       0.1       0.9       0.4
 2 C  py             13.9      10.1       0.5       0.1       2.7       0.6
 2 C  dz2             0.0       0.0       0.4       0.1       0.0       0.1
 2 C  dyz             0.1       0.1       0.0       0.0       0.0       0.1
 2 C  dx2y2           0.1       0.0       0.0       0.1       0.0       0.0
 2 C  dxy             0.1       0.1       0.0       0.0       0.0       0.0
 3 O  s               0.0       0.0       0.0       4.6       0.0       0.3
 3 O  pz              0.6       0.0       0.0      32.1      17.7       0.0
 3 O  px              0.0       0.1       3.2       2.3       0.6       0.0
 3 O  py              7.1       0.4       0.1      12.5      48.6       0.2
 3 O  dxz             0.0       0.0       0.1       0.0       0.0       0.0
 3 O  dx2y2           0.0       0.0       0.0       0.1       0.0       0.0
 4 C  s               0.0       0.0       0.0       0.5       0.0       2.5
 4 C  pz              0.5       1.8       3.8       5.0       0.8       0.1
 4 C  px              0.7       1.2       8.9       0.1       0.0       0.2
 4 C  py              2.2      10.2       0.0       2.5       1.6       1.6
 4 C  dz2             0.1       0.3       0.0       0.1       0.5       0.0
 4 C  dxz             0.0       0.0       0.5       0.0       0.3       0.0
 4 C  dyz             0.0       0.2       0.0       0.1       0.5       0.0
 4 C  dx2y2           0.0       0.0       0.1       0.7       0.2       0.0
 4 C  dxy             0.1       0.1       0.0       0.0       0.2       0.0
 5 C  s               0.0       0.0       0.6       0.6       0.0       2.3
 5 C  pz              2.2       1.6       6.6       1.2       0.0       0.3
 5 C  px              1.9       1.1       8.2       2.6       0.3       0.7
 5 C  py              5.5       9.1       0.2       0.1       0.0       0.1
 5 C  dz2             0.1       0.2       0.0       0.0       0.0       0.0
 5 C  dxz             0.0       0.0       0.1       0.0       0.0       0.1
 5 C  dyz             0.1       0.2       0.0       0.0       0.0       0.1
 5 C  dxy             0.0       0.1       0.0       0.0       0.0       0.0
 6 C  s               0.1       0.3       0.0       0.0       1.1       5.4
 6 C  pz              0.6       3.4       4.0       1.3       4.2       2.4
 6 C  px              0.0       0.3       5.8       0.1       0.5       0.1
 6 C  py              2.5       7.4       0.0       0.0       1.0       0.2
 6 C  dz2             0.0       0.1       0.1       0.0       0.0       0.0
 6 C  dxz             0.0       0.0       0.4       0.0       0.0       0.0
 6 C  dyz             0.0       0.0       0.0       0.0       0.0       0.1
 6 C  dx2y2           0.0       0.0       0.0       0.1       0.0       0.1
 7 H  s              11.1       2.8       0.0       0.1       0.3       4.9
 8 H  s               1.3       0.9       2.2       0.9       0.0       7.3
 9 H  s               1.4       0.6       0.2       0.5       0.1       7.5
10 H  s               0.7       0.2       9.9       4.3       1.2       3.9
11 H  s               1.2       0.0       2.2       0.1       0.7       5.8
12 H  s               8.9       4.0       0.5       0.6       0.2       2.4
13 H  s               0.1       0.1       5.4       0.7       0.2       3.9
14 H  s               1.2       7.5       1.1       5.0       3.5       5.8
15 H  s               3.4       6.6       0.2       0.6       0.2       1.1
16 H  s               0.3       0.0       0.7       0.1       0.1       2.8
17 H  s               4.8       5.9       1.6       0.1       0.2       2.6
18 H  s               0.1       0.0       6.6       0.5       0.0       7.9
19 H  s               1.3       3.3       0.2       0.8       0.3       2.3
20 H  s               0.2       0.0       2.0       0.5       0.7       3.9

                     30        31        32        33        34        35   
                   0.05858   0.06604   0.07082   0.08413   0.10148   0.10556
                   0.00000   0.00000   0.00000   0.00000   0.00000   0.00000
                  --------  --------  --------  --------  --------  --------
 0 C  s               0.7       0.9       5.3       1.0       3.7       1.0
 0 C  pz              0.9       2.0       0.0       3.8       0.1       3.4
 0 C  px              3.9       0.2       0.2       1.5       0.1       3.2
 0 C  py              0.2       0.2       2.0       0.8       0.4       2.6
 0 C  dz2             0.1       0.1       0.0       0.0       0.0       0.0
 0 C  dyz             0.2       0.0       0.0       0.1       0.1       0.7
 0 C  dx2y2           0.2       0.0       0.0       0.6       0.1       0.2
 1 C  s               2.4       0.4       0.2       0.3       0.5       0.7
 1 C  pz              2.8       0.0       0.2       1.0       0.3       0.3
 1 C  px              3.7       2.9       0.0       2.2       1.0       0.1
 1 C  py              0.0       0.0       0.1       0.3       0.6       0.6
 1 C  dz2             0.4       0.4       0.0       0.1       0.1       0.1
 1 C  dxz             0.3       0.1       0.0       0.1       0.1       0.4
 1 C  dyz             0.1       0.0       0.1       0.0       0.3       0.5
 1 C  dx2y2           0.0       0.2       0.0       1.1       0.3       0.2
 2 C  s               1.4       2.2       5.4       0.0       0.3       3.3
 2 C  pz              0.8       2.3       0.1       2.5       2.6       0.0
 2 C  px              3.3       0.6       0.0       1.0       0.3       3.1
 2 C  py              0.4       0.1       1.8       0.9       1.7       0.5
 2 C  dz2             0.2       0.1       0.0       0.1       0.2       0.0
 2 C  dx2y2           0.1       0.1       0.0       0.4       0.0       0.3
 2 C  dxy             0.0       0.1       0.0       0.2       0.2       0.0
 3 O  s               0.4       2.2       0.0       1.6       0.1       0.2
 3 O  pz              0.6       0.4       0.0       3.3       0.1       0.1
 3 O  px              0.3       0.0       0.0       0.1       0.2       1.8
 3 O  py              0.2       0.1       0.5       0.3       0.1       0.0
 3 O  dx2y2           0.0       0.1       0.0       0.1       0.0       0.0
 4 C  s               0.7       0.4       1.5       0.7       0.5       0.5
 4 C  pz              0.0       0.8       0.6       0.2       0.0       0.5
 4 C  px              0.6       1.2       0.1       2.8       0.3       1.2
 4 C  py              0.6       0.7       3.9       0.3       0.3       0.3
 4 C  dz2             0.0       0.1       0.1       0.0       0.3       0.0
 4 C  dxz             0.1       0.2       0.0       0.6       0.5       0.3
 4 C  dx2y2           0.0       0.3       0.2       0.1       0.0       0.0
 4 C  dxy             0.0       0.0       0.2       0.3       0.1       0.2
 5 C  s               3.2       6.8       0.3       2.4       8.1       1.2
 5 C  pz              0.0       0.0       0.0       2.5       2.7       0.3
 5 C  px              0.6       4.2       0.4       0.2       1.0       0.0
 5 C  py              0.0       0.3       1.5       1.1       0.2       3.6
 5 C  dxz             0.0       0.2       0.0       0.1       0.1       0.1
 5 C  dyz             0.0       0.0       0.1       0.0       0.1       0.0
 5 C  dx2y2           0.0       0.0       0.0       0.2       0.0       0.1
 5 C  dxy             0.0       0.1       0.1       0.2       0.1       0.0
 6 C  s               4.3       0.0       3.9       1.0       1.1       0.0
 6 C  pz              1.2       0.2       0.0       1.7       0.3       0.6
 6 C  px              0.2       7.2       0.4       0.1       3.9       0.8
 6 C  py              0.1       0.0       3.1       2.3       2.3       2.8
 6 C  dz2             0.0       0.0       0.1       0.0       0.1       0.0
 6 C  dxz             0.1       0.2       0.0       0.2       0.4       0.1
 6 C  dyz             0.0       0.1       0.0       0.0       0.1       0.0
 6 C  dx2y2           0.0       0.0       0.1       0.2       0.2       0.3
 7 H  s               0.7       0.1       8.5      14.4       1.2      10.2
 8 H  s               3.0       6.8       4.3       0.5       3.1       3.5
 9 H  s              10.2       0.3       1.6       2.1       1.5      11.1
10 H  s              18.1       1.1       0.8       1.5       2.5       1.0
11 H  s              11.3       0.4       2.4       2.7       0.4       1.2
12 H  s               0.6       1.0       9.9       6.2       4.7       9.0
13 H  s               1.5       8.5       2.7       2.6       6.6       3.8
14 H  s               1.9       1.5      14.3       0.8       1.3       0.2
15 H  s               2.0       3.4       5.1       7.3       2.8      11.5
16 H  s               3.7      17.9       0.2       2.0       0.6       0.6
17 H  s               1.1       2.6       0.5       6.1      21.4       0.0
18 H  s               4.7       8.3       0.2       2.7       4.4       0.0
19 H  s               1.9       0.1      14.9       3.2       8.8       4.9
20 H  s               3.6       9.1       1.9       6.9       4.5       5.8

                     36        37        38        39        40        41   
                   0.11241   0.12886   0.13149   0.13668   0.14207   0.14557
                   0.00000   0.00000   0.00000   0.00000   0.00000   0.00000
                  --------  --------  --------  --------  --------  --------
 0 C  s               0.0       2.8       0.8       0.9       2.6       0.1
 0 C  pz              1.0       0.0       1.9       0.9       1.6       4.6
 0 C  px              1.1       0.4       6.5       1.8       2.2       3.8
 0 C  py              0.0       2.9       0.2       1.2       1.7       0.4
 0 C  dz2             0.1       0.1       0.2       0.2       0.0       0.6
 0 C  dxz             0.1       0.0       0.2       0.0       0.1       0.1
 0 C  dyz             0.1       0.2       0.0       0.0       0.2       0.0
 0 C  dx2y2           0.0       0.0       0.1       0.7       0.3       0.0
 0 C  dxy             0.1       0.0       0.0       0.1       0.0       0.0
 1 C  s               6.3       0.0       0.4       0.0       0.0       0.1
 1 C  pz              3.5       0.6       1.3       0.4       0.4       2.2
 1 C  px              1.6       1.4       0.6       5.0       3.3       1.7
 1 C  py              0.7       0.1       0.1       0.1       1.2       0.2
 1 C  dz2             0.0       0.0       0.0       0.1       0.1       0.1
 1 C  dyz             0.1       0.1       0.1       0.0       0.3       0.4
 1 C  dx2y2           0.0       0.2       0.1       0.5       0.7       0.3
 1 C  dxy             0.0       0.0       0.2       0.2       0.0       0.4
 2 C  s               8.2       0.2       0.9       0.2       0.0       0.0
 2 C  pz              0.5       0.6       0.1       0.5       0.2       1.2
 2 C  px              1.0       2.8       1.4       7.7       0.3       1.3
 2 C  py              0.6       0.6       0.3       3.6       0.9       4.2
 2 C  dz2             0.1       0.1       0.1       0.1       0.0       0.2
 2 C  dxz             0.1       0.0       0.0       0.2       0.0       0.2
 2 C  dyz             0.3       0.1       0.0       0.3       0.0       0.2
 2 C  dx2y2           0.0       0.1       0.0       0.1       0.2       0.2
 2 C  dxy             0.1       0.0       0.1       0.0       0.2       0.0
 3 O  s               0.2       1.7       0.4       2.4       2.5       2.8
 3 O  pz              0.0       0.4       0.3       0.4       1.0       0.9
 3 O  px              0.2       0.3       0.1       0.1       0.4       0.3
 3 O  py              0.0       1.3       0.6       0.1       0.2       0.6
 3 O  dz2             0.2       0.0       0.0       0.0       0.0       0.0
 3 O  dxz             0.0       0.1       0.1       0.0       0.0       0.1
 3 O  dx2y2           0.1       0.0       0.0       0.1       0.1       0.0
 4 C  s               0.0       3.1       2.1       0.0       1.8       0.5
 4 C  pz              1.4       1.7       1.0       0.8       2.7       1.3
 4 C  px              0.0       3.6       1.5       0.7       1.9       6.4
 4 C  py              0.6       1.7       0.1       3.2       4.0       0.5
 4 C  dz2             0.1       0.2       0.2       0.0       0.0       0.0
 4 C  dxz             0.1       0.2       0.2       0.0       0.1       0.6
 4 C  dyz             0.0       0.8       0.1       0.1       0.3       0.3
 4 C  dx2y2           0.2       0.1       0.1       0.1       0.1       0.0
 4 C  dxy             0.0       0.0       0.1       0.6       0.1       0.3
 5 C  s               1.1       0.7       0.2       0.0       1.5       0.0
 5 C  pz              0.4       1.2       4.9       0.2       0.6       6.4
 5 C  px              0.1       1.6       2.0       0.0       1.4       0.8
 5 C  py              0.2       5.9       0.6       0.7       6.8       0.1
 5 C  dz2             0.1       0.5       0.2       0.1       0.5       0.0
 5 C  dxz             0.0       0.0       0.0       0.0       0.0       0.1
 5 C  dyz             0.0       0.3       0.3       0.1       0.1       0.2
 5 C  dx2y2           0.1       0.0       0.0       0.1       0.2       0.0
 5 C  dxy             0.0       0.0       0.0       0.4       0.0       0.1
 6 C  s               3.6       1.7       4.0       0.2       0.3       0.5
 6 C  pz              0.3       0.6       0.8       0.5       0.9       0.9
 6 C  px              0.1       0.1       1.1       4.0       0.2       0.2
 6 C  py              0.1       0.1       0.8       0.9       1.9       0.3
 6 C  dz2             0.0       0.0       0.1       0.2       0.0       0.0
 6 C  dxz             0.0       0.1       0.1       0.0       0.0       0.2
 6 C  dyz             0.0       0.0       0.2       0.1       0.7       0.1
 6 C  dx2y2           0.0       0.2       0.0       0.0       0.1       0.3
 6 C  dxy             0.0       0.0       0.0       0.1       0.0       0.0
 7 H  s               0.2       7.0       1.6       7.7       1.4       1.0
 8 H  s               2.3       2.0       5.7       0.5       5.0      13.1
 9 H  s               2.3       2.1      15.5       2.9       6.3       4.5
10 H  s              28.0       0.5       4.8       1.2       0.1       1.9
11 H  s              12.0       5.9       4.6      14.4       1.0       3.1
12 H  s               5.7       0.2       0.3      12.8       2.8       4.5
13 H  s               2.5       2.1       0.1       0.1       0.2       5.3
14 H  s               2.0      10.7       2.8       3.8       9.6       1.8
15 H  s               0.0      14.9       1.2       1.3       4.6       0.2
16 H  s               1.7       1.8       6.8       2.1      13.6       5.4
17 H  s               0.3       7.3      10.4       0.0       3.7       9.9
18 H  s               2.7       0.0       0.2       0.7       1.2       0.5
19 H  s               0.7       2.3       3.9       0.7       3.1       0.8
20 H  s               4.2       1.0       4.3      10.5       0.4       0.9

                     42        43        44        45        46        47   
                   0.15319   0.17410   0.18040   0.20016   0.20878   0.22415
                   0.00000   0.00000   0.00000   0.00000   0.00000   0.00000
                  --------  --------  --------  --------  --------  --------
 0 C  s               0.3       0.3       1.3       0.0       0.0       0.3
 0 C  pz              0.4       1.8       0.4       0.5       1.3       4.1
 0 C  px              3.1       0.7       0.9       0.9       0.3       0.8
 0 C  py              1.3       3.3      10.6       0.2       0.5       4.8
 0 C  dz2             0.1       0.1       1.0       0.2       0.0       0.0
 0 C  dxz             0.0       0.2       0.0       0.2       0.3       0.7
 0 C  dyz             0.0       0.3       0.7       0.1       0.1       0.9
 0 C  dx2y2           0.1       0.4       0.8       0.0       0.0       0.3
 0 C  dxy             0.2       0.5       1.5       0.4       0.1       0.5
 1 C  s               2.2       4.0      15.8       0.1       0.2       0.1
 1 C  pz              0.2       0.2      11.1       2.4       0.4       1.5
 1 C  px              4.8       2.3       0.4       8.1       0.5       0.5
 1 C  py              0.1       2.5       0.0       1.6       1.3      17.4
 1 C  dz2             0.3       1.0       0.2       0.0       0.1       0.2
 1 C  dxz             0.1       0.1       1.4       0.1       0.2       0.0
 1 C  dyz             0.0       0.3       0.2       0.3       0.1       2.2
 1 C  dx2y2           0.4       0.0       0.3       1.6       0.0       0.0
 1 C  dxy             0.2       0.0       0.0       0.1       0.0       0.5
 2 C  s               0.1       0.1       2.5       0.2       0.4       0.5
 2 C  pz              0.3       2.0       2.7       7.0       0.3       6.9
 2 C  px              1.0       0.1       2.8       1.2       1.8       1.2
 2 C  py              1.5       1.1      12.1       0.7       0.7       6.6
 2 C  dz2             0.1       0.6       0.0       0.2       0.2       0.1
 2 C  dxz             0.1       0.1       0.1       0.0       0.0       0.6
 2 C  dyz             0.1       0.0       2.2       0.6       0.1       2.0
 2 C  dx2y2           0.1       0.0       0.9       0.3       0.1       0.5
 2 C  dxy             0.3       0.0       1.6       0.1       0.0       0.3
 3 O  s               2.0       0.5       0.3       0.3       0.0       0.0
 3 O  pz              0.4       0.4       1.5       0.2       1.1       0.0
 3 O  px              1.1       1.4       1.7       5.0       2.1       0.5
 3 O  py              0.2       0.0       0.1       0.1       0.9       0.5
 3 O  dz2             0.0       0.0       0.1       0.1       0.1       0.1
 3 O  dxz             0.0       0.0       0.4       0.1       0.2       0.0
 3 O  dx2y2           0.2       0.2       0.1       0.1       0.1       0.0
 3 O  dxy             0.0       0.1       0.0       0.1       0.0       0.6
 4 C  s               3.2       6.2       1.4       0.0       5.9       1.5
 4 C  pz              0.0       0.1       0.5       0.6       7.9       6.9
 4 C  px              0.1       6.0       2.2       7.5       0.2       2.1
[...]
 5 C  dx2y2           7.8       0.0       1.4       4.9       1.7       0.1
 5 C  dxy            13.2       0.0       0.1       1.3       0.4       0.0
 6 C  s               0.0       0.1       0.1       0.4       0.1       0.0
 6 C  pz              0.3       0.1       0.1       0.7       0.4       0.0
 6 C  px              0.7       0.3       0.0       0.1       0.0       0.0
 6 C  py              0.1       0.0       0.2       0.4       0.2       0.0
 6 C  dz2             0.4       8.1      10.3       1.2       1.5       0.0
 6 C  dxz             9.7       5.0       4.1       8.4       1.3       0.0
 6 C  dyz             1.3       0.6       0.8       6.9       3.6       0.1
 6 C  dx2y2          13.3       0.2       4.7       0.0       0.1       0.0
 6 C  dxy             5.1       0.3       0.5       1.9       0.4       0.0
 7 H  s               0.1       0.8       0.4       0.1       0.4       0.2
 8 H  s               0.2       0.8       0.1       0.0       0.0       0.2
 9 H  s               0.0       0.3       0.7       0.0       0.1       0.0
10 H  s               0.1       0.1       0.7       0.4       0.8       0.0
11 H  s               0.1       0.9       0.2       0.1       0.0       0.0
12 H  s               0.0       1.2       0.3       0.1       0.5       0.3
13 H  s               0.2       0.4       0.4       0.0       0.0       0.2
14 H  s               0.0       0.1       0.0       0.9       0.5       0.0
15 H  s               2.2       0.2       0.0       0.0       0.0       0.0
16 H  s               1.0       0.6       0.7       0.1       0.1       0.0
17 H  s               0.1       0.3       0.8       0.3       0.0       0.0
18 H  s               0.4       0.9       0.8       0.4       0.1       0.0
19 H  s               1.0       0.3       1.3       0.1       0.1       0.0
20 H  s               3.3       0.7       0.1       0.0       0.1       0.0

                    120       121       122       123       124       125   
                   2.54188   2.79776   2.83656   2.95562   3.24691   3.35576
                   0.00000   0.00000   0.00000   0.00000   0.00000   0.00000
                  --------  --------  --------  --------  --------  --------
 0 C  py              0.0       0.0       0.0       0.2       0.0       0.0
 0 C  dxz             0.0       0.2       0.1       0.1       0.1       0.0
 0 C  dyz             0.0       0.1       0.0       0.7       0.0       0.0
 0 C  dx2y2           0.6       0.7       0.2       0.7       0.2       0.1
 0 C  dxy             0.1       0.1       0.0       0.0       0.2       0.1
 1 C  s               0.1       0.0       0.0       0.0       0.7       1.2
 1 C  pz              0.0       0.0       0.1       0.1       0.3       0.2
 1 C  px              0.0       0.0       0.5       0.1       1.1       2.2
 1 C  py              0.1       0.2       0.0       0.2       0.0       0.0
 1 C  dz2             0.1       0.1       1.2       0.8       0.0       1.6
 1 C  dxz             0.6       0.6       3.3       0.9       4.1       0.5
 1 C  dyz             0.0       0.2       0.3       1.8       0.5       0.1
 1 C  dx2y2           0.3       0.1       2.6       0.4       2.5       4.6
 1 C  dxy             0.4       6.3       0.1       9.6       0.9       0.0
 2 C  py              0.0       0.1       0.1       0.1       0.0       0.0
 2 C  dz2             0.0       0.3       0.0       0.0       0.0       0.0
 2 C  dxz             0.1       0.1       0.1       0.3       0.0       0.0
 2 C  dyz             0.0       0.6       0.3       0.6       0.1       0.0
 2 C  dx2y2           0.2       0.6       0.2       1.1       0.0       0.0
 2 C  dxy             0.0       0.0       0.0       0.1       0.1       0.0
 3 O  s               0.1       0.0       1.2       0.3       6.5       0.0
 3 O  pz              0.0       0.2       1.6       0.1       0.3       0.2
 3 O  px              0.1       0.0       0.1       0.0       0.0       6.6
 3 O  py              0.0       1.7       0.2       0.1       0.1       0.2
 3 O  dz2             5.9      29.3      24.7       1.6      11.1       4.0
 3 O  dxz             0.7       0.5      10.1      12.0       2.6      46.4
 3 O  dyz             0.1      32.5      34.8       1.2       2.1       4.1
 3 O  dx2y2           0.9       9.8       2.0       7.2      46.4       6.1
 3 O  dxy             0.8       1.8       1.5      47.9       8.6       9.7
 4 C  s               0.0       0.1       0.3       0.0       0.6       1.1
 4 C  pz              4.2       0.0       0.2       0.0       0.5       0.4
 4 C  px              1.5       0.0       0.1       0.1       0.7       1.7
 4 C  py              0.6       0.5       0.1       0.2       0.3       0.3
 4 C  dz2             0.8       0.6       3.0       4.2       1.1       0.6
 4 C  dxz            16.2       3.4       0.3       1.2       3.5       4.0
 4 C  dyz             8.0       0.2       0.1       1.3       2.6       0.3
 4 C  dx2y2          11.3       1.0       6.8       0.5       0.0       0.9
 4 C  dxy             0.1       4.2       0.3       1.9       0.8       1.7
 5 C  s               1.8       0.0       0.0       0.0       0.1       0.1
 5 C  pz              1.4       0.0       0.2       0.0       0.0       0.0
 5 C  px              1.9       0.0       0.0       0.0       0.1       0.1
 5 C  dz2             0.1       0.2       0.8       0.0       0.1       0.2
 5 C  dxz            13.9       0.3       1.0       0.2       0.3       0.0
 5 C  dyz             0.0       0.2       0.0       0.0       0.0       0.0
 5 C  dx2y2           7.3       0.0       0.0       0.1       0.0       0.3
 5 C  dxy             0.5       0.0       0.1       0.0       0.1       0.1
 6 C  s               1.4       0.0       0.1       0.1       0.0       0.0
 6 C  pz              2.0       0.1       0.1       0.1       0.0       0.0
 6 C  py              0.4       0.0       0.0       0.1       0.0       0.0
 6 C  dz2             6.1       0.1       0.2       0.0       0.1       0.0
 6 C  dxz             1.5       0.8       0.2       0.1       0.0       0.0
 6 C  dyz             6.1       0.9       0.1       1.2       0.0       0.0
 6 C  dx2y2           0.4       0.5       0.2       0.3       0.2       0.0
 6 C  dxy             0.3       0.0       0.0       0.0       0.0       0.0
14 H  s               0.0       0.0       0.1       0.1       0.0       0.0
15 H  s               0.2       0.0       0.0       0.0       0.0       0.0
17 H  s               0.2       0.1       0.0       0.0       0.0       0.0
18 H  s               0.2       0.0       0.0       0.0       0.0       0.0



                      *****************************
                      * MAYER POPULATION ANALYSIS *
                      *****************************

  NA   - Mulliken gross atomic population
  ZA   - Total nuclear charge
  QA   - Mulliken gross atomic charge
  VA   - Mayer's total valence
  BVA  - Mayer's bonded valence
  FA   - Mayer's free valence

  ATOM       NA         ZA         QA         VA         BVA        FA
  0 C      6.2905     6.0000    -0.2905     3.9626     3.9626    -0.0000
  1 C      5.9796     6.0000     0.0204     4.2591     4.2591     0.0000
  2 C      6.2531     6.0000    -0.2531     3.9246     3.9246     0.0000
  3 O      8.3317     8.0000    -0.3317     2.1414     2.1414    -0.0000
  4 C      6.0055     6.0000    -0.0055     4.2476     4.2476    -0.0000
  5 C      6.2398     6.0000    -0.2398     3.9446     3.9446    -0.0000
  6 C      6.2608     6.0000    -0.2608     3.9233     3.9233    -0.0000
  7 H      0.8852     1.0000     0.1148     0.9547     0.9547    -0.0000
  8 H      0.8927     1.0000     0.1073     0.9620     0.9620    -0.0000
  9 H      0.8940     1.0000     0.1060     0.9559     0.9559    -0.0000
 10 H      0.9292     1.0000     0.0708     0.9462     0.9462    -0.0000
 11 H      0.9050     1.0000     0.0950     0.9575     0.9575     0.0000
 12 H      0.8937     1.0000     0.1063     0.9691     0.9691    -0.0000
 13 H      0.9048     1.0000     0.0952     0.9752     0.9752     0.0000
 14 H      0.9371     1.0000     0.0629     0.9516     0.9516     0.0000
 15 H      0.9002     1.0000     0.0998     0.9702     0.9702     0.0000
 16 H      0.9060     1.0000     0.0940     0.9582     0.9582     0.0000
 17 H      0.8962     1.0000     0.1038     0.9683     0.9683     0.0000
 18 H      0.8929     1.0000     0.1071     0.9619     0.9619     0.0000
 19 H      0.8985     1.0000     0.1015     0.9740     0.9740     0.0000
 20 H      0.9035     1.0000     0.0965     0.9609     0.9609     0.0000

  Mayer bond orders larger than 0.100000
B(  0-C ,  1-C ) :   1.1055 B(  0-C ,  7-H ) :   0.9402 B(  0-C ,  8-H ) :   0.9411 
B(  0-C ,  9-H ) :   0.9405 B(  1-C ,  2-C ) :   1.1083 B(  1-C ,  3-O ) :   1.0341 
B(  1-C , 10-H ) :   0.9161 B(  2-C , 11-H ) :   0.9401 B(  2-C , 12-H ) :   0.9437 
B(  2-C , 13-H ) :   0.9392 B(  3-O ,  4-C ) :   1.0217 B(  4-C ,  5-C ) :   1.1133 
B(  4-C ,  6-C ) :   1.1073 B(  4-C , 14-H ) :   0.8964 B(  5-C , 15-H ) :   0.9494 
B(  5-C , 16-H ) :   0.9453 B(  5-C , 17-H ) :   0.9475 B(  6-C , 18-H ) :   0.9370 
B(  6-C , 19-H ) :   0.9379 B(  6-C , 20-H ) :   0.9397 

-------
TIMINGS
-------

Total SCF time: 0 days 0 hours 0 min 5 sec 

Total time                  ....       5.400 sec
Sum of individual times     ....       5.012 sec  ( 92.8%)

SCF preparation             ....       0.138 sec  (  2.6%)
Fock matrix formation       ....       4.208 sec  ( 77.9%)
  Startup                   ....       0.045 sec  (  1.1% of F)
  Split-RI-J                ....       1.392 sec  ( 33.1% of F)
  XC integration            ....       2.409 sec  ( 57.2% of F)
    Basis function eval.    ....       0.719 sec  ( 29.8% of XC)
    Density eval.           ....       0.292 sec  ( 12.1% of XC)
    XC-Functional eval.     ....       0.183 sec  (  7.6% of XC)
    XC-Potential eval.      ....       0.475 sec  ( 19.7% of XC)
Diagonalization             ....       0.000 sec  (  0.0%)
Density matrix formation    ....       0.142 sec  (  2.6%)
Total Energy calculation    ....       0.028 sec  (  0.5%)
Population analysis         ....       0.057 sec  (  1.1%)
Orbital Transformation      ....       0.042 sec  (  0.8%)
Orbital Orthonormalization  ....       0.000 sec  (  0.0%)
DIIS solution               ....       0.331 sec  (  6.1%)
  MO trafo                  ....       0.000 sec  (  0.0 % of DIIS)
  Orb grad                  ....       0.000 sec  (  0.0 % of DIIS)
  Energy W gradient         ....       0.000 sec  (  0.0 % of DIIS)
  DIIS error                ....       0.002 sec  (  0.6 % of DIIS)
  DIIS work                 ....       0.289 sec  ( 87.3 % of DIIS)
  Form Q                    ....       0.000 sec  (  0.0 % of DIIS)
  Form QpQm                 ....       0.000 sec  (  0.0 % of DIIS)
  Exp/Cayley                ....       0.000 sec  (  0.0 % of DIIS)
  Orb update                ....       0.000 sec  (  0.0 % of DIIS)
  Wake-sleep                ....       0.020 sec  (  6.1 % of DIIS)
SOSCF solution              ....       0.065 sec  (  1.2%)
  MO trafo                  ....       0.032 sec  ( 50.0 % of SOSCF)
  Orb grad                  ....       0.001 sec  (  1.5 % of SOSCF)
  Rot update                ....       0.019 sec  ( 29.7 % of SOSCF)
  Step                      ....       0.012 sec  ( 18.7 % of SOSCF)
Finished LeanSCF after   5.5 sec

Maximum memory used throughout the entire LEANSCF-calculation: 12.6 MB


-------------------------------------------------------------------------------
                          DFT DISPERSION CORRECTION                            
                                                                               
                                DFTD4 V3.4.0                                   
-------------------------------------------------------------------------------
The PBE functional is recognized
Active option DFTDOPT                   ...         5   

-------------------------   ----------------
Dispersion correction           -0.016478873
-------------------------   ----------------

------------------   -----------------
gCP correction             0.094400009
------------------   -----------------

-------------------------   --------------------
FINAL SINGLE POINT ENERGY      -311.518003186959
-------------------------   --------------------


------------------------------------------------------------------------------
                              ORCA PROPERTY CALCULATIONS
------------------------------------------------------------------------------

GBWName                                 ... sp.gbw
Number of atoms                         ...     21
Number of basis functions               ...    126
Max core memory                         ...   1024 MB

Electric properties:
Dipole moment                           ... YES
Quadrupole moment                       ...  NO
Static polarizability (Dipole/Dipole)   ...  NO
Static polarizability (Dipole/Quad.)    ...  NO
Static polarizability (Quad./Quad.)     ...  NO
Static polarizability (Velocity)        ...  NO

Atomic electric properties:
Dipole moment                           ...  NO
Quadrupole moment                       ...  NO
Static polarizability                   ...  NO

Choice of electric origin               ... Center of mass
Position of electric origin             ...     0.000000     0.000002     0.000013

General magnetic properties:
Magnetizability                         ...  NO

EPR properties:
g-Tensor (aka g-matrix)                 ...  NO
Zero-Field splitting spin-orbit         ...  NO
Zero-field splitting spin-spin          ...  NO
Hyperfine couplings                     ...  NO (   0 nuclei)
Quadrupole couplings                    ...  NO (   0 nuclei)
Contact density                         ...  NO (   0 nuclei)

NMR properties:
Chemical shifts                         ...  NO (   0 nuclei)
Spin-rotation constants                 ...  NO (   0 nuclei)
Spin-spin couplings                     ...  NO (   0 nuclei,    0 pairs)

Choice of magnetic origin               ... GIAO
Position of magnetic origin             ...     0.000000     0.000000     0.000000

Properties with geometric perturbations:
SCF Hessian                             ...  NO
IR spectrum                             ...  NO
VCD spectrum                            ...  NO
X-ray spectroscopy properties:
SCF XES/XAS/RIXS spectra                ...  NO


-------------
DIPOLE MOMENT
-------------

Method             : SCF
Type of density    : Electron Density
Multiplicity       :   1
Irrep              :   0
Energy             :  -311.5959243238226577 Eh
Relativity type    : 
Basis              : AO
                                X                 Y                 Z
Electronic contribution:      0.187385592      -0.268629145      -3.082196267
Nuclear contribution   :     -0.032847545       0.484666041       3.446269066
                        -----------------------------------------
Total Dipole Moment    :      0.154538047       0.216036896       0.364072799
                        -----------------------------------------
Magnitude (a.u.)       :      0.450669448
Magnitude (Debye)      :      1.145510702



--------------------
Rotational spectrum 
--------------------
 
Rotational constants in cm-1:             0.131942             0.055942             0.050687 
Rotational constants in MHz :          3955.536161          1677.102827          1519.547133 

Dipole components along the rotational axes: 
x,y,z [a.u.] :    -0.173848    -0.072526     0.409414 
x,y,z [Debye]:    -0.441887    -0.184345     1.040648 

 

Dipole moment calculation done in   0.0 sec 

Maximum memory used throughout the entire PROP-calculation: 7.8 MB

--------------------------------
SUGGESTED CITATIONS FOR THIS RUN
--------------------------------

Below you find a list of papers that are relevant to this ORCA run
We neither can nor want to force you to cite these papers, but we appreciate if you do
You receive ORCA, which is the product of decades of hard work by many enthusiastic individuals, for free
The only thing we kindly ask in return is that you cite our papers,
We deeply appreciate it, if you show your appreciation for ORCA by not just citing the generic ORCA reference.

Please note that relegating all ORCA citations to the supporting information does *not* help us.
SI sections are not indexed - citations you put there will not count into any citation statistics
But we need these citations in order to attract the funding resources that allow us to do what we are doing

Therefore, if you are a happy ORCA user, please consider citing a few of the papers listed below in the main body of your paper

In addition to the list printed below, the program has created the file sp.bibtex that contains the list in bibtex format
You can import this file easily into all common literature databanks and citation aid programs


List of essential papers. We consider these as the minimum necessary citations

  1. Neese,F.
     Software update: the ORCA program system, version 5.0
     WIRES Comput. Molec. Sci., 2022 12(1)e1606
     doi.org/10.1002/wcms.1606

List of papers to cite with high priority. The work reported in these papers was absolutely
necessary for this run to complete.
Our perspective: the developers of density functionals and basis sets usually get cited in chemistry papers
Good! But without the algorithms to do something with them, the functionals or basis sets would not do anything.
Hence, in our opinion, the algorithm design and method developments papers are equally worthy of getting cited

  1. Neese,F.
     An improvement of the resolution of the identity approximation for the formation of the Coulomb matrix
     J. Comp. Chem., 2003 24(14)1740-1747
     doi.org/10.1002/jcc.10318
  2. Neese,F.
     The SHARK Integral Generation and Digestion System
     J. Comp. Chem., 2022  1-16
     doi.org/10.1002/jcc.26942
  3. Caldeweyher,E.; Bannwarth,C.; Grimme,S.
     Extension of the D3 dispersion coefficient model
     J. Chem. Phys., 2017 147 034112-XXXX
     doi.org/10.1063/1.4993215
  4. Caldeweyher,E.; Ehlert,S.; Hansen,A.; Neugebauer,H.; Spicher,S.; Bannwarth,C.; Grimme,S.
     A generally applicable atomic-charge dependent London dispersion correction
     J. Chem. Phys., 2019 150 154122-XXXX
     doi.org/10.1063/1.5090222
  5. Caldeweyher,E.; Mewes,J.; Ehlert,S.; Grimme,S.
     Extension and evaluation of the D4 London-dispersion model for periodic systems
     Phys. Chem. Chem. Phys., 2020 22(16)8499-8512
     doi.org/10.1039/D0CP00502A

List of suggested additional citations. These are papers that are important in the 'surrounding' of 
of this run, or papers that preceded the highly important papers. If you like your results we are grateful for a citation.

  1. Neese,F.
     The ORCA program system
     WIRES Comput. Molec. Sci., 2012 2(1)73-78
     doi.org/10.1002/wcms.81
  2. Neese,F.
     Software update: the ORCA program system, version 4.0
     WIRES Comput. Molec. Sci., 2018 8(1)1-6
     doi.org/10.1002/wcms.1327
  3. Neese,F.; Wennmohs,F.; Becker,U.; Riplinger,C.
     The ORCA quantum chemistry program package
     J. Chem. Phys., 2020 152 Art. No. L224108
     doi.org/10.1063/5.0004608

List of optional additional citations

  1. Neese,F.
     Approximate second-order SCF convergence for spin unrestricted wavefunctions
     Chem. Phys. Lett., 2000 325(1-3)93-98
     doi.org/10.1016/s0009-2614(00)00662-x

Timings for individual modules:

Sum of individual times          ...        6.950 sec (=   0.116 min)
Startup calculation              ...        0.776 sec (=   0.013 min)  11.2 %
SCF iterations                   ...        6.093 sec (=   0.102 min)  87.7 %
Property calculations            ...        0.081 sec (=   0.001 min)   1.2 %
                             ****ORCA TERMINATED NORMALLY****
TOTAL RUN TIME: 0 days 0 hours 0 minutes 7 seconds 604 msec
