
                                 *****************
                                 * O   R   C   A *
                                 *****************

                                            #,                                       
                                            ###                                      
                                            ####                                     
                                            #####                                    
                                            ######                                   
                                           ########,                                 
                                     ,,################,,,,,                         
                               ,,#################################,,                 
                          ,,##########################################,,             
                       ,#########################################, ''#####,          
                    ,#############################################,,   '####,        
                  ,##################################################,,,,####,       
                ,###########''''           ''''###############################       
              ,#####''   ,,,,##########,,,,          '''####'''          '####       
            ,##' ,,,,###########################,,,                        '##       
           ' ,,###''''                  '''############,,,                           
         ,,##''                                '''############,,,,        ,,,,,,###''
      ,#''                                            '''#######################'''  
     '                                                          ''''####''''         
             ,#######,   #######,   ,#######,      ##                                
            ,#'     '#,  ##    ##  ,#'     '#,    #''#        ,####,   ,####,        
            ##       ##  ##   ,#'  ##            #'  '#       #'       #'  '#        
            ##       ##  #######   ##           ,######,      #####,   #    #        
            '#,     ,#'  ##    ##  '#,     ,#' ,#      #,     #,   #   #,  ,#        
             '#######'   ##     ##  '#######'  #'      '#     '####' # '####'        



                #########################################################
                #                        -***-                          #
                #          Department of theory and spectroscopy        #
                #                                                       #
                #                      Frank Neese                      #
                #                                                       #
                #     Directorship, Architecture, Infrastructure        #
                #                    SHARK, DRIVERS                     #
                #        Core code/Algorithms in most modules           #
                #                                                       #
                #        Max Planck Institute fuer Kohlenforschung      #
                #                Kaiser Wilhelm Platz 1                 #
                #                 D-45470 Muelheim/Ruhr                 #
                #                      Germany                          #
                #                                                       #
                #                  All rights reserved                  #
                #                        -***-                          #
                #########################################################


                         Program Version 6.0.0  -   RELEASE  -


 With contributions from (in alphabetic order):
   Daniel Aravena         : Magnetic Suceptibility
   Michael Atanasov       : Ab Initio Ligand Field Theory (pilot matlab implementation)
   Alexander A. Auer      : GIAO ZORA, VPT2 properties, NMR spectrum
   Ute Becker             : All parallelization in ORCA, NUMFREQ, NUMCALC
   Giovanni Bistoni       : ED, misc. LED, open-shell LED, HFLD
   Martin Brehm           : Molecular dynamics
   Dmytro Bykov           : pre 5.0 version of the SCF Hessian
   Marcos Casanova-Páez   : Triplet and SCS-CIS(D). UHF-(DLPNO)-IP/EA/STEOM-CCSD. UHF-CVS-IP/STEOM-CCSD
   Vijay G. Chilkuri      : MRCI spin determinant printing, contributions to CSF-ICE
   Pauline Colinet        : FMM embedding
   Dipayan Datta          : RHF DLPNO-CCSD density
   Achintya Kumar Dutta   : EOM-CC, STEOM-CC
   Nicolas Foglia         : Exact transition moments, OPA infrastructure, MCD improvements
   Dmitry Ganyushin       : Spin-Orbit,Spin-Spin,Magnetic field MRCI
   Miquel Garcia          : C-PCM and meta-GGA Hessian, CCSD/C-PCM, Gaussian charge scheme
   Tiago L. C. Gouveia    : GS-ROHF, GS-ROCIS
   Yang Guo               : DLPNO-NEVPT2, F12-NEVPT2, CIM, IAO-localization
   Andreas Hansen         : Spin unrestricted coupled pair/coupled cluster methods
   Ingolf Harden          : AUTO-CI MPn and infrastructure 
   Benjamin Helmich-Paris : MC-RPA, TRAH-(SCF,CASSCF), AVAS, COSX integrals, SCF dyn. polar.
   Lee Huntington         : MR-EOM, pCC
   Robert Izsak           : Overlap fitted RIJCOSX, COSX-SCS-MP3, EOM
   Riya Kayal             : Wick's Theorem for AUTO-CI, AUTO-CI UHF-CCSDT
   Emily Kempfer          : AUTO-CI, RHF CISDT and CCSDT
   Christian Kollmar      : KDIIS, OOCD, Brueckner-CCSD(T), CCSD density, CASPT2, CASPT2-K, improved NEVPT2
   Axel Koslowski         : Symmetry handling
   Simone Kossmann        : Meta GGA functionals, TD-DFT gradient, OOMP2, (MP2 Hessian; deprecated post 5.0)
   Lucas Lang             : DCDCAS
   Marvin Lechner         : AUTO-CI (C++ implementation), FIC-MRCC
   Spencer Leger          : CASSCF response
   Dagmar Lenk            : GEPOL surface, SMD, ORCA-2-JSON
   Dimitrios Liakos       : Extrapolation schemes; Compound Job, initial MDCI parallelization
   Dimitrios Manganas     : Further ROCIS development; embedding schemes. LFT, Crystal Embedding
   Dimitrios Pantazis     : SARC Basis sets
   Anastasios Papadopoulos: AUTO-CI, single reference methods and gradients
   Taras Petrenko         : pre 6.0 DFT Hessian and TD-DFT gradient, (ASA, deprecated), ECA, 1-Electron XAS/XES, NRVS
   Peter Pinski           : DLPNO-MP2, DLPNO-MP2 Gradient
   Christoph Reimann      : Effective Core Potentials
   Marius Retegan         : Local ZFS, SOC
   Christoph Riplinger    : Optimizer, TS searches, QM/MM, DLPNO-CCSD(T), (RO)-DLPNO pert. Triples
   Michael Roemelt        : Original ROCIS implementation
   Masaaki Saitow         : Open-shell DLPNO-CCSD energy and density
   Barbara Sandhoefer     : DKH picture change effects
   Kantharuban Sivalingam : CASSCF convergence/infrastructure, NEVPT2 and variants, FIC-MRCI
   Bernardo de Souza      : ESD, SOC TD-DFT
   Georgi Stoychev        : AutoAux, RI-MP2 NMR, DLPNO-MP2 response, X2C
   Van Anh Tran           : RI-MP2 g-tensors
   Willem Van den Heuvel  : Paramagnetic NMR
   Zikuan Wang            : NOTCH, Electric field optimization 
   Frank Wennmohs         : Technical directorship and infrastructure
   Hang Xu                : AUTO-CI-Response properties 


 We gratefully acknowledge several colleagues who have allowed us to
 interface, adapt or use parts of their codes:
   Stefan Grimme, W. Hujo, H. Kruse, P. Pracht,  : VdW corrections, initial TS optimization,
                  C. Bannwarth, S. Ehlert,         DFT functionals, gCP, sTDA/sTD-DF
                  L. Wittmann, M. Mueller
   Ed Valeev, F. Pavosevic, A. Kumar             : LibInt (2-el integral package), F12 methods
   Garnet Chan, S. Sharma, J. Yang, R. Olivares  : DMRG
   Ulf Ekstrom                                   : XCFun DFT Library
   Mihaly Kallay                                 : mrcc  (arbitrary order and MRCC methods)
   Frank Weinhold                                : gennbo (NPA and NBO analysis)
   Simon Mueller                                 : openCOSMO-RS
   Christopher J. Cramer and Donald G. Truhlar   : smd solvation model
   Lars Goerigk                                  : TD-DFT with DH, B97 family of functionals
   V. Asgeirsson, H. Jonsson                     : NEB implementation
   FAccTs GmbH                                   : IRC, NEB, NEB-TS, DLPNO-Multilevel, CI-OPT
                                                   MM, QMMM, 2- and 3-layer-ONIOM, Crystal-QMMM,
                                                   LR-CPCM, SF, NACMEs, symmetry and pop. for TD-DFT,
                                                   nearIR, NL-DFT gradient (VV10), updates on ESD,
                                                   ML-optimized integration grids, MBIS, APM,
                                                   GOAT, DOCKER, SOLVATOR, interface openCOSMO-RS
   S Lehtola, MJT Oliveira, MAL Marques          : LibXC Library
   Liviu Ungur et al                             : ANISO software


 Your calculation uses the libint2 library for the computation of 2-el integrals
 For citations please refer to: http://libint.valeyev.net

 Your ORCA version has been built with support for libXC version: 6.2.2
 For citations please refer to: https://libxc.gitlab.io

 This ORCA versions uses:
   CBLAS   interface :  Fast vector & matrix operations
   LAPACKE interface :  Fast linear algebra routines
   SCALAPACK package :  Parallel linear algebra routines
   Shared memory     :  Shared parallel matrices
   BLAS/LAPACK       :  OpenBLAS 0.3.27  USE64BITINT DYNAMIC_ARCH NO_AFFINITY SkylakeX SINGLE_THREADED
        Core in use  :  SkylakeX
   Copyright (c) 2011-2014, The OpenBLAS Project


Your calculation utilizes the geometrical counterpoise correction gCP
Please cite in your paper:
H.Kruse, S. Grimme J.Chem.Phys., 136, (2012), 154101 
   

Your calculation utilizes the atom-pairwise dispersion correction
based on EEQ partial charges (D4)


================================================================================

----- Orbital basis set information -----
Your calculation utilizes the basis: def2-mTZVPP
   Stefan Grimme, Andreas Hansen, Sebastian Ehlert, and Jan-Michael Mewes 
   J. Chem. Phys. 154, 064103 (2021). DOI: 10.1063/5.0040021

----- AuxJ basis set information -----
Your calculation utilizes the auxiliary basis: def2/J
   F. Weigend, Phys. Chem. Chem. Phys. 8, 1057 (2006).

================================================================================
                                        WARNINGS
                       Please study these warnings very carefully!
================================================================================

Using LibXC functional ID 497 : Re-regularized SCAN exchange by Furness et al
[ 1]  J. W. Furness, A. D. Kaplan, J. Ning, J. P. Perdew, and J. Sun.,  J. Phys. Chem. Lett. 11, 8208-8215 (2020)
[ 2]  J. W. Furness, A. D. Kaplan, J. Ning, J. P. Perdew, and J. Sun.,  J. Phys. Chem. Lett. 11, 9248-9248 (2020)
Using LibXC functional ID 498 : Re-regularized SCAN correlation by Furness et al
[ 1]  J. W. Furness, A. D. Kaplan, J. Ning, J. P. Perdew, and J. Sun.,  J. Phys. Chem. Lett. 11, 8208-8215 (2020)
[ 2]  J. W. Furness, A. D. Kaplan, J. Ning, J. P. Perdew, and J. Sun.,  J. Phys. Chem. Lett. 11, 9248-9248 (2020)
Using LibXC functional ID 497 : Re-regularized SCAN exchange by Furness et al
[ 1]  J. W. Furness, A. D. Kaplan, J. Ning, J. P. Perdew, and J. Sun.,  J. Phys. Chem. Lett. 11, 8208-8215 (2020)
[ 2]  J. W. Furness, A. D. Kaplan, J. Ning, J. P. Perdew, and J. Sun.,  J. Phys. Chem. Lett. 11, 9248-9248 (2020)
Using LibXC functional ID 498 : Re-regularized SCAN correlation by Furness et al
[ 1]  J. W. Furness, A. D. Kaplan, J. Ning, J. P. Perdew, and J. Sun.,  J. Phys. Chem. Lett. 11, 8208-8215 (2020)
[ 2]  J. W. Furness, A. D. Kaplan, J. Ning, J. P. Perdew, and J. Sun.,  J. Phys. Chem. Lett. 11, 9248-9248 (2020)

================================================================================
                                       INPUT FILE
================================================================================
NAME = sp_gas.inp
|  1> ! r2scan-3c def2/J RI DEFGRID2 scfconv6 printgap
|  2> %output
|  3>     printlevel normal
|  4> end
|  5> * xyz 0 1
|  6> C -2.8498008582 -2.2603207479 1.311501767
|  7> C -3.3709468132 -0.8966068124 0.8728934363
|  8> C -2.7790641187 -0.3299810827 -0.4276115717
|  9> H -3.4088910502 0.5226500555 -0.7085055352
| 10> C -2.7714698183 -1.3098405963 -1.5926500658
| 11> N -1.4537222443 0.2897416168 -0.1963164897
| 12> C -0.2790976764 -0.4621335502 -0.1846299967
| 13> O -0.2687294827 -1.6734355585 -0.2990442532
| 14> C 0.9320341372 0.3167238435 -0.0207653928
| 15> C 0.9365231653 1.6583843151 0.1726951364
| 16> N -0.2767880485 2.2752281581 0.2025664976
| 17> C -1.4839778124 1.6486016987 0.0317753072
| 18> O -2.515579284 2.2974967013 0.0791248571
| 19> C 2.1558569393 2.482745062 0.3604143884
| 20> Br 2.5486601491 -0.6800700333 -0.0597894606
| 21> H -3.2685065841 -2.5121724343 2.2827118115
| 22> H -3.1428195432 -3.0299098219 0.6035977596
| 23> H -1.7667281478 -2.2690316245 1.3912215519
| 24> H -4.4504009193 -0.965513403 0.7283088208
| 25> H -3.1958511618 -0.1621814862 1.6635108231
| 26> H -2.402761452 -0.8192209092 -2.4908732269
| 27> H -2.1481832502 -2.1736067933 -1.3882923101
| 28> H -3.79118412 -1.6388309933 -1.768965939
| 29> H -0.3292031436 3.2765311234 0.3627551873
| 30> H 2.8511777993 2.3097278423 -0.45914856
| 31> H 2.6659473894 2.1861263145 1.2758808589
| 32> H 1.9109593797 3.5379195796 0.4119732852
| 33> *
| 34> 
| 35>                          ****END OF INPUT****
================================================================================

                       ****************************
                       * Single Point Calculation *
                       ****************************

---------------------------------
CARTESIAN COORDINATES (ANGSTROEM)
---------------------------------
  C     -2.849801   -2.260321    1.311502
  C     -3.370947   -0.896607    0.872893
  C     -2.779064   -0.329981   -0.427612
  H     -3.408891    0.522650   -0.708506
  C     -2.771470   -1.309841   -1.592650
  N     -1.453722    0.289742   -0.196316
  C     -0.279098   -0.462134   -0.184630
  O     -0.268729   -1.673436   -0.299044
  C      0.932034    0.316724   -0.020765
  C      0.936523    1.658384    0.172695
  N     -0.276788    2.275228    0.202566
  C     -1.483978    1.648602    0.031775
  O     -2.515579    2.297497    0.079125
  C      2.155857    2.482745    0.360414
  Br     2.548660   -0.680070   -0.059789
  H     -3.268507   -2.512172    2.282712
  H     -3.142820   -3.029910    0.603598
  H     -1.766728   -2.269032    1.391222
  H     -4.450401   -0.965513    0.728309
  H     -3.195851   -0.162181    1.663511
  H     -2.402761   -0.819221   -2.490873
  H     -2.148183   -2.173607   -1.388292
  H     -3.791184   -1.638831   -1.768966
  H     -0.329203    3.276531    0.362755
  H      2.851178    2.309728   -0.459149
  H      2.665947    2.186126    1.275881
  H      1.910959    3.537920    0.411973

----------------------------
CARTESIAN COORDINATES (A.U.)
----------------------------
  NO LB      ZA    FRAG     MASS         X           Y           Z
   0 C     6.0000    0    12.011   -5.385343   -4.271387    2.478379
   1 C     6.0000    0    12.011   -6.370166   -1.694341    1.649530
   2 C     6.0000    0    12.011   -5.251670   -0.623574   -0.808069
   3 H     1.0000    0     1.008   -6.441871    0.987665   -1.338881
   4 C     6.0000    0    12.011   -5.237319   -2.475240   -3.009672
   5 N     7.0000    0    14.007   -2.747137    0.547532   -0.370984
   6 C     6.0000    0    12.011   -0.527418   -0.873306   -0.348900
   7 O     8.0000    0    15.999   -0.507825   -3.162335   -0.565112
   8 C     6.0000    0    12.011    1.761289    0.598521   -0.039241
   9 C     6.0000    0    12.011    1.769772    3.133892    0.326347
  10 N     7.0000    0    14.007   -0.523054    4.299558    0.382795
  11 C     6.0000    0    12.011   -2.804312    3.115406    0.060047
  12 O     8.0000    0    15.999   -4.753756    4.341640    0.149524
  13 C     6.0000    0    12.011    4.073979    4.691708    0.681084
  14 Br   35.0000    0    79.900    4.816270   -1.285146   -0.112986
  15 H     1.0000    0     1.008   -6.176582   -4.747318    4.313700
  16 H     1.0000    0     1.008   -5.939068   -5.725700    1.140634
  17 H     1.0000    0     1.008   -3.338632   -4.287848    2.629028
  18 H     1.0000    0     1.008   -8.410039   -1.824556    1.376304
  19 H     1.0000    0     1.008   -6.039283   -0.306479    3.143580
  20 H     1.0000    0     1.008   -4.540561   -1.548103   -4.707068
  21 H     1.0000    0     1.008   -4.059478   -4.107522   -2.623492
  22 H     1.0000    0     1.008   -7.164300   -3.096942   -3.342861
  23 H     1.0000    0     1.008   -0.622104    6.191746    0.685508
  24 H     1.0000    0     1.008    5.387945    4.364753   -0.867665
  25 H     1.0000    0     1.008    5.037910    4.131180    2.411065
  26 H     1.0000    0     1.008    3.611190    6.685699    0.778517

--------------------------------
INTERNAL COORDINATES (ANGSTROEM)
--------------------------------
 C      0   0   0     0.000000000000     0.00000000     0.00000000
 C      1   0   0     1.524364153360     0.00000000     0.00000000
 C      2   1   0     1.537108687582   116.20469276     0.00000000
 H      3   2   1     1.096614444644   106.39021817   167.70613129
 C      3   2   1     1.522332760117   114.33976369    48.71976002
 N      3   2   1     1.481244315861   111.50906256   279.54655730
 C      6   3   2     1.394702734056   121.95979090    84.50465981
 O      7   6   3     1.216737719002   122.89313692   356.44130068
 C      7   6   3     1.449244878565   114.52278570   176.61734614
 C      9   7   6     1.355544152282   123.42349389     3.12209755
 N     10   9   7     1.361437742388   116.65532076   359.66356421
 C     11  10   9     1.370816354003   125.09786084   358.89586670
 O     12  11  10     1.219634494626   119.79008149   179.90201365
 C     10   9   7     1.483773571344   124.79702249   179.21177354
 Br     9   7   6     1.899631694052   115.26921682   181.94786884
 H      1   2   3     1.087194880130   109.42724937   174.77969378
 H      1   2   3     1.085935254181   110.74340294   294.11356133
 H      1   2   3     1.086037577383   111.66878586    54.68573152
 H      2   1   3     1.091271733549   108.65135419   120.64347683
 H      2   1   3     1.093213107868   109.76466146   237.64408530
 H      5   3   2     1.087868734676   110.07760494   176.18286886
 H      5   3   2     1.084592218932   111.79435861   297.04980468
 H      5   3   2     1.085881773285   108.33587339    57.43138988
 H     11  10   9     1.015389278465   119.75305855   178.81009278
 H     14  10   9     1.088618153006   109.95846122    53.65614310
 H     14  10   9     1.089152793350   109.87088961   296.28625545
 H     14  10   9     1.084447507780   111.16296895   175.14936551

---------------------------
INTERNAL COORDINATES (A.U.)
---------------------------
 C      0   0   0     0.000000000000     0.00000000     0.00000000
 C      1   0   0     2.880630778217     0.00000000     0.00000000
 C      2   1   0     2.904714457601   116.20469276     0.00000000
 H      3   2   1     2.072300974879   106.39021817   167.70613129
 C      3   2   1     2.876792001318   114.33976369    48.71976002
 N      3   2   1     2.799146094405   111.50906256   279.54655730
 C      6   3   2     2.635606205598   121.95979090    84.50465981
 O      7   6   3     2.299301065726   122.89313692   356.44130068
 C      7   6   3     2.738675921476   114.52278570   176.61734614
 C      9   7   6     2.561607210251   123.42349389     3.12209755
 N     10   9   7     2.572744481498   116.65532076   359.66356421
 C     11  10   9     2.590467488967   125.09786084   358.89586670
 O     12  11  10     2.304775178327   119.79008149   179.90201365
 C     10   9   7     2.803925694590   124.79702249   179.21177354
 Br     9   7   6     3.589783657074   115.26921682   181.94786884
 H      1   2   3     2.054500577648   109.42724937   174.77969378
 H      1   2   3     2.052120229571   110.74340294   294.11356133
 H      1   2   3     2.052313592402   111.66878586    54.68573152
 H      2   1   3     2.062204714098   108.65135419   120.64347683
 H      2   1   3     2.065873379883   109.76466146   237.64408530
 H      5   3   2     2.055773978194   110.07760494   176.18286886
 H      5   3   2     2.049582260764   111.79435861   297.04980468
 H      5   3   2     2.052019165325   108.33587339    57.43138988
 H     11  10   9     1.918807655618   119.75305855   178.81009278
 H     14  10   9     2.057190173596   109.95846122    53.65614310
 H     14  10   9     2.058200497426   109.87088961   296.28625545
 H     14  10   9     2.049308796317   111.16296895   175.14936551

---------------------
BASIS SET INFORMATION
---------------------
There are 5 groups of distinct atoms

 Group   1 Type C   : 11s6p1d contracted to 5s3p1d pattern {62111/411/1}
 Group   2 Type H   : 4s1p contracted to 2s1p pattern {31/1}
 Group   3 Type N   : 11s6p2d contracted to 5s3p2d pattern {62111/411/11}
 Group   4 Type O   : 11s6p2d contracted to 5s3p2d pattern {62111/411/11}
 Group   5 Type Br  : 17s13p7d contracted to 6s5p3d pattern {842111/64111/511}

Atom   0C    basis set group =>   1
Atom   1C    basis set group =>   1
Atom   2C    basis set group =>   1
Atom   3H    basis set group =>   2
Atom   4C    basis set group =>   1
Atom   5N    basis set group =>   3
Atom   6C    basis set group =>   1
Atom   7O    basis set group =>   4
Atom   8C    basis set group =>   1
Atom   9C    basis set group =>   1
Atom  10N    basis set group =>   3
Atom  11C    basis set group =>   1
Atom  12O    basis set group =>   4
Atom  13C    basis set group =>   1
Atom  14Br   basis set group =>   5
Atom  15H    basis set group =>   2
Atom  16H    basis set group =>   2
Atom  17H    basis set group =>   2
Atom  18H    basis set group =>   2
Atom  19H    basis set group =>   2
Atom  20H    basis set group =>   2
Atom  21H    basis set group =>   2
Atom  22H    basis set group =>   2
Atom  23H    basis set group =>   2
Atom  24H    basis set group =>   2
Atom  25H    basis set group =>   2
Atom  26H    basis set group =>   2
---------------------------------
AUXILIARY/J BASIS SET INFORMATION
---------------------------------
There are 5 groups of distinct atoms

 Group   1 Type C   : 12s5p4d2f1g contracted to 6s4p3d1f1g pattern {711111/2111/211/2/1}
 Group   2 Type H   : 5s2p1d contracted to 3s1p1d pattern {311/2/1}
 Group   3 Type N   : 12s5p4d2f1g contracted to 6s4p3d1f1g pattern {711111/2111/211/2/1}
 Group   4 Type O   : 12s5p4d2f1g contracted to 6s4p3d1f1g pattern {711111/2111/211/2/1}
 Group   5 Type Br  : 19s5p5d3f1g contracted to 8s4p3d2f1g pattern {121111111/2111/311/21/1}

Atom   0C    basis set group =>   1
Atom   1C    basis set group =>   1
Atom   2C    basis set group =>   1
Atom   3H    basis set group =>   2
Atom   4C    basis set group =>   1
Atom   5N    basis set group =>   3
Atom   6C    basis set group =>   1
Atom   7O    basis set group =>   4
Atom   8C    basis set group =>   1
Atom   9C    basis set group =>   1
Atom  10N    basis set group =>   3
Atom  11C    basis set group =>   1
Atom  12O    basis set group =>   4
Atom  13C    basis set group =>   1
Atom  14Br   basis set group =>   5
Atom  15H    basis set group =>   2
Atom  16H    basis set group =>   2
Atom  17H    basis set group =>   2
Atom  18H    basis set group =>   2
Atom  19H    basis set group =>   2
Atom  20H    basis set group =>   2
Atom  21H    basis set group =>   2
Atom  22H    basis set group =>   2
Atom  23H    basis set group =>   2
Atom  24H    basis set group =>   2
Atom  25H    basis set group =>   2
Atom  26H    basis set group =>   2

Checking for AutoStart:
The File: sp_gas.gbw exists
Trying to determine its content:
     ... Fine, the file contains calculation information
     ... Fine, the calculation information was read
     ... Fine, the file contains a basis set
     ... Fine, the basis set was read
     ... Fine, the file contains a geometry
     ... Fine, the geometry was read
     ... Fine, the file contains a set of orbitals
     ... Fine, the orbitals can be read
     => possible old guess file was deleted
     => GBW file was renamed to GES file
     => GES file is set as startup file
     => Guess is set to MORead
     ... now leaving AutoStart

------------------------------------------------------------------------------
                             ORCA STARTUP CALCULATIONS
                           -- RI-GTO INTEGRALS CHOSEN --
------------------------------------------------------------------------------
------------------------------------------------------------------------------
                   ___                                                        
                  /   \      - P O W E R E D   B Y -                         
                 /     \                                                     
                 |  |  |   _    _      __       _____    __    __             
                 |  |  |  | |  | |    /  \     |  _  \  |  |  /  |          
                  \  \/   | |  | |   /    \    | | | |  |  | /  /          
                 / \  \   | |__| |  /  /\  \   | |_| |  |  |/  /          
                |  |  |   |  __  | /  /__\  \  |    /   |      \           
                |  |  |   | |  | | |   __   |  |    \   |  |\   \          
                \     /   | |  | | |  |  |  |  | |\  \  |  | \   \       
                 \___/    |_|  |_| |__|  |__|  |_| \__\ |__|  \__/        
                                                                              
                      - O R C A' S   B I G   F R I E N D -                    
                                      &                                       
                       - I N T E G R A L  F E E D E R -                       
                                                                              
 v1 FN, 2020, v2 2021, v3 2022-2024                                           
------------------------------------------------------------------------------


----------------------
SHARK INTEGRAL PACKAGE
----------------------

Number of atoms                             ...     27
Number of basis functions                   ...    368
Number of shells                            ...    174
Maximum angular momentum                    ...      2
Integral batch strategy                     ... SHARK/LIBINT Hybrid
RI-J (if used) integral strategy            ... SPLIT-RIJ (Revised 2003 algorithm where possible)
Printlevel                                  ...      1
Contraction scheme used                     ... SEGMENTED contraction
Prescreening option                         ... SCHWARTZ
   Thresh                                   ... 1.000e-10
   Tcut                                     ... 1.000e-11
   Tpresel                                  ... 1.000e-11 
Coulomb Range Separation                    ... NOT USED
Exchange Range Separation                   ... NOT USED
Multipole approximations                    ... NOT USED
Finite Nucleus Model                        ... NOT USED
CABS basis                                  ... NOT available
Auxiliary Coulomb fitting basis             ... AVAILABLE
   # of basis functions in Aux-J            ...    838
   # of shells in Aux-J                     ...    278
   Maximum angular momentum in Aux-J        ...      4
Auxiliary J/K fitting basis                 ... NOT available
Auxiliary Correlation fitting basis         ... NOT available
Auxiliary 'external' fitting basis          ... NOT available

Checking pre-screening integrals            ... done (  0.0 sec) Dimension = 174
Check shell pair data                       ... done (  0.0 sec)
Shell pair information
Shell pair cut-off parameter TPreSel        ...   1.0e-11
Total number of shell pairs                 ...     15225
Shell pairs after pre-screening             ...     12211
Total number of primitive shell pairs       ...     58361
Primitive shell pairs kept                  ...     30204
          la=0 lb=0:   3678 shell pairs
          la=1 lb=0:   4459 shell pairs
          la=1 lb=1:   1393 shell pairs
          la=2 lb=0:   1549 shell pairs
          la=2 lb=1:    954 shell pairs
          la=2 lb=2:    178 shell pairs

Calculating one electron integrals          ... done (  0.1 sec)
Calculating RI/J V-Matrix + Cholesky decomp.... done (  0.1 sec)
Calculating Nuclear repulsion               ... done (  0.0 sec) ENN=   1292.532169756338 Eh

Diagonalization of the overlap matrix:
Smallest eigenvalue                        ... 3.721e-05
Time for diagonalization                   ...    0.015 sec
Threshold for overlap eigenvalues          ... 1.000e-07
Number of eigenvalues below threshold      ... 0
Time for construction of square roots      ...    0.024 sec
Total time needed                          ...    0.048 sec

-------------------
DFT GRID GENERATION
-------------------

General Integration Accuracy     IntAcc      ... 4.388
Radial Grid Type                 RadialGrid  ... OptM3 with GC (2021)
Angular Grid (max. ang.)         AngularGrid ... 4 (Lebedev-302)
Angular grid pruning method      GridPruning ... 4 (adaptive)
Weight generation scheme         WeightScheme... mBecke (2022)
Basis function cutoff            BFCut       ... 1.0000e-10
Integration weight cutoff        WCut        ... 1.0000e-14
Partially contracted basis set               ... off
Rotationally invariant grid construction     ... off
Angular grids for H and He will be reduced by one unit
Diffuse basis detected: some atoms will have their outermost
                        angular grid increased by 1.
Core-polarized basis detected: some atoms will have their core
                               angular grid increased.

Total number of grid points                  ...   131055
Total number of batches                      ...     2064
Average number of points per batch           ...       63
Average number of grid points per atom       ...     4854
Initializing property integral containers    ... done (  0.0 sec)

SHARK setup successfully completed in   2.2 seconds

Maximum memory used throughout the entire STARTUP-calculation: 72.9 MB
-------------------------------------------------------------------------------
                                 ORCA GUESS
                   Start orbitals & Density for SCF / CASSCF
-------------------------------------------------------------------------------

------------
SCF SETTINGS
------------
Hamiltonian:
 Density Functional     Method          .... DFT(GTOs)
  Functional kind                       .... Exchange
  Functional name                       .... Re-regularized SCAN exchange by Furness et al
  Functional family                     .... MGGA
  Functional refs                              
    [ 0] J. W. Furness, A. D. Kaplan, J. Ning, J. P. Perdew, and J. Sun.,  J. Phys. Chem. Lett. 11, 8208-8215 (2020), doi: 10.1021/acs.jpclett.0c02405
    [ 1] J. W. Furness, A. D. Kaplan, J. Ning, J. P. Perdew, and J. Sun.,  J. Phys. Chem. Lett. 11, 9248-9248 (2020), doi: 10.1021/acs.jpclett.0c03077
  Functional external parameters        .... 6
    Parameter  0 _c1        =  6.670000e-01 : c1 parameter        
    Parameter  1 _c2        =  8.000000e-01 : c2 parameter        
    Parameter  2 _d         =  1.240000e+00 : d parameter         
    Parameter  3 _k1        =  6.500000e-02 : k1 parameter        
    Parameter  4 _eta       =  1.000000e-03 : eta parameter       
    Parameter  5 _dp2       =  3.610000e-01 : dp2 parameter       
  Functional kind                       .... Correlation
  Functional name                       .... Re-regularized SCAN correlation by Furness et al
  Functional family                     .... MGGA
  Functional refs                              
    [ 0] J. W. Furness, A. D. Kaplan, J. Ning, J. P. Perdew, and J. Sun.,  J. Phys. Chem. Lett. 11, 8208-8215 (2020), doi: 10.1021/acs.jpclett.0c02405
    [ 1] J. W. Furness, A. D. Kaplan, J. Ning, J. P. Perdew, and J. Sun.,  J. Phys. Chem. Lett. 11, 9248-9248 (2020), doi: 10.1021/acs.jpclett.0c03077
  Functional external parameters        .... 1
    Parameter  0 _eta       =  1.000000e-03 : Regularization parameter
 Gradients option       PostSCFGGA      .... off
 RI-approximation to the Coulomb term is turned on
   Number of AuxJ basis functions       .... 838


General Settings:
 Integral files         IntName         .... sp_gas
 Hartree-Fock type      HFTyp           .... RHF
 Total Charge           Charge          ....    0
 Multiplicity           Mult            ....    1
 Number of Electrons    NEL             ....  132
 Basis Dimension        Dim             ....  368
 Nuclear Repulsion      ENuc            ....   1292.5321697563 Eh

Convergence Acceleration:
 AO-DIIS                CNVDIIS         .... on
   Start iteration      DIISMaxIt       ....    12
   Startup error        DIISStart       ....  0.200000
   # of expansion vecs  DIISMaxEq       ....     5
   Bias factor          DIISBfac        ....   1.050
   Max. coefficient     DIISMaxC        ....  10.000
 MO-DIIS                CNVKDIIS        .... off
 Trust-Rad. Augm. Hess. CNVTRAH         .... auto
   Auto Start mean grad. ratio tolernc. ....  1.125000
   Auto Start start iteration           ....     1
   Auto Start num. interpolation iter.  ....    10
   Max. Number of Micro iterations      ....    24
   Max. Number of Macro iterations      .... Maxiter - #DIIS iter
   Number of Davidson start vectors     ....     2
   Converg. threshold    (grad. norm)   ....   3.330e-04
   Grad. Scal. Fac. for Micro threshold ....   0.100
   Minimum threshold for Micro iter.    ....   1.000e-02
   NR start threshold (gradient norm)   ....   1.000e-04
   Initial trust radius                 ....   0.400
   Minimum AH scaling param. (alpha)    ....   1.000
   Maximum AH scaling param. (alpha)    .... 1000.000
   Quad. conv. algorithm                .... NR
   White noise on init. David. guess    .... on
   Maximum white noise                  ....   0.010
   Pseudo random numbers                .... off
   Inactive MOs                         .... canonical
   Orbital update algorithm             .... Taylor
   Preconditioner                       .... Diag
   Full preconditioner red. dimension   ....   250
   COSX micro iterations for RIJONX calc.... off
 SOSCF                  CNVSOSCF        .... on
   Start iteration      SOSCFMaxIt      ....   150
   Startup grad/error   SOSCFStart      ....  0.003300
   Hessian update       SOSCFHessUp     .... L-BFGS
 Level Shifting         CNVShift        .... on
   Level shift para.    LevelShift      ....    0.2500
   Turn off err/grad.   ShiftErr        ....    0.0010
 Zerner damping         CNVZerner       .... off
 Static damping         CNVDamp         .... on
   Fraction old density DampFac         ....    0.7000
   Max. Damping (<1)    DampMax         ....    0.9800
   Min. Damping (>=0)   DampMin         ....    0.0000
   Turn off err/grad.   DampErr         ....    0.1000

SCF Procedure:
 Maximum # iterations   MaxIter         ....   125
 SCF integral mode      SCFMode         .... Direct
   Integral package                     .... SHARK and LIBINT hybrid scheme
 Reset frequency        DirectResetFreq ....    20
 Integral Threshold     Thresh          ....  1.000e-10 Eh
 Primitive CutOff       TCut            ....  1.000e-11 Eh

Convergence Tolerance:
 Convergence Check Mode ConvCheckMode   .... Total+1el-Energy
 Convergence forced     ConvForced      .... 0
 Energy Change          TolE            ....  1.000e-06 Eh
 1-El. energy change                    ....  1.000e-03 Eh
 Orbital Gradient       TolG            ....  3.330e-04
 Orbital Rotation angle TolX            ....  3.330e-04
 DIIS Error             TolErr          ....  1.000e-06

---------------------
INITIAL GUESS: MOREAD
---------------------
Guess MOs are being read from file: sp_gas.ges
Input Geometry matches current geometry (good)
Atom 0: N(Shells)= 9 and 6 - projection required
Input basis set needs projection
NBasis(read)= 240
NBasis(calc)= 368
Basis set overlap was calculated
Using GuessMode=FMatrix for the initial guess
C*T matrix was formed
Effective Fockian was calculated
Effective Fockian was diagonalized
Initial density was built
                      ------------------
                      INITIAL GUESS DONE (   0.1 sec)
                      ------------------
             **** ENERGY FILE WAS UPDATED (sp_gas.en.tmp) ****
Finished Guess after   0.4 sec
Maximum memory used throughout the entire GUESS-calculation: 34.4 MB

-------------------------------------------------------------------------------------------
                                      ORCA LEAN-SCF
                              memory conserving SCF solver
-------------------------------------------------------------------------------------------

----------------------------------------D-I-I-S--------------------------------------------
Iteration    Energy (Eh)           Delta-E    RMSDP     MaxDP     DIISErr   Damp  Time(sec)
-------------------------------------------------------------------------------------------
               ***  Starting incremental Fock matrix formation  ***
    1    -3184.4798244308067297     0.00e+00  4.96e-03  3.23e-01  6.31e-01  0.700   7.0
    2    -3184.5724906316445413    -9.27e-02  3.89e-03  2.27e-01  4.43e-01  0.700   6.2
    3    -3184.6379234349506078    -6.54e-02  2.81e-03  1.58e-01  3.11e-01  0.700   6.1
    4    -3184.6838466525832700    -4.59e-02  1.99e-03  1.12e-01  2.18e-01  0.700   6.0
                               ***Turning on AO-DIIS***
    5    -3184.7160508553979525    -3.22e-02  1.42e-03  7.90e-02  1.52e-01  0.700   5.9
    6    -3184.7386186815811016    -2.26e-02  1.00e-03  5.58e-02  1.07e-01  0.700   5.7
    7    -3184.7544384543316482    -1.58e-02  7.02e-04  3.91e-02  7.47e-02  0.700   5.7
    8    -3184.7655207912794140    -1.11e-02  1.64e-03  9.05e-02  5.23e-02  0.000   5.6
                              *** Initializing SOSCF ***
---------------------------------------S-O-S-C-F--------------------------------------
Iteration    Energy (Eh)           Delta-E    RMSDP     MaxDP     MaxGrad    Time(sec)
--------------------------------------------------------------------------------------
    9    -3184.7914085224338123    -2.59e-02  9.42e-06  4.39e-04  2.51e-04     6.0
               *** Restarting incremental Fock matrix formation ***
   10    -3184.7914082546158170     2.68e-07  1.73e-05  7.87e-04  1.09e-04     7.1
   11    -3184.7914045201632689     3.73e-06  1.36e-05  9.46e-04  3.53e-04     4.9
   12    -3184.7914088049992642    -4.28e-06  4.83e-06  3.24e-04  2.87e-05     4.8
                  *** Gradient check signals convergence ***

               *****************************************************
               *                     SUCCESS                       *
               *           SCF CONVERGED AFTER  12 CYCLES          *
               *****************************************************

             **** ENERGY FILE WAS UPDATED (sp_gas.en.tmp) ****

----------------
TOTAL SCF ENERGY
----------------

Total Energy       :      -3184.79140880499926 Eh          -86662.58007 eV

Components:
Nuclear Repulsion  :       1292.53216975633768 Eh           35171.58843 eV
Electronic Energy  :      -4477.32357856133603 Eh         -121834.16850 eV
One Electron Energy:      -6982.86946461946809 Eh         -190013.53823 eV
Two Electron Energy:       2505.54588605813160 Eh           68179.36973 eV

Virial components:
Potential Energy   :      -6363.69750618058060 Eh         -173165.01268 eV
Kinetic Energy     :       3178.90609737558179 Eh           86502.43261 eV
Virial Ratio       :          2.00185136372360

DFT components:
N(Alpha)           :       65.999979333866 electrons
N(Beta)            :       65.999979333866 electrons
N(Total)           :      131.999958667731 electrons
E(X)               :     -171.040272413729 Eh       
E(C)               :       -4.907544220837 Eh       
E(XC)              :     -175.947816634566 Eh       

---------------
SCF CONVERGENCE
---------------

  Last Energy change         ...    4.2848e-06  Tolerance :   1.0000e-06
  Last MAX-Density change    ...    3.2391e-04  Tolerance :   1.0000e-05
  Last RMS-Density change    ...    4.8348e-06  Tolerance :   1.0000e-06
  Last DIIS Error            ...    2.5126e-04  Tolerance :   1.0000e-06
  Last Orbital Gradient      ...    2.8736e-05  Tolerance :   3.3300e-04
  Last Orbital Rotation      ...    1.9708e-04  Tolerance :   3.3300e-04


----------------
ORBITAL ENERGIES
----------------

  NO   OCC          E(Eh)            E(eV) 
   0   2.0000    -482.235480    -13122.2945 
   1   2.0000     -62.306701     -1695.4515 
   2   2.0000     -56.087289     -1526.2127 
   3   2.0000     -56.084509     -1526.1371 
   4   2.0000     -56.084305     -1526.1315 
   5   2.0000     -18.933151      -515.1972 
   6   2.0000     -18.926445      -515.0148 
   7   2.0000     -14.241722      -387.5370 
   8   2.0000     -14.228656      -387.1814 
   9   2.0000     -10.182428      -277.0779 
  10   2.0000     -10.152687      -276.2687 
  11   2.0000     -10.130076      -275.6534 
  12   2.0000     -10.098167      -274.7851 
  13   2.0000     -10.078407      -274.2474 
  14   2.0000     -10.070466      -274.0313 
  15   2.0000     -10.029781      -272.9242 
  16   2.0000     -10.016728      -272.5690 
  17   2.0000     -10.007431      -272.3160 
  18   2.0000      -8.638527      -235.0663 
  19   2.0000      -6.446652      -175.4223 
  20   2.0000      -6.432342      -175.0329 
  21   2.0000      -6.431496      -175.0099 
  22   2.0000      -2.544095       -69.2284 
  23   2.0000      -2.540586       -69.1329 
  24   2.0000      -2.540001       -69.1169 
  25   2.0000      -2.529349       -68.8271 
  26   2.0000      -2.529326       -68.8265 
  27   2.0000      -1.054369       -28.6908 
  28   2.0000      -1.015734       -27.6395 
  29   2.0000      -0.959073       -26.0977 
  30   2.0000      -0.918933       -25.0054 
  31   2.0000      -0.815082       -22.1795 
  32   2.0000      -0.773642       -21.0519 
  33   2.0000      -0.749722       -20.4010 
  34   2.0000      -0.706651       -19.2289 
  35   2.0000      -0.690610       -18.7925 
  36   2.0000      -0.641722       -17.4621 
  37   2.0000      -0.639159       -17.3924 
  38   2.0000      -0.605803       -16.4847 
  39   2.0000      -0.558968       -15.2103 
  40   2.0000      -0.553617       -15.0647 
  41   2.0000      -0.515620       -14.0307 
  42   2.0000      -0.474146       -12.9022 
  43   2.0000      -0.453184       -12.3318 
  44   2.0000      -0.438342       -11.9279 
  45   2.0000      -0.436220       -11.8701 
  46   2.0000      -0.423472       -11.5233 
  47   2.0000      -0.411578       -11.1996 
  48   2.0000      -0.409906       -11.1541 
  49   2.0000      -0.404122       -10.9967 
  50   2.0000      -0.394481       -10.7344 
  51   2.0000      -0.381734       -10.3875 
  52   2.0000      -0.378071       -10.2878 
  53   2.0000      -0.367372        -9.9967 
  54   2.0000      -0.355551        -9.6750 
  55   2.0000      -0.346665        -9.4332 
  56   2.0000      -0.337297        -9.1783 
  57   2.0000      -0.312143        -8.4938 
  58   2.0000      -0.304308        -8.2806 
  59   2.0000      -0.302039        -8.2189 
  60   2.0000      -0.292580        -7.9615 
  61   2.0000      -0.269661        -7.3379 
  62   2.0000      -0.257474        -7.0062 
  63   2.0000      -0.250399        -6.8137 
  64   2.0000      -0.233134        -6.3439 
  65   2.0000      -0.217990        -5.9318 
  66   0.0000      -0.072890        -1.9834 
  67   0.0000      -0.032680        -0.8893 
  68   0.0000      -0.025660        -0.6982 
  69   0.0000       0.038088         1.0364 
  70   0.0000       0.065278         1.7763 
  71   0.0000       0.072189         1.9644 
  72   0.0000       0.089437         2.4337 
  73   0.0000       0.102436         2.7874 
  74   0.0000       0.109188         2.9712 
  75   0.0000       0.119015         3.2386 
  76   0.0000       0.122497         3.3333 
*Only the first 10 virtual orbitals were printed.

                    ********************************
                    * MULLIKEN POPULATION ANALYSIS *
                    ********************************

-----------------------
MULLIKEN ATOMIC CHARGES
-----------------------
   0 C :   -0.479478
   1 C :   -0.328571
   2 C :   -0.030476
   3 H :    0.205318
   4 C :   -0.526956
   5 N :    0.172030
   6 C :    0.206622
   7 O :   -0.432879
   8 C :   -0.135074
   9 C :    0.161710
  10 N :   -0.036159
  11 C :    0.247351
  12 O :   -0.457317
  13 C :   -0.582644
  14 Br:   -0.078301
  15 H :    0.142116
  16 H :    0.149915
  17 H :    0.181975
  18 H :    0.150182
  19 H :    0.150841
  20 H :    0.149892
  21 H :    0.208198
  22 H :    0.154046
  23 H :    0.276027
  24 H :    0.191046
  25 H :    0.195197
  26 H :    0.145390
Sum of atomic charges:    0.0000000

--------------------------------
MULLIKEN REDUCED ORBITAL CHARGES
--------------------------------
  0 C s       :     3.326265  s :     3.326265
      pz      :     1.081861  p :     3.126416
      px      :     1.093560
      py      :     0.950995
      dz2     :     0.004986  d :     0.026797
      dxz     :     0.002918
      dyz     :     0.007036
      dx2y2   :     0.008061
      dxy     :     0.003796

  1 C s       :     3.290740  s :     3.290740
      pz      :     0.986499  p :     3.001092
      px      :     1.040957
      py      :     0.973637
      dz2     :     0.006806  d :     0.036738
      dxz     :     0.004100
      dyz     :     0.011527
      dx2y2   :     0.009853
      dxy     :     0.004451

  2 C s       :     3.149809  s :     3.149809
      pz      :     0.931000  p :     2.826010
      px      :     0.880921
      py      :     1.014089
      dz2     :     0.012419  d :     0.054657
      dxz     :     0.010678
      dyz     :     0.010834
      dx2y2   :     0.008140
      dxy     :     0.012587

  3 H s       :     0.776049  s :     0.776049
      pz      :     0.003805  p :     0.018633
      px      :     0.005311
      py      :     0.009518

  4 C s       :     3.372960  s :     3.372960
      pz      :     0.989794  p :     3.127698
      px      :     1.103578
      py      :     1.034326
      dz2     :     0.006593  d :     0.026298
      dxz     :     0.002556
      dyz     :     0.007339
      dx2y2   :     0.004537
      dxy     :     0.005273

  5 N s       :     3.171916  s :     3.171916
      pz      :     1.531569  p :     3.464467
      px      :     0.968153
      py      :     0.964745
      dz2     :     0.017280  d :     0.191587
      dxz     :     0.027720
      dyz     :     0.019228
      dx2y2   :     0.052924
      dxy     :     0.074435

  6 C s       :     3.128091  s :     3.128091
      pz      :     0.804718  p :     2.551343
      px      :     0.925220
      py      :     0.821405
      dz2     :     0.006109  d :     0.113943
      dxz     :     0.009320
      dyz     :     0.024225
      dx2y2   :     0.022973
      dxy     :     0.051315

  7 O s       :     3.864917  s :     3.864917
      pz      :     1.458750  p :     4.543750
      px      :     1.808142
      py      :     1.276858
      dz2     :     0.005991  d :     0.024213
      dxz     :     0.002927
      dyz     :     0.009839
      dx2y2   :     0.005489
      dxy     :    -0.000034

  8 C s       :     3.214889  s :     3.214889
      pz      :     1.177884  p :     2.876681
      px      :     0.817178
      py      :     0.881619
      dz2     :     0.003971  d :     0.043503
      dxz     :     0.004888
      dyz     :     0.006847
      dx2y2   :     0.013590
      dxy     :     0.014206

  9 C s       :     3.186080  s :     3.186080
      pz      :     0.905153  p :     2.588450
      px      :     0.879584
      py      :     0.803713
      dz2     :     0.004995  d :     0.063760
      dxz     :     0.010818
      dyz     :     0.011560
      dx2y2   :     0.017783
      dxy     :     0.018603

 10 N s       :     3.303028  s :     3.303028
      pz      :     1.596393  p :     3.628298
      px      :     0.884961
      py      :     1.146944
      dz2     :     0.010628  d :     0.104833
      dxz     :     0.014240
      dyz     :     0.012292
      dx2y2   :     0.025564
      dxy     :     0.042109

 11 C s       :     3.075128  s :     3.075128
      pz      :     0.828653  p :     2.548049
      px      :     0.793751
      py      :     0.925645
      dz2     :     0.007048  d :     0.129473
      dxz     :     0.023770
      dyz     :     0.017839
      dx2y2   :     0.048053
      dxy     :     0.032762

 12 O s       :     3.858585  s :     3.858585
      pz      :     1.518795  p :     4.568729
      px      :     1.421568
      py      :     1.628365
      dz2     :     0.005099  d :     0.030004
      dxz     :     0.005629
      dyz     :     0.004290
      dx2y2   :     0.004131
      dxy     :     0.010854

 13 C s       :     3.411833  s :     3.411833
      pz      :     1.119154  p :     3.144079
      px      :     1.002309
      py      :     1.022616
      dz2     :     0.005149  d :     0.026733
      dxz     :     0.007043
      dyz     :     0.002117
      dx2y2   :     0.005848
      dxy     :     0.006576

 14 Brs       :     7.973221  s :     7.973221
      pz      :     5.935819  p :    17.054871
      px      :     5.392566
      py      :     5.726486
      dz2     :     2.006077  d :    10.050208
      dxz     :     2.011347
      dyz     :     2.005494
      dx2y2   :     2.009554
      dxy     :     2.017737

 15 H s       :     0.839588  s :     0.839588
      pz      :     0.009444  p :     0.018296
      px      :     0.004737
      py      :     0.004115

 16 H s       :     0.831680  s :     0.831680
      pz      :     0.006837  p :     0.018405
      px      :     0.004212
      py      :     0.007356

 17 H s       :     0.799066  s :     0.799066
      pz      :     0.003702  p :     0.018959
      px      :     0.011716
      py      :     0.003541

 18 H s       :     0.832004  s :     0.832004
      pz      :     0.003483  p :     0.017814
      px      :     0.010810
      py      :     0.003521

 19 H s       :     0.831314  s :     0.831314
      pz      :     0.007433  p :     0.017845
      px      :     0.003598
      py      :     0.006815

 20 H s       :     0.831837  s :     0.831837
      pz      :     0.008791  p :     0.018271
      px      :     0.004565
      py      :     0.004916

 21 H s       :     0.772412  s :     0.772412
      pz      :     0.003961  p :     0.019390
      px      :     0.007083
      py      :     0.008346

 22 H s       :     0.827640  s :     0.827640
      pz      :     0.003833  p :     0.018315
      px      :     0.009940
      py      :     0.004542

 23 H s       :     0.692652  s :     0.692652
      pz      :     0.008888  p :     0.031321
      px      :     0.003385
      py      :     0.019048

 24 H s       :     0.790435  s :     0.790435
      pz      :     0.007980  p :     0.018518
      px      :     0.006865
      py      :     0.003673

 25 H s       :     0.786388  s :     0.786388
      pz      :     0.009022  p :     0.018416
      px      :     0.005361
      py      :     0.004033

 26 H s       :     0.836212  s :     0.836212
      pz      :     0.003798  p :     0.018398
      px      :     0.003563
      py      :     0.011037


------------------------
MULLIKEN OVERLAP CHARGES
------------------------
B(  0-C ,  1-C ) :   0.4275 B(  0-C ,  2-C ) :  -0.1540 B(  0-C , 15-H ) :   0.8013 
B(  0-C , 16-H ) :   0.8346 B(  0-C , 17-H ) :   0.8572 B(  0-C , 18-H ) :  -0.0654 
B(  0-C , 19-H ) :  -0.0717 B(  1-C ,  2-C ) :   0.2576 B(  1-C ,  3-H ) :  -0.0758 
B(  1-C ,  4-C ) :  -0.0700 B(  1-C , 15-H ) :  -0.0946 B(  1-C , 16-H ) :  -0.0673 
B(  1-C , 17-H ) :  -0.0892 B(  1-C , 18-H ) :   0.8456 B(  1-C , 19-H ) :   0.8804 
B(  2-C ,  3-H ) :   0.9072 B(  2-C ,  4-C ) :   0.2369 B(  2-C ,  5-N ) :   0.2501 
B(  2-C ,  6-C ) :  -0.0724 B(  2-C , 11-C ) :  -0.2080 B(  2-C , 12-O ) :  -0.0529 
B(  2-C , 18-H ) :  -0.0933 B(  2-C , 19-H ) :  -0.1397 B(  2-C , 20-H ) :  -0.0656 
B(  2-C , 21-H ) :  -0.0530 B(  2-C , 22-H ) :  -0.1129 B(  3-H ,  4-C ) :  -0.0672 
B(  3-H ,  5-N ) :  -0.0827 B(  4-C ,  5-N ) :  -0.0580 B(  4-C ,  6-C ) :  -0.0852 
B(  4-C , 20-H ) :   0.8015 B(  4-C , 21-H ) :   0.8568 B(  4-C , 22-H ) :   0.8081 
B(  5-N ,  6-C ) :   0.5881 B(  5-N ,  7-O ) :  -0.2108 B(  5-N ,  8-C ) :  -0.3874 
B(  5-N ,  9-C ) :   0.1010 B(  5-N , 10-N ) :  -0.3058 B(  5-N , 11-C ) :   0.6764 
B(  5-N , 12-O ) :  -0.2148 B(  6-C ,  7-O ) :   1.2326 B(  6-C ,  8-C ) :  -0.6616 
B(  6-C , 11-C ) :  -0.1504 B(  6-C , 13-C ) :   0.0784 B(  6-C , 14-Br) :  -0.2958 
B(  7-O ,  8-C ) :  -0.3348 B(  8-C ,  9-C ) :   0.5553 B(  8-C , 10-N ) :  -0.1822 
B(  8-C , 11-C ) :  -0.0593 B(  8-C , 13-C ) :  -0.2740 B(  8-C , 14-Br) :   0.8674 
B(  9-C , 10-N ) :   0.6209 B(  9-C , 11-C ) :  -0.2436 B(  9-C , 13-C ) :   0.2263 
B(  9-C , 14-Br) :  -0.3214 B(  9-C , 23-H ) :  -0.0963 B(  9-C , 26-H ) :  -0.1417 
B( 10-N , 11-C ) :   0.6621 B( 10-N , 12-O ) :  -0.2715 B( 10-N , 23-H ) :   0.7376 
B( 11-C , 12-O ) :   1.3287 B( 11-C , 23-H ) :  -0.0733 B( 13-C , 14-Br) :   0.0943 
B( 13-C , 24-H ) :   0.7849 B( 13-C , 25-H ) :   0.7898 B( 13-C , 26-H ) :   0.8685 



                     *******************************
                     * LOEWDIN POPULATION ANALYSIS *
                     *******************************

----------------------
LOEWDIN ATOMIC CHARGES
----------------------
   0 C :   -0.414750
   1 C :   -0.264953
   2 C :    0.043206
   3 H :    0.222968
   4 C :   -0.366767
   5 N :   -0.617139
   6 C :    0.356657
   7 O :   -0.483841
   8 C :   -0.196181
   9 C :    0.152414
  10 N :   -0.516998
  11 C :    0.458053
  12 O :   -0.424790
  13 C :   -0.351524
  14 Br:    0.262969
  15 H :    0.148538
  16 H :    0.153969
  17 H :    0.173218
  18 H :    0.160379
  19 H :    0.165529
  20 H :    0.160735
  21 H :    0.186484
  22 H :    0.159327
  23 H :    0.298647
  24 H :    0.185075
  25 H :    0.185272
  26 H :    0.163502

-------------------------------
LOEWDIN REDUCED ORBITAL CHARGES
-------------------------------
  0 C s       :     2.967158  s :     2.967158
      pz      :     1.144743  p :     3.384798
      px      :     1.157640
      py      :     1.082415
      dz2     :     0.012257  d :     0.062794
      dxz     :     0.006941
      dyz     :     0.016460
      dx2y2   :     0.018934
      dxy     :     0.008201

  1 C s       :     2.930204  s :     2.930204
      pz      :     1.069874  p :     3.256107
      px      :     1.102772
      py      :     1.083461
      dz2     :     0.014916  d :     0.078642
      dxz     :     0.008312
      dyz     :     0.025053
      dx2y2   :     0.021825
      dxy     :     0.008535

  2 C s       :     2.816272  s :     2.816272
      pz      :     1.052299  p :     3.024909
      px      :     0.917521
      py      :     1.055089
      dz2     :     0.023967  d :     0.115613
      dxz     :     0.021587
      dyz     :     0.023989
      dx2y2   :     0.016968
      dxy     :     0.029102

  3 H s       :     0.731131  s :     0.731131
      pz      :     0.009242  p :     0.045900
      px      :     0.011293
      py      :     0.025366

  4 C s       :     2.958505  s :     2.958505
      pz      :     1.077859  p :     3.346615
      px      :     1.146444
      py      :     1.122311
      dz2     :     0.015254  d :     0.061647
      dxz     :     0.005790
      dyz     :     0.016941
      dx2y2   :     0.010631
      dxy     :     0.013031

  5 N s       :     3.085095  s :     3.085095
      pz      :     1.474517  p :     3.847456
      px      :     1.210513
      py      :     1.162426
      dz2     :     0.082351  d :     0.684588
      dxz     :     0.111955
      dyz     :     0.094452
      dx2y2   :     0.198342
      dxy     :     0.197488

  6 C s       :     2.710101  s :     2.710101
      pz      :     0.767173  p :     2.685050
      px      :     0.943138
      py      :     0.974739
      dz2     :     0.015892  d :     0.248192
      dxz     :     0.017052
      dyz     :     0.045230
      dx2y2   :     0.055556
      dxy     :     0.114462

  7 O s       :     3.545524  s :     3.545524
      pz      :     1.451470  p :     4.673177
      px      :     1.758820
      py      :     1.462887
      dz2     :     0.031740  d :     0.265140
      dxz     :     0.026113
      dyz     :     0.053077
      dx2y2   :     0.078441
      dxy     :     0.075769

  8 C s       :     2.903765  s :     2.903765
      pz      :     1.145229  p :     3.203247
      px      :     1.002260
      py      :     1.055759
      dz2     :     0.007686  d :     0.089169
      dxz     :     0.007836
      dyz     :     0.011844
      dx2y2   :     0.030423
      dxy     :     0.031381

  9 C s       :     2.786094  s :     2.786094
      pz      :     0.875399  p :     2.924648
      px      :     0.996128
      py      :     1.053121
      dz2     :     0.010416  d :     0.136843
      dxz     :     0.019488
      dyz     :     0.022460
      dx2y2   :     0.042069
      dxy     :     0.042411

 10 N s       :     3.078966  s :     3.078966
      pz      :     1.529833  p :     3.921115
      px      :     1.181574
      py      :     1.209708
      dz2     :     0.059794  d :     0.516917
      dxz     :     0.100560
      dyz     :     0.041731
      dx2y2   :     0.180874
      dxy     :     0.133958

 11 C s       :     2.656250  s :     2.656250
      pz      :     0.752190  p :     2.604312
      px      :     0.935185
      py      :     0.916937
      dz2     :     0.018663  d :     0.281386
      dxz     :     0.045063
      dyz     :     0.033680
      dx2y2   :     0.106629
      dxy     :     0.077351

 12 O s       :     3.541054  s :     3.541054
      pz      :     1.498549  p :     4.655457
      px      :     1.522497
      py      :     1.634411
      dz2     :     0.028194  d :     0.228279
      dxz     :     0.042364
      dyz     :     0.023816
      dx2y2   :     0.067786
      dxy     :     0.066120

 13 C s       :     2.947335  s :     2.947335
      pz      :     1.163326  p :     3.343030
      px      :     1.062722
      py      :     1.116983
      dz2     :     0.011751  d :     0.061159
      dxz     :     0.016915
      dyz     :     0.004063
      dx2y2   :     0.013893
      dxy     :     0.014537

 14 Brs       :     7.661364  s :     7.661364
      pz      :     5.912504  p :    17.003102
      px      :     5.384614
      py      :     5.705984
      dz2     :     2.009659  d :    10.072564
      dxz     :     2.014763
      dyz     :     2.007218
      dx2y2   :     2.012244
      dxy     :     2.028681

 15 H s       :     0.807880  s :     0.807880
      pz      :     0.023122  p :     0.043582
      px      :     0.011302
      py      :     0.009158

 16 H s       :     0.802233  s :     0.802233
      pz      :     0.016475  p :     0.043798
      px      :     0.009672
      py      :     0.017651

 17 H s       :     0.780211  s :     0.780211
      pz      :     0.008145  p :     0.046571
      px      :     0.030502
      py      :     0.007925

 18 H s       :     0.796267  s :     0.796267
      pz      :     0.008178  p :     0.043354
      px      :     0.026890
      py      :     0.008286

 19 H s       :     0.791514  s :     0.791514
      pz      :     0.017971  p :     0.042957
      px      :     0.008213
      py      :     0.016773

 20 H s       :     0.795849  s :     0.795849
      pz      :     0.021025  p :     0.043416
      px      :     0.010511
      py      :     0.011880

 21 H s       :     0.765144  s :     0.765144
      pz      :     0.009173  p :     0.048372
      px      :     0.017904
      py      :     0.021296

 22 H s       :     0.796690  s :     0.796690
      pz      :     0.008416  p :     0.043983
      px      :     0.025030
      py      :     0.010537

 23 H s       :     0.618271  s :     0.618271
      pz      :     0.021826  p :     0.083081
      px      :     0.009350
      py      :     0.051905

 24 H s       :     0.770194  s :     0.770194
      pz      :     0.020227  p :     0.044731
      px      :     0.016417
      py      :     0.008087

 25 H s       :     0.770173  s :     0.770173
      pz      :     0.022915  p :     0.044555
      px      :     0.012482
      py      :     0.009158

 26 H s       :     0.793116  s :     0.793116
      pz      :     0.008499  p :     0.043382
      px      :     0.007991
      py      :     0.026893


---------------------------------
LOEWDIN BOND ORDERS (THRESH 0.050000)
---------------------------------
B(  0-C ,  1-C ) :   1.1379 B(  0-C ,  2-C ) :   0.0575 B(  0-C , 15-H ) :   0.9263 
B(  0-C , 16-H ) :   0.9237 B(  0-C , 17-H ) :   0.9036 B(  1-C ,  2-C ) :   1.0069 
B(  1-C ,  4-C ) :   0.0602 B(  1-C ,  5-N ) :   0.1426 B(  1-C , 18-H ) :   0.8820 
B(  1-C , 19-H ) :   0.8788 B(  2-C ,  3-H ) :   0.7513 B(  2-C ,  4-C ) :   1.0453 
B(  2-C ,  5-N ) :   1.1797 B(  2-C ,  6-C ) :   0.0609 B(  2-C , 11-C ) :   0.0787 
B(  2-C , 12-O ) :   0.0765 B(  3-H ,  5-N ) :   0.0918 B(  4-C ,  5-N ) :   0.1329 
B(  4-C ,  7-O ) :   0.0581 B(  4-C , 20-H ) :   0.9155 B(  4-C , 21-H ) :   0.8870 
B(  4-C , 22-H ) :   0.9090 B(  5-N ,  6-C ) :   1.2229 B(  5-N ,  7-O ) :   0.4014 
B(  5-N ,  8-C ) :   0.1479 B(  5-N ,  9-C ) :   0.0559 B(  5-N , 10-N ) :   0.2503 
B(  5-N , 11-C ) :   1.1920 B(  5-N , 12-O ) :   0.3911 B(  6-C ,  7-O ) :   2.0906 
B(  6-C ,  8-C ) :   0.9807 B(  6-C ,  9-C ) :   0.0907 B(  6-C , 10-N ) :   0.0526 
B(  6-C , 11-C ) :   0.0727 B(  6-C , 14-Br) :   0.1025 B(  7-O ,  8-C ) :   0.2225 
B(  7-O ,  9-C ) :   0.0574 B(  7-O , 14-Br) :   0.0744 B(  8-C ,  9-C ) :   1.4740 
B(  8-C , 10-N ) :   0.2582 B(  8-C , 13-C ) :   0.0895 B(  8-C , 14-Br) :   1.3131 
B(  9-C , 10-N ) :   1.4500 B(  9-C , 11-C ) :   0.0762 B(  9-C , 13-C ) :   1.0514 
B(  9-C , 14-Br) :   0.1425 B( 10-N , 11-C ) :   1.2212 B( 10-N , 12-O ) :   0.4143 
B( 10-N , 13-C ) :   0.1688 B( 10-N , 23-H ) :   0.8327 B( 11-C , 12-O ) :   1.9855 
B( 13-C , 14-Br) :   0.0545 B( 13-C , 24-H ) :   0.8960 B( 13-C , 25-H ) :   0.8951 
B( 13-C , 26-H ) :   0.9069 

------------------------------------------
LOEWDIN REDUCED ORBITAL POPULATIONS PER MO
-------------------------------------------
THRESHOLD FOR PRINTING IS 0.1%%
                      0         1         2         3         4         5   
                 -482.23548 -62.30670 -56.08729 -56.08451 -56.08430 -18.93315
                   2.00000   2.00000   2.00000   2.00000   2.00000   2.00000
                  --------  --------  --------  --------  --------  --------
12 O  s               0.0       0.0       0.0       0.0       0.0      99.9
14 Br s             100.0     100.0       0.0       0.0       0.0       0.0
14 Br pz              0.0       0.0       0.0      95.8       4.2       0.0
14 Br px              0.0       0.0      72.9       0.8      26.3       0.0
14 Br py              0.0       0.0      27.0       3.4      69.5       0.0

                      6         7         8         9        10        11   
                 -18.92645 -14.24172 -14.22866 -10.18243 -10.15269 -10.13008
                   2.00000   2.00000   2.00000   2.00000   2.00000   2.00000
                  --------  --------  --------  --------  --------  --------
 5 N  s               0.0       0.0      99.8       0.0       0.0       0.0
 5 N  py              0.0       0.0       0.0       0.1       0.0       0.0
 5 N  dx2y2           0.0       0.0       0.0       0.2       0.0       0.0
 5 N  dxy             0.0       0.0       0.0       0.0       0.2       0.0
 6 C  s               0.0       0.0       0.0       0.0      98.9       0.0
 7 O  s              99.9       0.0       0.0       0.0       0.0       0.0
 7 O  py              0.0       0.0       0.0       0.0       0.2       0.0
 7 O  dx2y2           0.0       0.0       0.0       0.0       0.2       0.0
 8 C  py              0.0       0.0       0.0       0.0       0.0       0.1
 9 C  s               0.0       0.0       0.0       0.0       0.0      99.2
10 N  s               0.0      99.8       0.0       0.0       0.0       0.0
10 N  px              0.0       0.0       0.0       0.1       0.0       0.1
10 N  dxy             0.0       0.0       0.0       0.1       0.0       0.2
11 C  s               0.0       0.0       0.0      98.6       0.0       0.0
12 O  px              0.0       0.0       0.0       0.1       0.0       0.0
12 O  dxy             0.0       0.0       0.0       0.2       0.0       0.0

                     12        13        14        15        16        17   
                 -10.09817 -10.07841 -10.07047 -10.02978 -10.01673 -10.00743
                   2.00000   2.00000   2.00000   2.00000   2.00000   2.00000
                  --------  --------  --------  --------  --------  --------
 0 C  s               0.0       0.0       0.0       0.0       0.0      99.7
 1 C  s               0.0       0.0       0.0      99.7       0.0       0.0
 2 C  s               0.0      99.4       0.0       0.0       0.0       0.0
 4 C  s               0.0       0.0       0.0       0.0      99.7       0.0
 5 N  dxy             0.0       0.1       0.0       0.0       0.0       0.0
 8 C  s              99.6       0.0       0.0       0.0       0.0       0.0
 9 C  py              0.2       0.0       0.0       0.0       0.0       0.0
13 C  s               0.0       0.0      99.7       0.0       0.0       0.0

                     18        19        20        21        22        23   
                  -8.63853  -6.44665  -6.43234  -6.43150  -2.54410  -2.54059
                   2.00000   2.00000   2.00000   2.00000   2.00000   2.00000
                  --------  --------  --------  --------  --------  --------
 8 C  px              0.1       0.0       0.0       0.0       0.0       0.0
14 Br s              99.8       0.0       0.0       0.0       0.0       0.0
14 Br pz              0.0       0.0      97.3       2.6       0.0       0.0
14 Br px              0.0      72.6       0.5      26.9       0.0       0.0
14 Br py              0.0      27.3       2.2      70.5       0.0       0.0
14 Br dz2             0.0       0.0       0.0       0.0      26.9       0.1
14 Br dxz             0.0       0.0       0.0       0.0       0.1      70.5
14 Br dyz             0.0       0.0       0.0       0.0       0.1      26.3
14 Br dx2y2           0.0       0.0       0.0       0.0      15.2       2.1
14 Br dxy             0.0       0.0       0.0       0.0      57.7       1.0

                     24        25        26        27        28        29   
                  -2.54000  -2.52935  -2.52933  -1.05437  -1.01573  -0.95907
                   2.00000   2.00000   2.00000   2.00000   2.00000   2.00000
                  --------  --------  --------  --------  --------  --------
 1 C  s               0.0       0.0       0.0       0.1       0.0       0.0
 1 C  px              0.0       0.0       0.0       0.1       0.1       0.0
 2 C  s               0.0       0.0       0.0       1.2       0.2       0.0
 2 C  px              0.0       0.0       0.0       1.1       0.6       0.0
 2 C  py              0.0       0.0       0.0       0.7       0.1       0.0
 3 H  s               0.0       0.0       0.0       0.2       0.0       0.0
 4 C  px              0.0       0.0       0.0       0.1       0.2       0.0
 5 N  s               0.0       0.0       0.0      10.2       2.2       0.3
 5 N  px              0.0       0.0       0.0       0.1       1.2       0.5
 5 N  py              0.0       0.0       0.0       1.3       2.6       0.0
 5 N  dz2             0.0       0.0       0.0       1.1       0.2       0.0
 5 N  dyz             0.0       0.0       0.0       0.1       0.0       0.0
 5 N  dx2y2           0.0       0.0       0.0       0.5       0.1       0.1
 5 N  dxy             0.0       0.0       0.0       0.2       0.6       1.1
 6 C  s               0.0       0.0       0.0       4.3      15.8       0.0
 6 C  px              0.0       0.0       0.0       0.5       0.1       0.1
 6 C  py              0.0       0.0       0.0       0.3       8.4       2.2
 6 C  dz2             0.0       0.0       0.0       0.1       0.5       0.0
 6 C  dx2y2           0.0       0.0       0.0       0.0       0.7       0.1
 7 O  s               0.0       0.0       0.0       3.3      39.0       1.8
 7 O  py              0.0       0.0       0.0       0.7       5.3       0.1
 7 O  dz2             0.0       0.0       0.0       0.1       0.2       0.0
 7 O  dx2y2           0.0       0.0       0.0       0.1       0.4       0.0
 8 C  s               0.0       0.0       0.0       1.2       1.2       1.9
 8 C  px              0.0       0.0       0.0       0.8       0.8       0.1
 8 C  py              0.0       0.0       0.0       0.1       1.4       2.1
 9 C  s               0.0       0.0       0.0       2.1       0.0      10.6
 9 C  px              0.0       0.0       0.0       1.9       0.1       3.4
 9 C  py              0.0       0.0       0.0       0.0       0.4       0.6
 9 C  dz2             0.0       0.0       0.0       0.0       0.0       0.2
 9 C  dxy             0.0       0.0       0.0       0.0       0.0       0.1
10 N  s               0.0       0.0       0.0      10.5       1.0      25.7
10 N  px              0.0       0.0       0.0       1.3       0.3       2.1
10 N  py              0.0       0.0       0.0       0.6       0.0       0.5
10 N  dz2             0.0       0.0       0.0       0.8       0.0       0.1
10 N  dx2y2           0.0       0.0       0.0       0.5       0.3       0.1
10 N  dxy             0.0       0.0       0.0       0.2       0.0       0.2
11 C  s               0.0       0.0       0.0      19.7       1.9       0.1
11 C  px              0.0       0.0       0.0       0.8       1.2      17.8
11 C  py              0.0       0.0       0.0       0.4       2.6       0.6
11 C  dz2             0.0       0.0       0.0       0.6       0.1       0.0
11 C  dx2y2           0.0       0.0       0.0       0.0       0.1       0.0
11 C  dxy             0.0       0.0       0.0       0.2       0.1       0.9
12 O  s               0.0       0.0       0.0      23.5       7.7      17.5
12 O  px              0.0       0.0       0.0       3.2       0.7       0.8
12 O  py              0.0       0.0       0.0       1.2       0.2       0.5
12 O  dz2             0.0       0.0       0.0       0.4       0.0       0.1
12 O  dx2y2           0.0       0.0       0.0       0.1       0.0       0.2
12 O  dxy             0.0       0.0       0.0       0.5       0.0       0.0
13 C  s               0.0       0.0       0.0       0.1       0.0       1.3
13 C  px              0.0       0.0       0.0       0.2       0.0       1.1
13 C  py              0.0       0.0       0.0       0.0       0.0       0.2
14 Br px              0.0       0.0       0.0       0.1       0.2       0.0
14 Br dz2             0.0      12.8      60.2       0.0       0.0       0.0
14 Br dxz             1.9      23.5       4.1       0.0       0.0       0.0
14 Br dyz             1.1      59.3      13.1       0.0       0.0       0.0
14 Br dx2y2          77.2       1.2       4.3       0.0       0.0       0.0
14 Br dxy            19.8       3.2      18.3       0.0       0.0       0.0
23 H  s               0.0       0.0       0.0       1.3       0.2       3.1
23 H  py              0.0       0.0       0.0       0.2       0.0       0.6
26 H  s               0.0       0.0       0.0       0.0       0.0       0.1

                     30        31        32        33        34        35   
                  -0.91893  -0.81508  -0.77364  -0.74972  -0.70665  -0.69061
                   2.00000   2.00000   2.00000   2.00000   2.00000   2.00000
                  --------  --------  --------  --------  --------  --------
 0 C  s               0.1       0.0       4.9       2.2       8.4      12.3
 0 C  pz              0.0       0.0       0.3       0.1       0.0       0.0
 0 C  px              0.0       0.0       0.1       0.1       0.1       0.1
 0 C  py              0.1       0.0       1.2       0.4       0.4       0.4
 1 C  s               0.7       0.0      13.1       4.2       6.3       6.1
 1 C  pz              0.4       0.0       1.0       0.1       0.5       2.3
 1 C  px              0.3       0.0       0.3       0.0       0.0       0.0
 1 C  py              0.1       0.0       0.0       0.1       1.2       1.7
 2 C  s               5.5       0.1      15.3       2.2       0.4       3.2
 2 C  pz              0.1       0.0       0.1       0.1       1.4       6.9
 2 C  px              2.6       0.0       0.6       0.5       0.9       0.0
 2 C  py              0.5       0.0       1.2       0.6       0.8       0.5
 2 C  dyz             0.0       0.0       0.0       0.0       0.0       0.1
 2 C  dxy             0.1       0.0       0.0       0.0       0.0       0.0
 3 H  s               0.5       0.0       2.3       0.3       0.1       0.7
 3 H  py              0.0       0.0       0.1       0.0       0.0       0.1
 4 C  s               0.6       0.0       7.7       1.6       0.5      15.4
 4 C  pz              0.3       0.0       1.4       0.2       0.0       0.1
 4 C  py              0.4       0.0       0.6       0.1       0.1       0.3
 5 N  s              30.8       0.0       0.5       0.7       1.0       0.4
 5 N  pz              0.0       0.0       0.2       0.0       0.1       0.6
 5 N  px              0.3       0.4       6.9       0.5       3.1       0.2
 5 N  py              0.1       0.1       2.0       0.0       0.2       2.1
 5 N  dxz             0.0       0.0       0.0       0.0       0.0       0.3
 5 N  dyz             0.0       0.0       0.0       0.0       0.0       0.1
 5 N  dx2y2           0.4       0.5       0.3       0.0       0.4       0.4
 5 N  dxy             0.3       0.1       0.7       0.5       0.0       0.1
 6 C  s               0.2       1.2       1.0       0.1       1.9       0.2
 6 C  pz              0.0       0.1       0.0       0.0       0.1       0.1
 6 C  px              4.9       3.6       0.4       1.1       1.1       0.3
 6 C  py              8.7       2.8       1.9       0.0       2.7       0.3
 6 C  dx2y2           0.5       0.1       0.0       0.0       0.0       0.0
 6 C  dxy             0.2       0.1       0.0       0.0       0.1       0.1
 7 O  s               8.5       1.3       0.3       0.1       0.6       0.2
 7 O  px              0.1       0.1       0.1       0.1       0.0       0.0
 7 O  py              0.5       0.2       0.1       0.0       0.3       0.1
 7 O  dz2             0.1       0.1       0.0       0.0       0.0       0.0
 7 O  dx2y2           0.1       0.0       0.2       0.1       0.3       0.0
 7 O  dxy             0.3       0.2       0.0       0.1       0.1       0.0
 8 C  s               0.1      21.4       0.5       1.2       4.5       1.7
 8 C  px              0.3       2.9       0.4       3.1       7.5       1.0
 8 C  py              0.1       0.2       1.1       5.3       1.8       0.5
 8 C  dz2             0.0       0.2       0.0       0.0       0.0       0.0
 8 C  dxy             0.0       0.0       0.0       0.1       0.1       0.0
 9 C  s               1.4       8.4       2.3       4.1       0.9       0.6
 9 C  pz              0.0       0.0       0.1       0.1       0.2       0.1
 9 C  px              0.3       3.7       1.2       3.0       2.1       1.7
 9 C  py              0.5       4.7       2.1       2.3       5.4       1.6
 9 C  dx2y2           0.0       0.2       0.0       0.0       0.1       0.0
 9 C  dxy             0.0       0.1       0.0       0.1       0.0       0.0
10 N  s               5.3       4.7       0.1       1.7       0.5       0.0
10 N  px              0.2       2.7       2.7       3.4       0.5       1.3
10 N  py              0.3       0.8       0.6       0.1       2.1       0.0
10 N  dz2             0.0       0.3       0.0       0.2       0.0       0.0
10 N  dx2y2           0.4       0.1       0.5       0.5       0.1       0.0
10 N  dxy             0.4       0.7       0.2       0.0       0.7       0.7
11 C  s               0.2       0.4       1.0       0.2       0.3       0.9
11 C  pz              0.4       0.0       0.0       0.0       0.0       0.0
11 C  px              0.1       2.4       1.3       1.2       0.1       0.4
11 C  py             13.7       0.2       0.4       0.8       0.3       0.7
11 C  dx2y2           0.7       0.0       0.0       0.0       0.1       0.1
11 C  dxy             0.0       0.2       0.0       0.2       0.1       0.0
12 O  s               3.5       1.5       0.2       0.4       0.8       0.6
12 O  px              0.3       0.2       0.1       0.2       0.1       0.2
12 O  py              0.2       0.0       0.0       0.0       0.1       0.0
12 O  dx2y2           0.4       0.2       0.1       0.1       0.0       0.0
12 O  dxy             0.3       0.0       0.1       0.0       0.0       0.1
13 C  s               0.3       5.2       5.7      14.9       5.5       4.7
13 C  px              0.2       0.3       0.3       0.3       0.1       0.3
13 C  py              0.0       1.1       0.0       0.1       0.1       0.1
14 Br s               0.0      19.3       0.7      26.9      18.7       2.8
14 Br px              0.0       1.1       0.0       0.2       0.5       0.2
14 Br py              0.0       0.7       0.0       0.1       0.1       0.0
14 Br dxy             0.0       0.2       0.0       0.0       0.0       0.0
15 H  s               0.0       0.0       0.6       0.3       1.5       2.5
15 H  pz              0.0       0.0       0.0       0.0       0.1       0.2
16 H  s               0.0       0.0       0.6       0.3       1.4       2.1
17 H  s               0.0       0.0       0.6       0.3       1.3       2.1
17 H  px              0.0       0.0       0.1       0.0       0.1       0.2
18 H  s               0.0       0.0       1.8       0.7       1.2       1.1
18 H  px              0.0       0.0       0.2       0.1       0.1       0.1
19 H  s               0.1       0.0       1.7       0.6       1.0       1.3
20 H  s               0.0       0.0       1.0       0.2       0.1       3.2
20 H  pz              0.0       0.0       0.1       0.0       0.0       0.2
21 H  s               0.0       0.0       1.0       0.2       0.1       2.5
21 H  py              0.0       0.0       0.1       0.0       0.0       0.2
22 H  s               0.0       0.0       1.1       0.3       0.1       3.0
22 H  px              0.0       0.0       0.1       0.0       0.0       0.2
23 H  s               1.1       1.3       0.2       0.5       1.0       0.0
23 H  py              0.2       0.2       0.0       0.1       0.1       0.0
24 H  s               0.0       0.8       0.9       2.6       1.2       1.2
24 H  pz              0.0       0.0       0.0       0.1       0.1       0.1
24 H  px              0.0       0.0       0.0       0.1       0.0       0.0
25 H  s               0.0       0.7       0.9       2.6       1.2       1.2
25 H  pz              0.0       0.0       0.1       0.2       0.1       0.1
26 H  s               0.0       0.6       1.1       2.9       1.5       1.2
26 H  py              0.0       0.0       0.1       0.3       0.1       0.1

                     36        37        38        39        40        41   
                  -0.64172  -0.63916  -0.60580  -0.55897  -0.55362  -0.51562
                   2.00000   2.00000   2.00000   2.00000   2.00000   2.00000
                  --------  --------  --------  --------  --------  --------
[...]
10 N  dxy            17.1       0.0       1.3      12.1       0.0       0.2
11 C  s               5.3       0.7       1.8       0.2       1.8       2.1
11 C  pz              0.0       0.0       0.0       0.3       0.0       0.0
11 C  px              4.1       0.1       0.1       1.7       2.8       4.7
11 C  py              0.6       0.6       0.2       6.2       0.8       1.0
11 C  dz2             1.6       0.6       0.5       0.0       0.5       0.4
11 C  dxz             0.1       0.0       0.0       0.3       0.0       0.0
11 C  dyz             0.3       0.2       0.1       0.2       0.0       0.0
11 C  dx2y2           0.2       1.5       0.6      11.8       0.2       0.3
11 C  dxy             1.7       0.0       0.1       2.7       1.6       3.4
12 O  s               0.3       0.2       2.7       1.0       7.5      10.8
12 O  px              0.5       0.9       2.3       0.1       6.0       8.2
12 O  py              0.1       0.1       0.4       1.7       2.7       3.4
12 O  dz2             0.6       0.5       1.5       0.3       2.9       3.2
12 O  dyz             0.1       0.0       0.0       0.1       0.0       0.0
12 O  dx2y2           0.0       1.2       0.8       1.2       2.0       2.6
12 O  dxy             0.5       0.1       1.0       1.6       8.0      10.3
13 C  py              0.2       0.0       0.4       0.0       0.0       0.0
13 C  dz2             0.1       0.0       0.0       0.0       0.0       0.0
13 C  dx2y2           0.2       0.0       0.2       0.0       0.0       0.0
13 C  dxy             0.0       0.0       0.4       0.0       0.0       0.1
18 H  px              0.1       0.0       0.0       0.0       0.0       0.0
22 H  px              0.1       0.1       0.0       0.0       0.0       0.0
23 H  s               0.1       0.1       7.6       1.8       0.4       1.0
23 H  pz              0.0       0.0       0.3       0.1       0.0       0.0
23 H  px              0.4       0.0       0.2       0.3       0.0       0.0
23 H  py              0.1       0.4      11.1       2.1       0.6       1.0
26 H  s               0.1       0.0       0.2       0.0       0.0       0.0
26 H  py              0.1       0.0       0.3       0.0       0.0       0.0

                    354       355       356       357       358       359   
                   7.54439  21.74483  21.98320  22.02476  22.06864  22.10980
                   0.00000   0.00000   0.00000   0.00000   0.00000   0.00000
                  --------  --------  --------  --------  --------  --------
 0 C  s               0.0       0.2       0.0      77.1      18.5       0.8
 1 C  s               0.0       1.1       0.0       0.0       6.2      91.6
 2 C  s               0.0       0.5       0.3       0.1       7.6       1.9
 4 C  s               0.0       0.2       0.1      22.4      64.6       3.9
 6 C  s               0.1       0.3       0.2       0.0       1.8       0.0
 8 C  s               0.1      70.8       0.0       0.0       0.1       0.7
 8 C  px              0.5       0.0       0.0       0.0       0.0       0.0
 8 C  py              0.2       0.0       0.0       0.0       0.0       0.0
 9 C  s               0.0      25.8       0.4       0.0       0.5       0.3
 9 C  px              0.0       0.1       0.1       0.0       0.0       0.0
11 C  s               0.0       0.1       0.3       0.0       0.2       0.3
13 C  s               0.1       0.1      98.1       0.0       0.2       0.0
14 Br s              98.6       0.0       0.0       0.0       0.0       0.0

                    360       361       362       363       364       365   
                  22.17691  22.30321  22.35901  22.48066  31.96017  32.14122
                   0.00000   0.00000   0.00000   0.00000   0.00000   0.00000
                  --------  --------  --------  --------  --------  --------
 0 C  s               0.0       2.8       0.0       0.1       0.0       0.0
 1 C  s               0.1       0.2       0.2       0.2       0.0       0.0
 2 C  s               3.4      81.5       3.9       0.4       0.0       0.0
 4 C  s               0.3       7.3       0.1       0.7       0.0       0.0
 5 N  s               0.0       0.2       0.1       0.1       0.8      99.0
 5 N  px              0.0       0.0       0.2       0.0       0.0       0.0
 5 N  py              0.0       0.0       0.0       0.2       0.0       0.0
 6 C  s               6.7       4.2      83.7       1.9       0.0       0.0
 7 O  s               0.0       0.0       0.2       0.0       0.0       0.0
 7 O  py              0.0       0.0       0.1       0.0       0.0       0.0
 8 C  s              21.4       1.3       4.8       0.1       0.0       0.0
 8 C  py              0.1       0.0       0.0       0.0       0.0       0.0
 9 C  s              67.0       0.3       4.6       0.2       0.0       0.0
10 N  s               0.1       0.0       0.0       0.1      99.0       0.8
10 N  px              0.1       0.0       0.0       0.2       0.0       0.0
11 C  s               0.0       1.3       1.4      95.0       0.0       0.0
12 O  s               0.0       0.0       0.0       0.2       0.0       0.0
12 O  px              0.0       0.0       0.0       0.1       0.0       0.0
13 C  s               0.2       0.3       0.2       0.2       0.0       0.0

                    366       367   
                  43.79676  43.84833
                   0.00000   0.00000
                  --------  --------
 7 O  s              31.4      68.4
12 O  s              68.4      31.5


                      *****************************
                      * MAYER POPULATION ANALYSIS *
                      *****************************

  NA   - Mulliken gross atomic population
  ZA   - Total nuclear charge
  QA   - Mulliken gross atomic charge
  VA   - Mayer's total valence
  BVA  - Mayer's bonded valence
  FA   - Mayer's free valence

  ATOM       NA         ZA         QA         VA         BVA        FA
  0 C      6.4795     6.0000    -0.4795     3.7947     3.7947    -0.0000
  1 C      6.3286     6.0000    -0.3286     3.6860     3.6860    -0.0000
  2 C      6.0305     6.0000    -0.0305     3.4633     3.4633     0.0000
  3 H      0.7947     1.0000     0.2053     0.9435     0.9435     0.0000
  4 C      6.5270     6.0000    -0.5270     3.7254     3.7254     0.0000
  5 N      6.8280     7.0000     0.1720     3.2135     3.2135     0.0000
  6 C      5.7934     6.0000     0.2066     3.9978     3.9978     0.0000
  7 O      8.4329     8.0000    -0.4329     2.0146     2.0146    -0.0000
  8 C      6.1351     6.0000    -0.1351     3.5490     3.5490     0.0000
  9 C      5.8383     6.0000     0.1617     3.5382     3.5382    -0.0000
 10 N      7.0362     7.0000    -0.0362     3.2481     3.2481    -0.0000
 11 C      5.7526     6.0000     0.2474     4.1158     4.1158    -0.0000
 12 O      8.4573     8.0000    -0.4573     2.0426     2.0426     0.0000
 13 C      6.5826     6.0000    -0.5826     3.8484     3.8484     0.0000
 14 Br    35.0783    35.0000    -0.0783     1.1886     1.1886    -0.0000
 15 H      0.8579     1.0000     0.1421     0.9611     0.9611    -0.0000
 16 H      0.8501     1.0000     0.1499     0.9622     0.9622    -0.0000
 17 H      0.8180     1.0000     0.1820     0.9553     0.9553    -0.0000
 18 H      0.8498     1.0000     0.1502     0.9596     0.9596     0.0000
 19 H      0.8492     1.0000     0.1508     0.9628     0.9628     0.0000
 20 H      0.8501     1.0000     0.1499     0.9634     0.9634    -0.0000
 21 H      0.7918     1.0000     0.2082     0.9487     0.9487    -0.0000
 22 H      0.8460     1.0000     0.1540     0.9599     0.9599    -0.0000
 23 H      0.7240     1.0000     0.2760     0.9164     0.9164    -0.0000
 24 H      0.8090     1.0000     0.1910     0.9501     0.9501     0.0000
 25 H      0.8048     1.0000     0.1952     0.9474     0.9474     0.0000
 26 H      0.8546     1.0000     0.1454     0.9648     0.9648     0.0000

  Mayer bond orders larger than 0.100000
B(  0-C ,  1-C ) :   0.9019 B(  0-C , 15-H ) :   0.9695 B(  0-C , 16-H ) :   0.9743 
B(  0-C , 17-H ) :   0.9702 B(  1-C ,  2-C ) :   0.8729 B(  1-C , 18-H ) :   0.9752 
B(  1-C , 19-H ) :   0.9864 B(  2-C ,  3-H ) :   0.9546 B(  2-C ,  4-C ) :   0.8462 
B(  2-C ,  5-N ) :   0.8536 B(  4-C , 20-H ) :   0.9728 B(  4-C , 21-H ) :   0.9675 
B(  4-C , 22-H ) :   0.9688 B(  5-N ,  6-C ) :   1.1049 B(  5-N , 11-C ) :   1.1188 
B(  6-C ,  7-O ) :   1.8864 B(  6-C ,  8-C ) :   0.9932 B(  6-C , 14-Br) :  -0.1007 
B(  8-C ,  9-C ) :   1.4799 B(  8-C , 14-Br) :   1.1852 B(  9-C , 10-N ) :   1.1515 
B(  9-C , 13-C ) :   0.8634 B( 10-N , 11-C ) :   1.0523 B( 10-N , 23-H ) :   0.9046 
B( 11-C , 12-O ) :   1.8934 B( 13-C , 24-H ) :   0.9495 B( 13-C , 25-H ) :   0.9470 
B( 13-C , 26-H ) :   0.9929 

-------
TIMINGS
-------

Total SCF time: 0 days 0 hours 1 min 11 sec 

Total time                  ....      71.551 sec
Sum of individual times     ....      70.812 sec  ( 99.0%)

SCF preparation             ....       0.240 sec  (  0.3%)
Fock matrix formation       ....      68.534 sec  ( 95.8%)
  Startup                   ....       0.086 sec  (  0.1% of F)
  Split-RI-J                ....      19.126 sec  ( 27.9% of F)
  XC integration            ....      48.466 sec  ( 70.7% of F)
    Basis function eval.    ....       8.339 sec  ( 17.2% of XC)
    Density eval.           ....      17.486 sec  ( 36.1% of XC)
    XC-Functional eval.     ....       4.180 sec  (  8.6% of XC)
    XC-Potential eval.      ....      16.760 sec  ( 34.6% of XC)
Diagonalization             ....       0.000 sec  (  0.0%)
Density matrix formation    ....       0.363 sec  (  0.5%)
Total Energy calculation    ....       0.050 sec  (  0.1%)
Population analysis         ....       0.241 sec  (  0.3%)
Orbital Transformation      ....       0.136 sec  (  0.2%)
Orbital Orthonormalization  ....       0.000 sec  (  0.0%)
DIIS solution               ....       0.963 sec  (  1.3%)
  MO trafo                  ....       0.000 sec  (  0.0 % of DIIS)
  Orb grad                  ....       0.000 sec  (  0.0 % of DIIS)
  Energy W gradient         ....       0.000 sec  (  0.0 % of DIIS)
  DIIS error                ....       0.054 sec  (  5.7 % of DIIS)
  DIIS work                 ....       0.820 sec  ( 85.2 % of DIIS)
  Form Q                    ....       0.000 sec  (  0.0 % of DIIS)
  Form QpQm                 ....       0.000 sec  (  0.0 % of DIIS)
  Exp/Cayley                ....       0.000 sec  (  0.0 % of DIIS)
  Orb update                ....       0.000 sec  (  0.0 % of DIIS)
  Wake-sleep                ....       0.028 sec  (  2.9 % of DIIS)
SOSCF solution              ....       0.285 sec  (  0.4%)
  MO trafo                  ....       0.135 sec  ( 47.3 % of SOSCF)
  Orb grad                  ....       0.002 sec  (  0.8 % of SOSCF)
  Rot update                ....       0.032 sec  ( 11.4 % of SOSCF)
  Step                      ....       0.115 sec  ( 40.4 % of SOSCF)
Finished LeanSCF after  71.6 sec

Maximum memory used throughout the entire LEANSCF-calculation: 46.9 MB


-------------------------------------------------------------------------------
                          DFT DISPERSION CORRECTION                            
                                                                               
                                DFTD4 V3.4.0                                   
-------------------------------------------------------------------------------
The R2SCAN3C composite method is recognized
Using three-body term ABC
Active option DFTDOPT                   ...         5   

-------------------------   ----------------
Dispersion correction           -0.011472366
-------------------------   ----------------

------------------   -----------------
gCP correction             0.021588828
------------------   -----------------

-------------------------   --------------------
FINAL SINGLE POINT ENERGY     -3184.781292342384
-------------------------   --------------------


------------------------------------------------------------------------------
                              ORCA PROPERTY CALCULATIONS
------------------------------------------------------------------------------

GBWName                                 ... sp_gas.gbw
Number of atoms                         ...     27
Number of basis functions               ...    368
Max core memory                         ...   1024 MB

Electric properties:
Dipole moment                           ... YES
Quadrupole moment                       ...  NO
Static polarizability (Dipole/Dipole)   ...  NO
Static polarizability (Dipole/Quad.)    ...  NO
Static polarizability (Quad./Quad.)     ...  NO
Static polarizability (Velocity)        ...  NO

Atomic electric properties:
Dipole moment                           ...  NO
Quadrupole moment                       ...  NO
Static polarizability                   ...  NO

Choice of electric origin               ... Center of mass
Position of electric origin             ...    -0.000084     0.000022     0.000004

General magnetic properties:
Magnetizability                         ...  NO

EPR properties:
g-Tensor (aka g-matrix)                 ...  NO
Zero-Field splitting spin-orbit         ...  NO
Zero-field splitting spin-spin          ...  NO
Hyperfine couplings                     ...  NO (   0 nuclei)
Quadrupole couplings                    ...  NO (   0 nuclei)
Contact density                         ...  NO (   0 nuclei)

NMR properties:
Chemical shifts                         ...  NO (   0 nuclei)
Spin-rotation constants                 ...  NO (   0 nuclei)
Spin-spin couplings                     ...  NO (   0 nuclei,    0 pairs)

Choice of magnetic origin               ... GIAO
Position of magnetic origin             ...     0.000000     0.000000     0.000000

Properties with geometric perturbations:
SCF Hessian                             ...  NO
IR spectrum                             ...  NO
VCD spectrum                            ...  NO
X-ray spectroscopy properties:
SCF XES/XAS/RIXS spectra                ...  NO


-------------
DIPOLE MOMENT
-------------

Method             : SCF
Type of density    : Electron Density
Multiplicity       :   1
Irrep              :   0
Energy             : -3184.7914088049992642 Eh
Relativity type    : 
Basis              : AO
                                X                 Y                 Z
Electronic contribution:     43.517435328      -3.306902827      -2.156101048
Nuclear contribution   :    -42.925413908       4.707679111       2.338373130
                        -----------------------------------------
Total Dipole Moment    :      0.592021420       1.400776284       0.182272081
                        -----------------------------------------
Magnitude (a.u.)       :      1.531628764
Magnitude (Debye)      :      3.893090929



--------------------
Rotational spectrum 
--------------------
 
Rotational constants in cm-1:             0.026757             0.012217             0.009231 
Rotational constants in MHz :           802.152301           366.262327           276.730467 

Dipole components along the rotational axes: 
x,y,z [a.u.] :     0.672377     1.369761     0.132484 
x,y,z [Debye]:     1.709046     3.481655     0.336748 

 

Dipole moment calculation done in   0.0 sec 

Maximum memory used throughout the entire PROP-calculation: 30.9 MB

--------------------------------
SUGGESTED CITATIONS FOR THIS RUN
--------------------------------

Below you find a list of papers that are relevant to this ORCA run
We neither can nor want to force you to cite these papers, but we appreciate if you do
You receive ORCA, which is the product of decades of hard work by many enthusiastic individuals, for free
The only thing we kindly ask in return is that you cite our papers,
We deeply appreciate it, if you show your appreciation for ORCA by not just citing the generic ORCA reference.

Please note that relegating all ORCA citations to the supporting information does *not* help us.
SI sections are not indexed - citations you put there will not count into any citation statistics
But we need these citations in order to attract the funding resources that allow us to do what we are doing

Therefore, if you are a happy ORCA user, please consider citing a few of the papers listed below in the main body of your paper

In addition to the list printed below, the program has created the file sp_gas.bibtex that contains the list in bibtex format
You can import this file easily into all common literature databanks and citation aid programs


List of essential papers. We consider these as the minimum necessary citations

  1. Neese,F.
     Software update: the ORCA program system, version 5.0
     WIRES Comput. Molec. Sci., 2022 12(1)e1606
     doi.org/10.1002/wcms.1606
  2. Grimme,S.; Hansen,A.; Ehlert,S.; Mewes,J.
     r2SCAN-3c: A 'Swiss army knife' composite electronic-structure method
     J. Chem. Phys., 2021 154 064103
     doi.org/10.1063/5.0040021

List of papers to cite with high priority. The work reported in these papers was absolutely
necessary for this run to complete.
Our perspective: the developers of density functionals and basis sets usually get cited in chemistry papers
Good! But without the algorithms to do something with them, the functionals or basis sets would not do anything.
Hence, in our opinion, the algorithm design and method developments papers are equally worthy of getting cited

  1. Neese,F.
     An improvement of the resolution of the identity approximation for the formation of the Coulomb matrix
     J. Comp. Chem., 2003 24(14)1740-1747
     doi.org/10.1002/jcc.10318
  2. Neese,F.
     The SHARK Integral Generation and Digestion System
     J. Comp. Chem., 2022  1-16
     doi.org/10.1002/jcc.26942
  3. Lehtola,S.; Steigemann,C.; Oliveira,M.; Marques,M.
     Recent developments in Libxc - A comprehensive library of functionals for density functional theory
     Software X, 2018 7 
     doi.org/10.1016/j.softx.2017.11.002
  4. Caldeweyher,E.; Bannwarth,C.; Grimme,S.
     Extension of the D3 dispersion coefficient model
     J. Chem. Phys., 2017 147 034112-XXXX
     doi.org/10.1063/1.4993215
  5. Caldeweyher,E.; Ehlert,S.; Hansen,A.; Neugebauer,H.; Spicher,S.; Bannwarth,C.; Grimme,S.
     A generally applicable atomic-charge dependent London dispersion correction
     J. Chem. Phys., 2019 150 154122-XXXX
     doi.org/10.1063/1.5090222
  6. Caldeweyher,E.; Mewes,J.; Ehlert,S.; Grimme,S.
     Extension and evaluation of the D4 London-dispersion model for periodic systems
     Phys. Chem. Chem. Phys., 2020 22(16)8499-8512
     doi.org/10.1039/D0CP00502A

List of suggested additional citations. These are papers that are important in the 'surrounding' of 
of this run, or papers that preceded the highly important papers. If you like your results we are grateful for a citation.

  1. Neese,F.
     The ORCA program system
     WIRES Comput. Molec. Sci., 2012 2(1)73-78
     doi.org/10.1002/wcms.81
  2. Neese,F.
     Software update: the ORCA program system, version 4.0
     WIRES Comput. Molec. Sci., 2018 8(1)1-6
     doi.org/10.1002/wcms.1327
  3. Neese,F.; Wennmohs,F.; Becker,U.; Riplinger,C.
     The ORCA quantum chemistry program package
     J. Chem. Phys., 2020 152 Art. No. L224108
     doi.org/10.1063/5.0004608

List of optional additional citations

  1. Neese,F.
     Approximate second-order SCF convergence for spin unrestricted wavefunctions
     Chem. Phys. Lett., 2000 325(1-3)93-98
     doi.org/10.1016/s0009-2614(00)00662-x

Timings for individual modules:

Sum of individual times          ...       74.552 sec (=   1.243 min)
Startup calculation              ...        2.284 sec (=   0.038 min)   3.1 %
SCF iterations                   ...       72.127 sec (=   1.202 min)  96.7 %
Property calculations            ...        0.141 sec (=   0.002 min)   0.2 %
                             ****ORCA TERMINATED NORMALLY****
TOTAL RUN TIME: 0 days 0 hours 1 minutes 15 seconds 365 msec
