      -----------------------------------------------------------      
     |                   =====================                   |     
     |                           x T B                           |     
     |                   =====================                   |     
     |                         S. Grimme                         |     
     |          Mulliken Center for Theoretical Chemistry        |     
     |                    University of Bonn                     |     
      -----------------------------------------------------------      

   * xtb version 6.7.1 (edcfbbe) compiled by 'albert@albert-system' on 2024-07-22

   xtb is free software: you can redistribute it and/or modify it under
   the terms of the GNU Lesser General Public License as published by
   the Free Software Foundation, either version 3 of the License, or
   (at your option) any later version.
   
   xtb is distributed in the hope that it will be useful,
   but WITHOUT ANY WARRANTY; without even the implied warranty of
   MERCHANTABILITY or FITNESS FOR A PARTICULAR PURPOSE.  See the
   GNU Lesser General Public License for more details.
   
   Cite this work as:
   * C. Bannwarth, E. Caldeweyher, S. Ehlert, A. Hansen, P. Pracht,
     J. Seibert, S. Spicher, S. Grimme, WIREs Comput. Mol. Sci., 2020, 11,
     e01493. DOI: 10.1002/wcms.1493
   
   for GFN2-xTB:
   * C. Bannwarth, S. Ehlert and S. Grimme., J. Chem. Theory Comput., 2019,
     15, 1652-1671. DOI: 10.1021/acs.jctc.8b01176
   for GFN1-xTB:
   * S. Grimme, C. Bannwarth, P. Shushkov, J. Chem. Theory Comput., 2017,
     13, 1989-2009. DOI: 10.1021/acs.jctc.7b00118
   for GFN0-xTB:
   * P. Pracht, E. Caldeweyher, S. Ehlert, S. Grimme, ChemRxiv, 2019, preprint.
     DOI: 10.26434/chemrxiv.8326202.v1
   for GFN-FF:
   * S. Spicher and S. Grimme, Angew. Chem. Int. Ed., 2020, 59, 15665-15673.
     DOI: 10.1002/anie.202004239
   
   for ALPB and GBSA implicit solvation:
   * S. Ehlert, M. Stahn, S. Spicher, S. Grimme, J. Chem. Theory Comput.,
     2021, 17, 4250-4261. DOI: 10.1021/acs.jctc.1c00471
   
   for ddCOSMO and CPCM-X implicit solvation:
   * M. Stahn, S. Ehlert, S. Grimme, J. Phys. Chem. A,
     2023, XX, XXXX-XXXX. DOI: 10.1021/acs.jpca.3c04382
   
   for DFT-D4:
   * E. Caldeweyher, C. Bannwarth and S. Grimme, J. Chem. Phys., 2017,
     147, 034112. DOI: 10.1063/1.4993215
   * E. Caldeweyher, S. Ehlert, A. Hansen, H. Neugebauer, S. Spicher,
     C. Bannwarth and S. Grimme, J. Chem. Phys., 2019, 150, 154122.
     DOI: 10.1063/1.5090222
   * E. Caldeweyher, J.-M. Mewes, S. Ehlert and S. Grimme, Phys. Chem. Chem. Phys.
     2020, 22, 8499-8512. DOI: 10.1039/D0CP00502A
   
   for sTDA-xTB:
   * S. Grimme and C. Bannwarth, J. Chem. Phys., 2016, 145, 054103.
     DOI: 10.1063/1.4959605
   
   in the mass-spec context:
   * V. Asgeirsson, C. Bauer and S. Grimme, Chem. Sci., 2017, 8, 4879.
     DOI: 10.1039/c7sc00601b
   * J. Koopman and S. Grimme, ACS Omega 2019, 4, 12, 15120-15133.
     DOI: 10.1021/acsomega.9b02011
   
   for metadynamics refer to:
   * S. Grimme, J. Chem. Theory Comput., 2019, 155, 2847-2862
     DOI: 10.1021/acs.jctc.9b00143
   
   for SPH calculations refer to:
   * S. Spicher and S. Grimme, J. Chem. Theory Comput., 2021, 17, 1701-1714
     DOI: 10.1021/acs.jctc.0c01306
   
   for ONIOM refer to:
   * C. Plett, A. Katbashev, S. Ehlert, S. Grimme, M. Bursch,
     Phys. Chem. Chem. Phys., 2023, 25, 17860-17868. DOI: 10.1039/D3CP02178E
   
   for DIPRO refer to:
   * J. Kohn, N. Gildemeister, S. Grimme, D. Fazzi, A. Hansen,
     J. Chem. Phys., 2023, just accepted.
   
   for PTB refer to:
   * S. Grimme, M. Mueller, A. Hansen, J. Chem. Phys., 2023, 158, 124111.
     DOI: 10.1063/5.0137838
   
   with help from (in alphabetical order)
   P. Atkinson, C. Bannwarth, F. Bohle, G. Brandenburg, E. Caldeweyher
   M. Checinski, S. Dohm, S. Ehlert, S. Ehrlich, I. Gerasimov, C. Hölzer
   A. Katbashev, J. Kohn, J. Koopman, C. Lavigne, S. Lehtola, F. März, M. Müller,
   F. Musil, H. Neugebauer, J. Pisarek, C. Plett, P. Pracht, F. Pultar,
   J. Seibert, P. Shushkov, S. Spicher, M. Stahn, M. Steiner, T. Strunk,
   J. Stückrath, T. Rose, and J. Unsleber
   
 * started run on 2025/04/11 at 11:59:32.738     
   ID    Z sym.   atoms
    1    6 C      1, 2, 4-7
    2    1 H      3, 9-21
    3    8 O      8

           -------------------------------------------------
          |                Calculation Setup                |
           -------------------------------------------------

          program call               : /srv/scratch/z5358697/.xtb/bin/xtb xtb_opt.coord --opt normal --orca -I xtb_opt-xcontrol-inp
          hostname                   : k068
          coordinate file            : xtb_opt.coord
          omp threads                :                    16

           -------------------------------------------------
          |                   Orca driver                   |
           -------------------------------------------------
orca executable           : /apps/z_install_tree/linux-rocky8-ivybridge/gcc-12.2.0/orca-6.0.0-srtngmq3qlimg2qxbl6avaaiffipurdx/bin/orca
orca input file           : xtb_opt.inp
orca input line           : 
orca parallel             : true
orca number of threads    : 16
                         * ORCA takes the control...
  ------------------------------------------------------------------------

                                 *****************
                                 * O   R   C   A *
                                 *****************

                                            #,                                       
                                            ###                                      
                                            ####                                     
                                            #####                                    
                                            ######                                   
                                           ########,                                 
                                     ,,################,,,,,                         
                               ,,#################################,,                 
                          ,,##########################################,,             
                       ,#########################################, ''#####,          
                    ,#############################################,,   '####,        
                  ,##################################################,,,,####,       
                ,###########''''           ''''###############################       
              ,#####''   ,,,,##########,,,,          '''####'''          '####       
            ,##' ,,,,###########################,,,                        '##       
           ' ,,###''''                  '''############,,,                           
         ,,##''                                '''############,,,,        ,,,,,,###''
      ,#''                                            '''#######################'''  
     '                                                          ''''####''''         
             ,#######,   #######,   ,#######,      ##                                
            ,#'     '#,  ##    ##  ,#'     '#,    #''#        ,####,   ,####,        
            ##       ##  ##   ,#'  ##            #'  '#       #'       #'  '#        
            ##       ##  #######   ##           ,######,      #####,   #    #        
            '#,     ,#'  ##    ##  '#,     ,#' ,#      #,     #,   #   #,  ,#        
             '#######'   ##     ##  '#######'  #'      '#     '####' # '####'        



                #########################################################
                #                        -***-                          #
                #          Department of theory and spectroscopy        #
                #                                                       #
                #                      Frank Neese                      #
                #                                                       #
                #     Directorship, Architecture, Infrastructure        #
                #                    SHARK, DRIVERS                     #
                #        Core code/Algorithms in most modules           #
                #                                                       #
                #        Max Planck Institute fuer Kohlenforschung      #
                #                Kaiser Wilhelm Platz 1                 #
                #                 D-45470 Muelheim/Ruhr                 #
                #                      Germany                          #
                #                                                       #
                #                  All rights reserved                  #
                #                        -***-                          #
                #########################################################


                         Program Version 6.0.0  -   RELEASE  -


 With contributions from (in alphabetic order):
   Daniel Aravena         : Magnetic Suceptibility
   Michael Atanasov       : Ab Initio Ligand Field Theory (pilot matlab implementation)
   Alexander A. Auer      : GIAO ZORA, VPT2 properties, NMR spectrum
   Ute Becker             : All parallelization in ORCA, NUMFREQ, NUMCALC
   Giovanni Bistoni       : ED, misc. LED, open-shell LED, HFLD
   Martin Brehm           : Molecular dynamics
   Dmytro Bykov           : pre 5.0 version of the SCF Hessian
   Marcos Casanova-Páez   : Triplet and SCS-CIS(D). UHF-(DLPNO)-IP/EA/STEOM-CCSD. UHF-CVS-IP/STEOM-CCSD
   Vijay G. Chilkuri      : MRCI spin determinant printing, contributions to CSF-ICE
   Pauline Colinet        : FMM embedding
   Dipayan Datta          : RHF DLPNO-CCSD density
   Achintya Kumar Dutta   : EOM-CC, STEOM-CC
   Nicolas Foglia         : Exact transition moments, OPA infrastructure, MCD improvements
   Dmitry Ganyushin       : Spin-Orbit,Spin-Spin,Magnetic field MRCI
   Miquel Garcia          : C-PCM and meta-GGA Hessian, CCSD/C-PCM, Gaussian charge scheme
   Tiago L. C. Gouveia    : GS-ROHF, GS-ROCIS
   Yang Guo               : DLPNO-NEVPT2, F12-NEVPT2, CIM, IAO-localization
   Andreas Hansen         : Spin unrestricted coupled pair/coupled cluster methods
   Ingolf Harden          : AUTO-CI MPn and infrastructure 
   Benjamin Helmich-Paris : MC-RPA, TRAH-(SCF,CASSCF), AVAS, COSX integrals, SCF dyn. polar.
   Lee Huntington         : MR-EOM, pCC
   Robert Izsak           : Overlap fitted RIJCOSX, COSX-SCS-MP3, EOM
   Riya Kayal             : Wick's Theorem for AUTO-CI, AUTO-CI UHF-CCSDT
   Emily Kempfer          : AUTO-CI, RHF CISDT and CCSDT
   Christian Kollmar      : KDIIS, OOCD, Brueckner-CCSD(T), CCSD density, CASPT2, CASPT2-K, improved NEVPT2
   Axel Koslowski         : Symmetry handling
   Simone Kossmann        : Meta GGA functionals, TD-DFT gradient, OOMP2, (MP2 Hessian; deprecated post 5.0)
   Lucas Lang             : DCDCAS
   Marvin Lechner         : AUTO-CI (C++ implementation), FIC-MRCC
   Spencer Leger          : CASSCF response
   Dagmar Lenk            : GEPOL surface, SMD, ORCA-2-JSON
   Dimitrios Liakos       : Extrapolation schemes; Compound Job, initial MDCI parallelization
   Dimitrios Manganas     : Further ROCIS development; embedding schemes. LFT, Crystal Embedding
   Dimitrios Pantazis     : SARC Basis sets
   Anastasios Papadopoulos: AUTO-CI, single reference methods and gradients
   Taras Petrenko         : pre 6.0 DFT Hessian and TD-DFT gradient, (ASA, deprecated), ECA, 1-Electron XAS/XES, NRVS
   Peter Pinski           : DLPNO-MP2, DLPNO-MP2 Gradient
   Christoph Reimann      : Effective Core Potentials
   Marius Retegan         : Local ZFS, SOC
   Christoph Riplinger    : Optimizer, TS searches, QM/MM, DLPNO-CCSD(T), (RO)-DLPNO pert. Triples
   Michael Roemelt        : Original ROCIS implementation
   Masaaki Saitow         : Open-shell DLPNO-CCSD energy and density
   Barbara Sandhoefer     : DKH picture change effects
   Kantharuban Sivalingam : CASSCF convergence/infrastructure, NEVPT2 and variants, FIC-MRCI
   Bernardo de Souza      : ESD, SOC TD-DFT
   Georgi Stoychev        : AutoAux, RI-MP2 NMR, DLPNO-MP2 response, X2C
   Van Anh Tran           : RI-MP2 g-tensors
   Willem Van den Heuvel  : Paramagnetic NMR
   Zikuan Wang            : NOTCH, Electric field optimization 
   Frank Wennmohs         : Technical directorship and infrastructure
   Hang Xu                : AUTO-CI-Response properties 


 We gratefully acknowledge several colleagues who have allowed us to
 interface, adapt or use parts of their codes:
   Stefan Grimme, W. Hujo, H. Kruse, P. Pracht,  : VdW corrections, initial TS optimization,
                  C. Bannwarth, S. Ehlert,         DFT functionals, gCP, sTDA/sTD-DF
                  L. Wittmann, M. Mueller
   Ed Valeev, F. Pavosevic, A. Kumar             : LibInt (2-el integral package), F12 methods
   Garnet Chan, S. Sharma, J. Yang, R. Olivares  : DMRG
   Ulf Ekstrom                                   : XCFun DFT Library
   Mihaly Kallay                                 : mrcc  (arbitrary order and MRCC methods)
   Frank Weinhold                                : gennbo (NPA and NBO analysis)
   Simon Mueller                                 : openCOSMO-RS
   Christopher J. Cramer and Donald G. Truhlar   : smd solvation model
   Lars Goerigk                                  : TD-DFT with DH, B97 family of functionals
   V. Asgeirsson, H. Jonsson                     : NEB implementation
   FAccTs GmbH                                   : IRC, NEB, NEB-TS, DLPNO-Multilevel, CI-OPT
                                                   MM, QMMM, 2- and 3-layer-ONIOM, Crystal-QMMM,
                                                   LR-CPCM, SF, NACMEs, symmetry and pop. for TD-DFT,
                                                   nearIR, NL-DFT gradient (VV10), updates on ESD,
                                                   ML-optimized integration grids, MBIS, APM,
                                                   GOAT, DOCKER, SOLVATOR, interface openCOSMO-RS
   S Lehtola, MJT Oliveira, MAL Marques          : LibXC Library
   Liviu Ungur et al                             : ANISO software


 Your calculation uses the libint2 library for the computation of 2-el integrals
 For citations please refer to: http://libint.valeyev.net

 Your ORCA version has been built with support for libXC version: 6.2.2
 For citations please refer to: https://libxc.gitlab.io

 This ORCA versions uses:
   CBLAS   interface :  Fast vector & matrix operations
   LAPACKE interface :  Fast linear algebra routines
   SCALAPACK package :  Parallel linear algebra routines
   Shared memory     :  Shared parallel matrices
   BLAS/LAPACK       :  OpenBLAS 0.3.27  USE64BITINT DYNAMIC_ARCH NO_AFFINITY SkylakeX SINGLE_THREADED
        Core in use  :  SkylakeX
   Copyright (c) 2011-2014, The OpenBLAS Project




***************************************
The coordinates will be read from file: xtb_opt.xyz
***************************************


Your calculation utilizes the geometrical counterpoise correction gCP
Please cite in your paper:
H.Kruse, S. Grimme J.Chem.Phys., 136, (2012), 154101 
   

Your calculation utilizes the atom-pairwise dispersion correction
based on EEQ partial charges (D4)


Your calculation utilizes the SMD solvation module
Please cite in your paper:
A.V. Marenich, C.J. Cramer, D.G. Truhlar J. Phys. Chem. B, 113, (2009), 6378 

================================================================================

----- Orbital basis set information -----
Your calculation utilizes the basis: def2-mTZVPP
   Stefan Grimme, Andreas Hansen, Sebastian Ehlert, and Jan-Michael Mewes 
   J. Chem. Phys. 154, 064103 (2021). DOI: 10.1063/5.0040021

----- AuxJ basis set information -----
Your calculation utilizes the auxiliary basis: def2/J
   F. Weigend, Phys. Chem. Chem. Phys. 8, 1057 (2006).

================================================================================
                                        WARNINGS
                       Please study these warnings very carefully!
================================================================================

Using LibXC functional ID 497 : Re-regularized SCAN exchange by Furness et al
[ 1]  J. W. Furness, A. D. Kaplan, J. Ning, J. P. Perdew, and J. Sun.,  J. Phys. Chem. Lett. 11, 8208-8215 (2020)
[ 2]  J. W. Furness, A. D. Kaplan, J. Ning, J. P. Perdew, and J. Sun.,  J. Phys. Chem. Lett. 11, 9248-9248 (2020)
Using LibXC functional ID 498 : Re-regularized SCAN correlation by Furness et al
[ 1]  J. W. Furness, A. D. Kaplan, J. Ning, J. P. Perdew, and J. Sun.,  J. Phys. Chem. Lett. 11, 8208-8215 (2020)
[ 2]  J. W. Furness, A. D. Kaplan, J. Ning, J. P. Perdew, and J. Sun.,  J. Phys. Chem. Lett. 11, 9248-9248 (2020)
Using LibXC functional ID 497 : Re-regularized SCAN exchange by Furness et al
[ 1]  J. W. Furness, A. D. Kaplan, J. Ning, J. P. Perdew, and J. Sun.,  J. Phys. Chem. Lett. 11, 8208-8215 (2020)
[ 2]  J. W. Furness, A. D. Kaplan, J. Ning, J. P. Perdew, and J. Sun.,  J. Phys. Chem. Lett. 11, 9248-9248 (2020)
Using LibXC functional ID 498 : Re-regularized SCAN correlation by Furness et al
[ 1]  J. W. Furness, A. D. Kaplan, J. Ning, J. P. Perdew, and J. Sun.,  J. Phys. Chem. Lett. 11, 8208-8215 (2020)
[ 2]  J. W. Furness, A. D. Kaplan, J. Ning, J. P. Perdew, and J. Sun.,  J. Phys. Chem. Lett. 11, 9248-9248 (2020)

================================================================================
                                       INPUT FILE
================================================================================
NAME = xtb_opt.inp
|  1> ! r2scan-3c def2/J RI DEFGRID2 scfconv7 ENGRAD tightSCF miniprint
|  2> %cpcm
|  3>     smd true
|  4>     smdsolvent "water"
|  5> end
|  6> * xyzfile 0 1 xtb_opt.xyz
|  7> 
|  8>                          ****END OF INPUT****
================================================================================

                     *******************************
                     * Energy+Gradient Calculation *
                     *******************************

---------------------------------
CARTESIAN COORDINATES (ANGSTROEM)
---------------------------------
  C      1.921624   -0.782227   -0.805961
  C      1.204152   -0.104944    0.360695
  H      0.932123   -0.854878    1.112181
  C     -0.061120    0.652947   -0.089143
  C     -1.379205   -0.075438    0.197915
  C     -2.553740    0.846510   -0.129693
  C     -1.505018   -1.375865   -0.591921
  O      2.094784    0.756043    1.057160
  H      2.811034   -1.294086   -0.445403
  H      1.270407   -1.504565   -1.286201
  H      2.221370   -0.039309   -1.542825
  H     -0.080522    1.602431    0.451754
  H      0.001008    0.875197   -1.156542
  H     -1.412882   -0.312664    1.267522
  H     -3.497131    0.356221    0.097668
  H     -2.547368    1.105168   -1.186253
  H     -2.496745    1.764697    0.450120
  H     -1.412855   -1.181855   -1.658298
  H     -0.739012   -2.087570   -0.296764
  H     -2.476101   -1.830601   -0.409901
  H      2.456434    1.398839    0.430907

----------------------------
CARTESIAN COORDINATES (A.U.)
----------------------------
  NO LB      ZA    FRAG     MASS         X           Y           Z
   0 C     6.0000    0    12.011    3.631343   -1.478195   -1.523046
   1 C     6.0000    0    12.011    2.275518   -0.198316    0.681614
   2 H     1.0000    0     1.008    1.761458   -1.615486    2.101718
   3 C     6.0000    0    12.011   -0.115500    1.233891   -0.168456
   4 C     6.0000    0    12.011   -2.606319   -0.142557    0.374006
   5 C     6.0000    0    12.011   -4.825869    1.599671   -0.245084
   6 C     6.0000    0    12.011   -2.844071   -2.600007   -1.118568
   7 O     8.0000    0    15.999    3.958568    1.428715    1.997743
   8 H     1.0000    0     1.008    5.312085   -2.445468   -0.841690
   9 H     1.0000    0     1.008    2.400721   -2.843216   -2.430568
  10 H     1.0000    0     1.008    4.197782   -0.074283   -2.915517
  11 H     1.0000    0     1.008   -0.152164    3.028157    0.853691
  12 H     1.0000    0     1.008    0.001906    1.653883   -2.185547
  13 H     1.0000    0     1.008   -2.669959   -0.590850    2.395269
  14 H     1.0000    0     1.008   -6.608619    0.673161    0.184567
  15 H     1.0000    0     1.008   -4.813828    2.088465   -2.241693
  16 H     1.0000    0     1.008   -4.718163    3.334794    0.850604
  17 H     1.0000    0     1.008   -2.669909   -2.233382   -3.133730
  18 H     1.0000    0     1.008   -1.396530   -3.944935   -0.560803
  19 H     1.0000    0     1.008   -4.679153   -3.459334   -0.774601
  20 H     1.0000    0     1.008    4.641988    2.643422    0.814297

------------------------------------------------------------------------------
                   ___                                                        
                  /   \      - P O W E R E D   B Y -                         
                 /     \                                                     
                 |  |  |   _    _      __       _____    __    __             
                 |  |  |  | |  | |    /  \     |  _  \  |  |  /  |          
                  \  \/   | |  | |   /    \    | | | |  |  | /  /          
                 / \  \   | |__| |  /  /\  \   | |_| |  |  |/  /          
                |  |  |   |  __  | /  /__\  \  |    /   |      \           
                |  |  |   | |  | | |   __   |  |    \   |  |\   \          
                \     /   | |  | | |  |  |  |  | |\  \  |  | \   \       
                 \___/    |_|  |_| |__|  |__|  |_| \__\ |__|  \__/        
                                                                              
                      - O R C A' S   B I G   F R I E N D -                    
                                      &                                       
                       - I N T E G R A L  F E E D E R -                       
                                                                              
 v1 FN, 2020, v2 2021, v3 2022-2024                                           
------------------------------------------------------------------------------


----------------------
SHARK INTEGRAL PACKAGE
----------------------

Number of atoms                             ...     21
Number of basis functions                   ...    208
Number of shells                            ...    106
Maximum angular momentum                    ...      2
Integral batch strategy                     ... SHARK/LIBINT Hybrid
RI-J (if used) integral strategy            ... SPLIT-RIJ (Revised 2003 algorithm where possible)
Printlevel                                  ...      1
Contraction scheme used                     ... SEGMENTED contraction
Prescreening option                         ... SCHWARTZ
   Thresh                                   ... 3.000e-11
   Tcut                                     ... 1.000e-12
   Tpresel                                  ... 1.000e-12 
Coulomb Range Separation                    ... NOT USED
Exchange Range Separation                   ... NOT USED
Multipole approximations                    ... NOT USED
Finite Nucleus Model                        ... NOT USED
CABS basis                                  ... NOT available
Auxiliary Coulomb fitting basis             ... AVAILABLE
   # of basis functions in Aux-J            ...    497
   # of shells in Aux-J                     ...    175
   Maximum angular momentum in Aux-J        ...      4
Auxiliary J/K fitting basis                 ... NOT available
Auxiliary Correlation fitting basis         ... NOT available
Auxiliary 'external' fitting basis          ... NOT available

Checking pre-screening integrals            ... done (  0.0 sec) Dimension = 106
Check shell pair data                       ... done (  0.0 sec)
Shell pair information
Shell pair cut-off parameter TPreSel        ...   1.0e-12
Total number of shell pairs                 ...      5671
Shell pairs after pre-screening             ...      5199
Total number of primitive shell pairs       ...     19699
Primitive shell pairs kept                  ...     13213
          la=0 lb=0:   1840 shell pairs
          la=1 lb=0:   2019 shell pairs
          la=1 lb=1:    581 shell pairs
          la=2 lb=0:    466 shell pairs
          la=2 lb=1:    259 shell pairs
          la=2 lb=2:     34 shell pairs

Calculating one electron integrals          ... done (  0.0 sec)
Calculating RI/J V-Matrix + Cholesky decomp.... done (  0.1 sec)
Calculating Nuclear repulsion               ... done (  0.0 sec) ENN=    332.428939408319 Eh

Diagonalization of the overlap matrix:
Smallest eigenvalue                        ... 1.594e-04
Time for diagonalization                   ...    0.004 sec
Threshold for overlap eigenvalues          ... 1.000e-07
Number of eigenvalues below threshold      ... 0
Time for construction of square roots      ...    0.015 sec
Total time needed                          ...    0.029 sec

-------------------
DFT GRID GENERATION
-------------------

General Integration Accuracy     IntAcc      ... 4.388
Radial Grid Type                 RadialGrid  ... OptM3 with GC (2021)
Angular Grid (max. ang.)         AngularGrid ... 4 (Lebedev-302)
Angular grid pruning method      GridPruning ... 4 (adaptive)
Weight generation scheme         WeightScheme... mBecke (2022)
Basis function cutoff            BFCut       ... 1.0000e-11
Integration weight cutoff        WCut        ... 1.0000e-14
Partially contracted basis set               ... off
Rotationally invariant grid construction     ... off
Angular grids for H and He will be reduced by one unit
Diffuse basis detected: some atoms will have their outermost
                        angular grid increased by 1.

Total number of grid points                  ...    87037
Total number of batches                      ...     1371
Average number of points per batch           ...       63
Average number of grid points per atom       ...     4145
Initializing property integral containers    ... done (  0.0 sec)

SHARK setup successfully completed in   1.4 seconds

Maximum memory used throughout the entire STARTUP-calculation: 38.1 MB
Occupation numbers will be reassigned to an Aufbau configuration
             **** ENERGY FILE WAS UPDATED (xtb_opt.en.tmp) ****
Finished Guess after   0.3 sec
Maximum memory used throughout the entire GUESS-calculation: 14.4 MB
--------------------
CPCM SOLVATION MODEL
--------------------
CPCM parameters:
  Epsilon                                         ...      78.3550
  Refrac                                          ...       1.3328
  Rsolv                                           ...       1.3000
  Surface type                                    ... GAUSSIAN VDW
  Discretization scheme                           ... Constant charge density
    Threshold for H atoms                         ...       5.0000 (charges/Ang^2)
    Threshold for non-H atoms                     ...       5.0000 (charges/Ang^2)
  Epsilon function type                           ...         CPCM
Solvent:                                          ... WATER
SMD-CDS solvent descriptors:
  Soln                                            ...       1.3328
  Soln25                                          ...       1.3323
  Sola                                            ...       0.0000
  Solb                                            ...       0.0000
  Solg                                            ...       0.0000
  Solc                                            ...       0.0000
  Solh                                            ...       0.0000
Radii:
  Scheme                                          ... Element-dependent radii
  Radius for C  used is    3.4960 Bohr (=   1.8500 Ang.)
  Radius for H  used is    2.2677 Bohr (=   1.2000 Ang.)
  Radius for O  used is    2.8724 Bohr (=   1.5200 Ang.)
Calculating surface                               ...        done! (  0.0s)
Cavity surface points                             ...         1527
Cavity Volume                                     ...     852.8117
Cavity Surface-area                               ...     562.5781
Calculating surface distance matrix               ...        done! (  0.0s)
Performing Cholesky decomposition & store         ...        done! (  0.1s)
Overall time for CPCM initialization              ...                 0.1s

----------------------------------------D-I-I-S--------------------------------------------
Iteration    Energy (Eh)           Delta-E    RMSDP     MaxDP     DIISErr   Damp  Time(sec)
-------------------------------------------------------------------------------------------
               ***  Starting incremental Fock matrix formation  ***
                              *** Initializing SOSCF ***
---------------------------------------S-O-S-C-F--------------------------------------
Iteration    Energy (Eh)           Delta-E    RMSDP     MaxDP     MaxGrad    Time(sec)
--------------------------------------------------------------------------------------
    1    -312.2175382732443722     0.00e+00  4.18e-06  1.13e-04  8.72e-06     3.5
               *** Restarting incremental Fock matrix formation ***
    2    -312.2175382726628641     5.82e-10  5.84e-06  1.66e-04  5.01e-05     3.5
    3    -312.2175381499544073     1.23e-07  4.36e-06  1.07e-04  8.61e-05     2.8
    4    -312.2175383413319878    -1.91e-07  5.54e-07  1.07e-05  2.57e-06     3.1
                  *** Gradient check signals convergence ***

               *****************************************************
               *                     SUCCESS                       *
               *           SCF CONVERGED AFTER   4 CYCLES          *
               *****************************************************


SMD CDS free energy correction energy :                 3.76019     Kcal/mol
Total Energy after SMD CDS correction =              -312.211546097 Eh
             **** ENERGY FILE WAS UPDATED (xtb_opt.en.tmp) ****

----------------
TOTAL SCF ENERGY
----------------

Total Energy       :       -312.21154609682662 Eh           -8495.70808 eV

Components:
Nuclear Repulsion  :        332.42893940831902 Eh            9045.85132 eV
Electronic Energy  :       -644.63217370377902 Eh          -17541.33323 eV
One Electron Energy:      -1080.48539683963531 Eh          -29401.50239 eV
Two Electron Energy:        435.85322313585635 Eh           11860.16916 eV
CPCM Dielectric    :         -0.01430404587216 Eh              -0.38923 eV
SMD CDS (Gcds)     :          0.00599224450539 Eh               0.16306 eV

Virial components:
Potential Energy   :       -623.01644487322642 Eh          -16953.13935 eV
Kinetic Energy     :        310.80489877639985 Eh            8457.43126 eV
Virial Ratio       :          2.00452582094415

DFT components:
N(Alpha)           :       29.000014969503 electrons
N(Beta)            :       29.000014969503 electrons
N(Total)           :       58.000029939006 electrons
E(X)               :      -44.506110361934 Eh       
E(C)               :       -1.813187590020 Eh       
E(XC)              :      -46.319297951953 Eh       

CPCM Solvation Model Properties:
Surface-charge          :         -0.05029484171556
Corrected charge        :         -0.00000000000000
Outlying charge corr.   :          0.00019789975201 Eh               0.00539 eV
Free-energy (cav+disp)  :          0.00599224450539 Eh               0.16306 eV

---------------
SCF CONVERGENCE
---------------

  Last Energy change         ...    1.9138e-07  Tolerance :   1.0000e-07
  Last MAX-Density change    ...    1.0723e-05  Tolerance :   1.0000e-07
  Last RMS-Density change    ...    5.5375e-07  Tolerance :   5.0000e-09
  Last DIIS Error            ...    1.8350e-04  Tolerance :   1.0000e-07
  Last Orbital Gradient      ...    2.5653e-06  Tolerance :   1.0000e-04
  Last Orbital Rotation      ...    4.5471e-06  Tolerance :   1.0000e-04


----------------
ORBITAL ENERGIES
----------------

  NO   OCC          E(Eh)            E(eV) 
   0   2.0000     -18.945748      -515.5400 
   1   2.0000     -10.073947      -274.1260 
   2   2.0000     -10.026039      -272.8224 
   3   2.0000     -10.011654      -272.4310 
   4   2.0000     -10.008986      -272.3584 
   5   2.0000     -10.005829      -272.2725 
   6   2.0000     -10.005812      -272.2720 
   7   2.0000      -0.983105       -26.7516 
   8   2.0000      -0.770301       -20.9610 
   9   2.0000      -0.710388       -19.3307 
  10   2.0000      -0.644808       -17.5461 
  11   2.0000      -0.638692       -17.3797 
  12   2.0000      -0.566679       -15.4201 
  13   2.0000      -0.522355       -14.2140 
  14   2.0000      -0.446150       -12.1404 
  15   2.0000      -0.429078       -11.6758 
  16   2.0000      -0.424853       -11.5608 
  17   2.0000      -0.389893       -10.6095 
  18   2.0000      -0.379710       -10.3324 
  19   2.0000      -0.363302        -9.8860 
  20   2.0000      -0.357573        -9.7301 
  21   2.0000      -0.342433        -9.3181 
  22   2.0000      -0.338401        -9.2084 
  23   2.0000      -0.313163        -8.5216 
  24   2.0000      -0.296870        -8.0782 
  25   2.0000      -0.287629        -7.8268 
  26   2.0000      -0.281825        -7.6689 
  27   2.0000      -0.278713        -7.5842 
  28   2.0000      -0.233274        -6.3477 
  29   0.0000       0.080078         2.1790 
  30   0.0000       0.094701         2.5769 
  31   0.0000       0.118624         3.2279 
  32   0.0000       0.121453         3.3049 
  33   0.0000       0.132138         3.5957 
  34   0.0000       0.140410         3.8208 
  35   0.0000       0.149025         4.0552 
  36   0.0000       0.152530         4.1506 
  37   0.0000       0.155097         4.2204 
  38   0.0000       0.166227         4.5233 
  39   0.0000       0.173572         4.7231 
*Only the first 10 virtual orbitals were printed.
Total SCF time: 0 days 0 hours 0 min 13 sec 
Finished LeanSCF after  13.6 sec

Maximum memory used throughout the entire LEANSCF-calculation: 30.4 MB


-------------------------------------------------------------------------------
                          DFT DISPERSION CORRECTION                            
                                                                               
                                DFTD4 V3.4.0                                   
-------------------------------------------------------------------------------
-------------------------   ----------------
Dispersion correction           -0.005573309
-------------------------   ----------------

------------------   -----------------
gCP correction             0.011137644
------------------   -----------------

-------------------------   --------------------
FINAL SINGLE POINT ENERGY      -312.205981761371
-------------------------   --------------------

------------------------------------------------------------------------------
                         ORCA SCF GRADIENT CALCULATION
------------------------------------------------------------------------------

Nuc. rep. gradient        (SHARK) ... done (  0.0 sec)
HCore & Overlap gradient  (SHARK) ... done (  0.3 sec)
Split-RIJ-J gradient      (SHARK) ... done (  1.6 sec)
XC gradient                       ... done (  8.0 sec)
CPCM gradient                     ... done (  1.1 sec)
SMD gradient                      ... done (  0.0 sec)
Dispersion correction             ... done (  0.0 sec)

-------------------
DISPERSION GRADIENT
-------------------

   1   C   :    0.000090254   -0.000029142   -0.000034933
   2   C   :    0.000067424   -0.000001276    0.000018892
   3   H   :    0.000034307   -0.000000970    0.000020783
   4   C   :    0.000008333    0.000038038    0.000002066
   5   C   :   -0.000064234    0.000000907    0.000016752
   6   C   :   -0.000089578    0.000043179   -0.000001521
   7   C   :   -0.000064311   -0.000068884   -0.000023613
   8   O   :    0.000083750    0.000047639    0.000033210
   9   H   :    0.000037744   -0.000014042   -0.000006023
  10   H   :    0.000036661   -0.000023899   -0.000021086
  11   H   :    0.000041397   -0.000002597   -0.000019232
  12   H   :    0.000006116    0.000031512    0.000015812
  13   H   :    0.000005169    0.000018756   -0.000012702
  14   H   :   -0.000029355   -0.000002013    0.000018383
  15   H   :   -0.000034897    0.000010305    0.000003463
  16   H   :   -0.000035202    0.000020160   -0.000009099
  17   H   :   -0.000034198    0.000027295    0.000006908
  18   H   :   -0.000030218   -0.000026286   -0.000023143
  19   H   :   -0.000021193   -0.000041730   -0.000004157
  20   H   :   -0.000031189   -0.000030986   -0.000004964
  21   H   :    0.000023219    0.000004035    0.000024203

Difference to translation invariance:
           :   -0.0000000000   -0.0000000000    0.0000000000

Difference to rotation invariance:
           :    0.0000000000   -0.0000000000    0.0000000000

Norm of the Dispersion gradient    ...    0.0002719903
RMS gradient                       ...    0.0000342676
MAX gradient                       ...    0.0000902539
gCP correction                   ... done

------------------
CARTESIAN GRADIENT
------------------

   1   C   :    0.001596496   -0.002377864   -0.009253249
   2   C   :    0.007366143    0.005472496    0.010278544
   3   H   :    0.001759222    0.001599564    0.000634592
   4   C   :   -0.000192015    0.004769276   -0.006925949
   5   C   :    0.001427790   -0.002504155    0.005298206
   6   C   :   -0.004239951    0.003978363   -0.003739446
   7   C   :   -0.000855943   -0.003851582   -0.005912101
   8   O   :   -0.012683230   -0.009510260   -0.007775803
   9   H   :   -0.003788420    0.003196201   -0.000432066
  10   H   :    0.002869613    0.003691826    0.003643145
  11   H   :   -0.000941163   -0.003599708    0.003381646
  12   H   :   -0.000162915   -0.002566030   -0.000049222
  13   H   :    0.000130688   -0.002016776    0.003869286
  14   H   :   -0.000409515    0.000255450   -0.001988303
  15   H   :    0.005280343    0.001480627   -0.000470031
  16   H   :    0.000546221   -0.001689640    0.005427188
  17   H   :    0.000581162   -0.004931929   -0.002042944
  18   H   :   -0.000658748   -0.000265053    0.005680837
  19   H   :   -0.003272855    0.004742202    0.000042476
  20   H   :    0.004221076    0.003225533   -0.000269364
  21   H   :    0.001426000    0.000901459    0.000602557

Difference to translation invariance:
           :    0.0000000000   -0.0000000000    0.0000000000

Difference to rotation invariance:
           :    0.0000998335   -0.0002963090    0.0004075246

Norm of the Cartesian gradient     ...    0.0333346183
RMS gradient                       ...    0.0041997671
MAX gradient                       ...    0.0126832299

-------
TIMINGS
-------

Total SCF gradient time     ....       11.928 sec

Densities                   ....       0.001 sec  (  0.0%)
One electron gradient       ....       0.335 sec  (  2.8%)
RI-J Coulomb gradient       ....       1.594 sec  ( 13.4%)
XC gradient                 ....       8.012 sec  ( 67.2%)
CPCM gradient               ....       1.097 sec  (  9.2%)
   A-Matrix (El+Nuc)        ....       0.082 sec  (  0.7%)
   Potential                ....       1.014 sec  (  8.5%)
SMD gradient                ....       0.018 sec  (  0.2%)

Maximum memory used throughout the entire SCFGRAD-calculation: 34.6 MB

------------------------------------------------------------------------------
                              ORCA PROPERTY CALCULATIONS
------------------------------------------------------------------------------

GBWName                                 ... xtb_opt.gbw
Number of atoms                         ...     21
Number of basis functions               ...    208
Max core memory                         ...   1024 MB

Electric properties:
Dipole moment                           ... YES
Quadrupole moment                       ...  NO
Static polarizability (Dipole/Dipole)   ...  NO
Static polarizability (Dipole/Quad.)    ...  NO
Static polarizability (Quad./Quad.)     ...  NO
Static polarizability (Velocity)        ...  NO

Atomic electric properties:
Dipole moment                           ...  NO
Quadrupole moment                       ...  NO
Static polarizability                   ...  NO

Choice of electric origin               ... Center of mass
Position of electric origin             ...    -0.000025    -0.000009    -0.000016

General magnetic properties:
Magnetizability                         ...  NO

EPR properties:
g-Tensor (aka g-matrix)                 ...  NO
Zero-Field splitting spin-orbit         ...  NO
Zero-field splitting spin-spin          ...  NO
Hyperfine couplings                     ...  NO (   0 nuclei)
Quadrupole couplings                    ...  NO (   0 nuclei)
Contact density                         ...  NO (   0 nuclei)

NMR properties:
Chemical shifts                         ...  NO (   0 nuclei)
Spin-rotation constants                 ...  NO (   0 nuclei)
Spin-spin couplings                     ...  NO (   0 nuclei,    0 pairs)

Choice of magnetic origin               ... GIAO
Position of magnetic origin             ...     0.000000     0.000000     0.000000

Properties with geometric perturbations:
SCF Hessian                             ...  NO
IR spectrum                             ...  NO
VCD spectrum                            ...  NO
X-ray spectroscopy properties:
SCF XES/XAS/RIXS spectra                ...  NO


-------------
DIPOLE MOMENT
-------------

Method             : SCF
Type of density    : Electron Density
Multiplicity       :   1
Irrep              :   0
Energy             :  -312.2115460968266234 Eh
Relativity type    : 
Basis              : AO
                                X                 Y                 Z
Electronic contribution:      4.383107904       1.886442888       3.067894003
Nuclear contribution   :     -4.631807172      -1.867896772      -3.898361777
                        -----------------------------------------
Total Dipole Moment    :     -0.248699268       0.018546116      -0.830467774
                        -----------------------------------------
Magnitude (a.u.)       :      0.867105534
Magnitude (Debye)      :      2.204007112



--------------------
Rotational spectrum 
--------------------
 
Rotational constants in cm-1:             0.141961             0.048831             0.040409 
Rotational constants in MHz :          4255.896850          1463.903818          1211.439295 

Dipole components along the rotational axes: 
x,y,z [a.u.] :    -0.345976     0.379979    -0.698419 
x,y,z [Debye]:    -0.879402     0.965829    -1.775239 

 

Dipole moment calculation done in   0.0 sec 

Maximum memory used throughout the entire PROP-calculation: 13.0 MB

--------------------------------
SUGGESTED CITATIONS FOR THIS RUN
--------------------------------

Below you find a list of papers that are relevant to this ORCA run
We neither can nor want to force you to cite these papers, but we appreciate if you do
You receive ORCA, which is the product of decades of hard work by many enthusiastic individuals, for free
The only thing we kindly ask in return is that you cite our papers,
We deeply appreciate it, if you show your appreciation for ORCA by not just citing the generic ORCA reference.

Please note that relegating all ORCA citations to the supporting information does *not* help us.
SI sections are not indexed - citations you put there will not count into any citation statistics
But we need these citations in order to attract the funding resources that allow us to do what we are doing

Therefore, if you are a happy ORCA user, please consider citing a few of the papers listed below in the main body of your paper

In addition to the list printed below, the program has created the file xtb_opt.bibtex that contains the list in bibtex format
You can import this file easily into all common literature databanks and citation aid programs


List of essential papers. We consider these as the minimum necessary citations

  1. Neese,F.
     Software update: the ORCA program system, version 5.0
     WIRES Comput. Molec. Sci., 2022 12(1)e1606
     doi.org/10.1002/wcms.1606
  2. Grimme,S.; Hansen,A.; Ehlert,S.; Mewes,J.
     r2SCAN-3c: A 'Swiss army knife' composite electronic-structure method
     J. Chem. Phys., 2021 154 064103
     doi.org/10.1063/5.0040021

List of papers to cite with high priority. The work reported in these papers was absolutely
necessary for this run to complete.
Our perspective: the developers of density functionals and basis sets usually get cited in chemistry papers
Good! But without the algorithms to do something with them, the functionals or basis sets would not do anything.
Hence, in our opinion, the algorithm design and method developments papers are equally worthy of getting cited

  1. Neese,F.
     An improvement of the resolution of the identity approximation for the formation of the Coulomb matrix
     J. Comp. Chem., 2003 24(14)1740-1747
     doi.org/10.1002/jcc.10318
  2. Garcia-Rates,M.; Neese,F.
     Effect of the Solute Cavity on the Solvation Energy and its Derivatives within the Framework of the Gaussian Charge Scheme
     J. Comput. Chem., 2020 41 922-939
     doi.org/10.1002/jcc.26139
  3. Neese,F.
     The SHARK Integral Generation and Digestion System
     J. Comp. Chem., 2022  1-16
     doi.org/10.1002/jcc.26942
  4. Lehtola,S.; Steigemann,C.; Oliveira,M.; Marques,M.
     Recent developments in Libxc - A comprehensive library of functionals for density functional theory
     Software X, 2018 7 
     doi.org/10.1016/j.softx.2017.11.002
  5. Caldeweyher,E.; Bannwarth,C.; Grimme,S.
     Extension of the D3 dispersion coefficient model
     J. Chem. Phys., 2017 147 034112-XXXX
     doi.org/10.1063/1.4993215
  6. Caldeweyher,E.; Ehlert,S.; Hansen,A.; Neugebauer,H.; Spicher,S.; Bannwarth,C.; Grimme,S.
     A generally applicable atomic-charge dependent London dispersion correction
     J. Chem. Phys., 2019 150 154122-XXXX
     doi.org/10.1063/1.5090222
  7. Caldeweyher,E.; Mewes,J.; Ehlert,S.; Grimme,S.
     Extension and evaluation of the D4 London-dispersion model for periodic systems
     Phys. Chem. Chem. Phys., 2020 22(16)8499-8512
     doi.org/10.1039/D0CP00502A

List of suggested additional citations. These are papers that are important in the 'surrounding' of 
of this run, or papers that preceded the highly important papers. If you like your results we are grateful for a citation.

  1. Neese,F.
     The ORCA program system
     WIRES Comput. Molec. Sci., 2012 2(1)73-78
     doi.org/10.1002/wcms.81
  2. Neese,F.
     Software update: the ORCA program system, version 4.0
     WIRES Comput. Molec. Sci., 2018 8(1)1-6
     doi.org/10.1002/wcms.1327
  3. Neese,F.; Wennmohs,F.; Becker,U.; Riplinger,C.
     The ORCA quantum chemistry program package
     J. Chem. Phys., 2020 152 Art. No. L224108
     doi.org/10.1063/5.0004608

List of optional additional citations

  1. Neese,F.
     Approximate second-order SCF convergence for spin unrestricted wavefunctions
     Chem. Phys. Lett., 2000 325(1-3)93-98
     doi.org/10.1016/s0009-2614(00)00662-x

Timings for individual modules:

Sum of individual times          ...       27.520 sec (=   0.459 min)
Startup calculation              ...        1.419 sec (=   0.024 min)   5.2 %
SCF iterations                   ...       13.935 sec (=   0.232 min)  50.6 %
Property calculations            ...        0.112 sec (=   0.002 min)   0.4 %
SCF Gradient evaluation          ...       12.053 sec (=   0.201 min)  43.8 %
                             ****ORCA TERMINATED NORMALLY****
TOTAL RUN TIME: 0 days 0 hours 0 minutes 28 seconds 303 msec
  ------------------------------------------------------------------------
          * successful ORCA run, taking over control again...

         :::::::::::::::::::::::::::::::::::::::::::::::::::::
         ::                  ORCA SUMMARY                   ::
         :::::::::::::::::::::::::::::::::::::::::::::::::::::
         :: total energy            -312.205981761371 Eh    ::
         :: gradient norm              0.033334618268 Eh/a0 ::
         :: HOMO-LUMO gap              0.000000000000 eV    ::
         :::::::::::::::::::::::::::::::::::::::::::::::::::::

      ----------------------------------------------------------- 
     |                       L-ANC optimizer                     |
      ----------------------------------------------------------- 
          low memory version by Sebastian Ehlert

          ...................................................
          :                      SETUP                      :
          :.................................................:
          :   energy convergence        0.5000000E-05 Eh    :
          :   grad. convergence         0.1000000E-02 Eh/a0 :
          :   optimization log               true           :
          :   writing optlog all                1     steps :
          :   Hessian reset                     8     steps :
          :   maximium step len.        1.0000000     a0    :
          :   LBFGS images                      8           :
          ...................................................
 * calculating model hessian...
Using Lindh-Hessian (1995)
 Shifting diagonal of input Hessian by   1.000000000000000E-002
 Lowest  eigenvalues of input Hessian
    0.000000    0.000000    0.000000    0.000000    0.000000    0.000000
    0.011836    0.013284    0.015158    0.019792    0.020162    0.020361
    0.021469    0.023412    0.025841    0.027649    0.032439    0.038574
 Highest eigenvalues
    1.201956    1.209421    1.264112    1.276956    1.287120    1.460108
 

........................................................................
.............................. CYCLE    1 ..............................
........................................................................
                         * ORCA takes the control...
  ------------------------------------------------------------------------

                                 *****************
                                 * O   R   C   A *
                                 *****************

                                            #,                                       
                                            ###                                      
                                            ####                                     
                                            #####                                    
                                            ######                                   
                                           ########,                                 
                                     ,,################,,,,,                         
                               ,,#################################,,                 
                          ,,##########################################,,             
                       ,#########################################, ''#####,          
                    ,#############################################,,   '####,        
                  ,##################################################,,,,####,       
                ,###########''''           ''''###############################       
              ,#####''   ,,,,##########,,,,          '''####'''          '####       
            ,##' ,,,,###########################,,,                        '##       
           ' ,,###''''                  '''############,,,                           
         ,,##''                                '''############,,,,        ,,,,,,###''
      ,#''                                            '''#######################'''  
     '                                                          ''''####''''         
             ,#######,   #######,   ,#######,      ##                                
            ,#'     '#,  ##    ##  ,#'     '#,    #''#        ,####,   ,####,        
            ##       ##  ##   ,#'  ##            #'  '#       #'       #'  '#        
            ##       ##  #######   ##           ,######,      #####,   #    #        
            '#,     ,#'  ##    ##  '#,     ,#' ,#      #,     #,   #   #,  ,#        
             '#######'   ##     ##  '#######'  #'      '#     '####' # '####'        



                #########################################################
                #                        -***-                          #
                #          Department of theory and spectroscopy        #
                #                                                       #
                #                      Frank Neese                      #
                #                                                       #
                #     Directorship, Architecture, Infrastructure        #
                #                    SHARK, DRIVERS                     #
                #        Core code/Algorithms in most modules           #
                #                                                       #
                #        Max Planck Institute fuer Kohlenforschung      #
                #                Kaiser Wilhelm Platz 1                 #
                #                 D-45470 Muelheim/Ruhr                 #
                #                      Germany                          #
                #                                                       #
                #                  All rights reserved                  #
                #                        -***-                          #
                #########################################################


                         Program Version 6.0.0  -   RELEASE  -


 With contributions from (in alphabetic order):
   Daniel Aravena         : Magnetic Suceptibility
   Michael Atanasov       : Ab Initio Ligand Field Theory (pilot matlab implementation)
   Alexander A. Auer      : GIAO ZORA, VPT2 properties, NMR spectrum
   Ute Becker             : All parallelization in ORCA, NUMFREQ, NUMCALC
   Giovanni Bistoni       : ED, misc. LED, open-shell LED, HFLD
   Martin Brehm           : Molecular dynamics
   Dmytro Bykov           : pre 5.0 version of the SCF Hessian
   Marcos Casanova-Páez   : Triplet and SCS-CIS(D). UHF-(DLPNO)-IP/EA/STEOM-CCSD. UHF-CVS-IP/STEOM-CCSD
   Vijay G. Chilkuri      : MRCI spin determinant printing, contributions to CSF-ICE
   Pauline Colinet        : FMM embedding
   Dipayan Datta          : RHF DLPNO-CCSD density
   Achintya Kumar Dutta   : EOM-CC, STEOM-CC
   Nicolas Foglia         : Exact transition moments, OPA infrastructure, MCD improvements
   Dmitry Ganyushin       : Spin-Orbit,Spin-Spin,Magnetic field MRCI
   Miquel Garcia          : C-PCM and meta-GGA Hessian, CCSD/C-PCM, Gaussian charge scheme
   Tiago L. C. Gouveia    : GS-ROHF, GS-ROCIS
   Yang Guo               : DLPNO-NEVPT2, F12-NEVPT2, CIM, IAO-localization
   Andreas Hansen         : Spin unrestricted coupled pair/coupled cluster methods
   Ingolf Harden          : AUTO-CI MPn and infrastructure 
   Benjamin Helmich-Paris : MC-RPA, TRAH-(SCF,CASSCF), AVAS, COSX integrals, SCF dyn. polar.
   Lee Huntington         : MR-EOM, pCC
   Robert Izsak           : Overlap fitted RIJCOSX, COSX-SCS-MP3, EOM
   Riya Kayal             : Wick's Theorem for AUTO-CI, AUTO-CI UHF-CCSDT
   Emily Kempfer          : AUTO-CI, RHF CISDT and CCSDT
   Christian Kollmar      : KDIIS, OOCD, Brueckner-CCSD(T), CCSD density, CASPT2, CASPT2-K, improved NEVPT2
   Axel Koslowski         : Symmetry handling
   Simone Kossmann        : Meta GGA functionals, TD-DFT gradient, OOMP2, (MP2 Hessian; deprecated post 5.0)
   Lucas Lang             : DCDCAS
   Marvin Lechner         : AUTO-CI (C++ implementation), FIC-MRCC
   Spencer Leger          : CASSCF response
   Dagmar Lenk            : GEPOL surface, SMD, ORCA-2-JSON
   Dimitrios Liakos       : Extrapolation schemes; Compound Job, initial MDCI parallelization
   Dimitrios Manganas     : Further ROCIS development; embedding schemes. LFT, Crystal Embedding
   Dimitrios Pantazis     : SARC Basis sets
   Anastasios Papadopoulos: AUTO-CI, single reference methods and gradients
   Taras Petrenko         : pre 6.0 DFT Hessian and TD-DFT gradient, (ASA, deprecated), ECA, 1-Electron XAS/XES, NRVS
   Peter Pinski           : DLPNO-MP2, DLPNO-MP2 Gradient
   Christoph Reimann      : Effective Core Potentials
   Marius Retegan         : Local ZFS, SOC
   Christoph Riplinger    : Optimizer, TS searches, QM/MM, DLPNO-CCSD(T), (RO)-DLPNO pert. Triples
   Michael Roemelt        : Original ROCIS implementation
   Masaaki Saitow         : Open-shell DLPNO-CCSD energy and density
   Barbara Sandhoefer     : DKH picture change effects
   Kantharuban Sivalingam : CASSCF convergence/infrastructure, NEVPT2 and variants, FIC-MRCI
   Bernardo de Souza      : ESD, SOC TD-DFT
   Georgi Stoychev        : AutoAux, RI-MP2 NMR, DLPNO-MP2 response, X2C
   Van Anh Tran           : RI-MP2 g-tensors
   Willem Van den Heuvel  : Paramagnetic NMR
   Zikuan Wang            : NOTCH, Electric field optimization 
   Frank Wennmohs         : Technical directorship and infrastructure
   Hang Xu                : AUTO-CI-Response properties 


 We gratefully acknowledge several colleagues who have allowed us to
 interface, adapt or use parts of their codes:
   Stefan Grimme, W. Hujo, H. Kruse, P. Pracht,  : VdW corrections, initial TS optimization,
                  C. Bannwarth, S. Ehlert,         DFT functionals, gCP, sTDA/sTD-DF
                  L. Wittmann, M. Mueller
   Ed Valeev, F. Pavosevic, A. Kumar             : LibInt (2-el integral package), F12 methods
   Garnet Chan, S. Sharma, J. Yang, R. Olivares  : DMRG
   Ulf Ekstrom                                   : XCFun DFT Library
   Mihaly Kallay                                 : mrcc  (arbitrary order and MRCC methods)
   Frank Weinhold                                : gennbo (NPA and NBO analysis)
   Simon Mueller                                 : openCOSMO-RS
   Christopher J. Cramer and Donald G. Truhlar   : smd solvation model
   Lars Goerigk                                  : TD-DFT with DH, B97 family of functionals
   V. Asgeirsson, H. Jonsson                     : NEB implementation
   FAccTs GmbH                                   : IRC, NEB, NEB-TS, DLPNO-Multilevel, CI-OPT
                                                   MM, QMMM, 2- and 3-layer-ONIOM, Crystal-QMMM,
                                                   LR-CPCM, SF, NACMEs, symmetry and pop. for TD-DFT,
                                                   nearIR, NL-DFT gradient (VV10), updates on ESD,
                                                   ML-optimized integration grids, MBIS, APM,
                                                   GOAT, DOCKER, SOLVATOR, interface openCOSMO-RS
   S Lehtola, MJT Oliveira, MAL Marques          : LibXC Library
   Liviu Ungur et al                             : ANISO software


 Your calculation uses the libint2 library for the computation of 2-el integrals
 For citations please refer to: http://libint.valeyev.net

 Your ORCA version has been built with support for libXC version: 6.2.2
 For citations please refer to: https://libxc.gitlab.io

 This ORCA versions uses:
   CBLAS   interface :  Fast vector & matrix operations
   LAPACKE interface :  Fast linear algebra routines
   SCALAPACK package :  Parallel linear algebra routines
   Shared memory     :  Shared parallel matrices
   BLAS/LAPACK       :  OpenBLAS 0.3.27  USE64BITINT DYNAMIC_ARCH NO_AFFINITY SkylakeX SINGLE_THREADED
        Core in use  :  SkylakeX
   Copyright (c) 2011-2014, The OpenBLAS Project




***************************************
The coordinates will be read from file: xtb_opt.xyz
***************************************


Your calculation utilizes the geometrical counterpoise correction gCP
Please cite in your paper:
H.Kruse, S. Grimme J.Chem.Phys., 136, (2012), 154101 
   

Your calculation utilizes the atom-pairwise dispersion correction
based on EEQ partial charges (D4)


Your calculation utilizes the SMD solvation module
Please cite in your paper:
A.V. Marenich, C.J. Cramer, D.G. Truhlar J. Phys. Chem. B, 113, (2009), 6378 

================================================================================

----- Orbital basis set information -----
Your calculation utilizes the basis: def2-mTZVPP
   Stefan Grimme, Andreas Hansen, Sebastian Ehlert, and Jan-Michael Mewes 
   J. Chem. Phys. 154, 064103 (2021). DOI: 10.1063/5.0040021

----- AuxJ basis set information -----
Your calculation utilizes the auxiliary basis: def2/J
   F. Weigend, Phys. Chem. Chem. Phys. 8, 1057 (2006).

================================================================================
                                        WARNINGS
                       Please study these warnings very carefully!
================================================================================

WARNING: Old DensityContainer found on disk!
         Will remove this file - 
         If you want to keep old densities, please start your calculation with a different basename. 

Using LibXC functional ID 497 : Re-regularized SCAN exchange by Furness et al
[ 1]  J. W. Furness, A. D. Kaplan, J. Ning, J. P. Perdew, and J. Sun.,  J. Phys. Chem. Lett. 11, 8208-8215 (2020)
[ 2]  J. W. Furness, A. D. Kaplan, J. Ning, J. P. Perdew, and J. Sun.,  J. Phys. Chem. Lett. 11, 9248-9248 (2020)
Using LibXC functional ID 498 : Re-regularized SCAN correlation by Furness et al
[ 1]  J. W. Furness, A. D. Kaplan, J. Ning, J. P. Perdew, and J. Sun.,  J. Phys. Chem. Lett. 11, 8208-8215 (2020)
[ 2]  J. W. Furness, A. D. Kaplan, J. Ning, J. P. Perdew, and J. Sun.,  J. Phys. Chem. Lett. 11, 9248-9248 (2020)
Using LibXC functional ID 497 : Re-regularized SCAN exchange by Furness et al
[ 1]  J. W. Furness, A. D. Kaplan, J. Ning, J. P. Perdew, and J. Sun.,  J. Phys. Chem. Lett. 11, 8208-8215 (2020)
[ 2]  J. W. Furness, A. D. Kaplan, J. Ning, J. P. Perdew, and J. Sun.,  J. Phys. Chem. Lett. 11, 9248-9248 (2020)
Using LibXC functional ID 498 : Re-regularized SCAN correlation by Furness et al
[ 1]  J. W. Furness, A. D. Kaplan, J. Ning, J. P. Perdew, and J. Sun.,  J. Phys. Chem. Lett. 11, 8208-8215 (2020)
[ 2]  J. W. Furness, A. D. Kaplan, J. Ning, J. P. Perdew, and J. Sun.,  J. Phys. Chem. Lett. 11, 9248-9248 (2020)

================================================================================
                                       INPUT FILE
================================================================================
NAME = xtb_opt.inp
|  1> ! r2scan-3c def2/J RI DEFGRID2 scfconv7 ENGRAD tightSCF miniprint
|  2> %cpcm
|  3>     smd true
|  4>     smdsolvent "water"
|  5> end
|  6> * xyzfile 0 1 xtb_opt.xyz
|  7> 
|  8>                          ****END OF INPUT****
================================================================================

                     *******************************
                     * Energy+Gradient Calculation *
                     *******************************

---------------------------------
CARTESIAN COORDINATES (ANGSTROEM)
---------------------------------
  C      1.924517   -0.785182   -0.800368
  C      1.208410   -0.101822    0.360131
  H      0.928201   -0.857090    1.104986
  C     -0.061027    0.655135   -0.079367
  C     -1.384027   -0.072040    0.193126
  C     -2.561746    0.849040   -0.128820
  C     -1.503367   -1.381579   -0.587196
  O      2.120632    0.758646    1.058799
  H      2.815700   -1.310886   -0.446981
  H      1.268107   -1.503685   -1.295118
  H      2.227756   -0.035341   -1.538075
  H     -0.080028    1.608752    0.459289
  H     -0.000395    0.887736   -1.150101
  H     -1.415576   -0.308724    1.265553
  H     -3.513773    0.360075    0.095606
  H     -2.557233    1.110415   -1.191784
  H     -2.508417    1.775905    0.449321
  H     -1.411148   -1.191462   -1.661416
  H     -0.733589   -2.101577   -0.298590
  H     -2.477511   -1.845859   -0.408595
  H      2.465755    1.403595    0.426616

----------------------------
CARTESIAN COORDINATES (A.U.)
----------------------------
  NO LB      ZA    FRAG     MASS         X           Y           Z
   0 C     6.0000    0    12.011    3.636809   -1.483779   -1.512477
   1 C     6.0000    0    12.011    2.283564   -0.192416    0.680548
   2 H     1.0000    0     1.008    1.754045   -1.619665    2.088121
   3 C     6.0000    0    12.011   -0.115324    1.238025   -0.149982
   4 C     6.0000    0    12.011   -2.615432   -0.136136    0.364955
   5 C     6.0000    0    12.011   -4.840999    1.604454   -0.243434
   6 C     6.0000    0    12.011   -2.840952   -2.610805   -1.109639
   7 O     8.0000    0    15.999    4.007414    1.433632    2.000840
   8 H     1.0000    0     1.008    5.320902   -2.477215   -0.844673
   9 H     1.0000    0     1.008    2.396374   -2.841553   -2.447417
  10 H     1.0000    0     1.008    4.209849   -0.066785   -2.906540
  11 H     1.0000    0     1.008   -0.151232    3.040101    0.867930
  12 H     1.0000    0     1.008   -0.000747    1.677579   -2.173376
  13 H     1.0000    0     1.008   -2.675050   -0.583405    2.391548
  14 H     1.0000    0     1.008   -6.640068    0.680444    0.180670
  15 H     1.0000    0     1.008   -4.832471    2.098379   -2.252145
  16 H     1.0000    0     1.008   -4.740220    3.355975    0.849093
  17 H     1.0000    0     1.008   -2.666683   -2.251536   -3.139620
  18 H     1.0000    0     1.008   -1.386283   -3.971405   -0.564253
  19 H     1.0000    0     1.008   -4.681817   -3.488168   -0.772132
  20 H     1.0000    0     1.008    4.659602    2.652410    0.806187

------------------------------------------------------------------------------
                   ___                                                        
                  /   \      - P O W E R E D   B Y -                         
                 /     \                                                     
                 |  |  |   _    _      __       _____    __    __             
                 |  |  |  | |  | |    /  \     |  _  \  |  |  /  |          
                  \  \/   | |  | |   /    \    | | | |  |  | /  /          
                 / \  \   | |__| |  /  /\  \   | |_| |  |  |/  /          
                |  |  |   |  __  | /  /__\  \  |    /   |      \           
                |  |  |   | |  | | |   __   |  |    \   |  |\   \          
                \     /   | |  | | |  |  |  |  | |\  \  |  | \   \       
                 \___/    |_|  |_| |__|  |__|  |_| \__\ |__|  \__/        
                                                                              
                      - O R C A' S   B I G   F R I E N D -                    
                                      &                                       
                       - I N T E G R A L  F E E D E R -                       
                                                                              
 v1 FN, 2020, v2 2021, v3 2022-2024                                           
------------------------------------------------------------------------------


----------------------
SHARK INTEGRAL PACKAGE
----------------------

Number of atoms                             ...     21
Number of basis functions                   ...    208
Number of shells                            ...    106
Maximum angular momentum                    ...      2
Integral batch strategy                     ... SHARK/LIBINT Hybrid
RI-J (if used) integral strategy            ... SPLIT-RIJ (Revised 2003 algorithm where possible)
Printlevel                                  ...      1
Contraction scheme used                     ... SEGMENTED contraction
Prescreening option                         ... SCHWARTZ
   Thresh                                   ... 3.000e-11
   Tcut                                     ... 1.000e-12
   Tpresel                                  ... 1.000e-12 
Coulomb Range Separation                    ... NOT USED
Exchange Range Separation                   ... NOT USED
Multipole approximations                    ... NOT USED
Finite Nucleus Model                        ... NOT USED
CABS basis                                  ... NOT available
Auxiliary Coulomb fitting basis             ... AVAILABLE
   # of basis functions in Aux-J            ...    497
   # of shells in Aux-J                     ...    175
   Maximum angular momentum in Aux-J        ...      4
Auxiliary J/K fitting basis                 ... NOT available
Auxiliary Correlation fitting basis         ... NOT available
Auxiliary 'external' fitting basis          ... NOT available

Checking pre-screening integrals            ... done (  0.0 sec) Dimension = 106
Check shell pair data                       ... done (  0.0 sec)
Shell pair information
Shell pair cut-off parameter TPreSel        ...   1.0e-12
Total number of shell pairs                 ...      5671
Shell pairs after pre-screening             ...      5194
Total number of primitive shell pairs       ...     19699
Primitive shell pairs kept                  ...     13182
          la=0 lb=0:   1837 shell pairs
          la=1 lb=0:   2018 shell pairs
          la=1 lb=1:    580 shell pairs
          la=2 lb=0:    466 shell pairs
          la=2 lb=1:    259 shell pairs
          la=2 lb=2:     34 shell pairs

Calculating one electron integrals          ... done (  0.0 sec)
Calculating RI/J V-Matrix + Cholesky decomp.... done (  0.1 sec)
Calculating Nuclear repulsion               ... done (  0.0 sec) ENN=    331.334713296492 Eh

Diagonalization of the overlap matrix:
Smallest eigenvalue                        ... 1.625e-04
Time for diagonalization                   ...    0.005 sec
Threshold for overlap eigenvalues          ... 1.000e-07
Number of eigenvalues below threshold      ... 0
Time for construction of square roots      ...    0.017 sec
Total time needed                          ...    0.031 sec

-------------------
DFT GRID GENERATION
-------------------

General Integration Accuracy     IntAcc      ... 4.388
Radial Grid Type                 RadialGrid  ... OptM3 with GC (2021)
Angular Grid (max. ang.)         AngularGrid ... 4 (Lebedev-302)
Angular grid pruning method      GridPruning ... 4 (adaptive)
Weight generation scheme         WeightScheme... mBecke (2022)
Basis function cutoff            BFCut       ... 1.0000e-11
Integration weight cutoff        WCut        ... 1.0000e-14
Partially contracted basis set               ... off
Rotationally invariant grid construction     ... off
Angular grids for H and He will be reduced by one unit
Diffuse basis detected: some atoms will have their outermost
                        angular grid increased by 1.

Total number of grid points                  ...    87047
Total number of batches                      ...     1370
Average number of points per batch           ...       63
Average number of grid points per atom       ...     4145
Initializing property integral containers    ... done (  0.0 sec)

SHARK setup successfully completed in   1.3 seconds

Maximum memory used throughout the entire STARTUP-calculation: 38.1 MB
Occupation numbers will be reassigned to an Aufbau configuration
             **** ENERGY FILE WAS UPDATED (xtb_opt.en.tmp) ****
Finished Guess after   0.3 sec
Maximum memory used throughout the entire GUESS-calculation: 14.4 MB
--------------------
CPCM SOLVATION MODEL
--------------------
CPCM parameters:
  Epsilon                                         ...      78.3550
  Refrac                                          ...       1.3328
  Rsolv                                           ...       1.3000
  Surface type                                    ... GAUSSIAN VDW
  Discretization scheme                           ... Constant charge density
    Threshold for H atoms                         ...       5.0000 (charges/Ang^2)
    Threshold for non-H atoms                     ...       5.0000 (charges/Ang^2)
  Epsilon function type                           ...         CPCM
Solvent:                                          ... WATER
SMD-CDS solvent descriptors:
  Soln                                            ...       1.3328
  Soln25                                          ...       1.3323
  Sola                                            ...       0.0000
  Solb                                            ...       0.0000
  Solg                                            ...       0.0000
  Solc                                            ...       0.0000
  Solh                                            ...       0.0000
Radii:
  Scheme                                          ... Element-dependent radii
  Radius for C  used is    3.4960 Bohr (=   1.8500 Ang.)
  Radius for H  used is    2.2677 Bohr (=   1.2000 Ang.)
  Radius for O  used is    2.8724 Bohr (=   1.5200 Ang.)
Calculating surface                               ...        done! (  0.0s)
Cavity surface points                             ...         1527
Cavity Volume                                     ...     855.8573
Cavity Surface-area                               ...     565.1031
Calculating surface distance matrix               ...        done! (  0.0s)
Performing Cholesky decomposition & store         ...        done! (  0.1s)
Overall time for CPCM initialization              ...                 0.1s

----------------------------------------D-I-I-S--------------------------------------------
Iteration    Energy (Eh)           Delta-E    RMSDP     MaxDP     DIISErr   Damp  Time(sec)
-------------------------------------------------------------------------------------------
               ***  Starting incremental Fock matrix formation  ***
    1    -312.2181375077900611     0.00e+00  7.60e-05  1.56e-03  4.04e-03  0.700   3.9
                              *** Initializing SOSCF ***
---------------------------------------S-O-S-C-F--------------------------------------
Iteration    Energy (Eh)           Delta-E    RMSDP     MaxDP     MaxGrad    Time(sec)
--------------------------------------------------------------------------------------
    2    -312.2182318767561355    -9.44e-05  2.32e-04  4.77e-03  3.05e-03     3.1
               *** Restarting incremental Fock matrix formation ***
    3    -312.2184468995470752    -2.15e-04  5.74e-05  9.65e-04  3.50e-04     3.6
    4    -312.2184448262803471     2.07e-06  3.01e-05  6.29e-04  4.87e-04     3.0
    5    -312.2184544690135226    -9.64e-06  4.51e-06  1.61e-04  2.58e-05     3.0
    6    -312.2184544791740564    -1.02e-08  1.55e-06  2.89e-05  1.51e-05     2.8
                 **** Energy Check signals convergence ****

               *****************************************************
               *                     SUCCESS                       *
               *           SCF CONVERGED AFTER   6 CYCLES          *
               *****************************************************


SMD CDS free energy correction energy :                 3.75796     Kcal/mol
Total Energy after SMD CDS correction =              -312.212465783 Eh
             **** ENERGY FILE WAS UPDATED (xtb_opt.en.tmp) ****

----------------
TOTAL SCF ENERGY
----------------

Total Energy       :       -312.21246578262708 Eh           -8495.73311 eV

Components:
Nuclear Repulsion  :        331.33471329649240 Eh            9016.07592 eV
Electronic Energy  :       -643.53865805208829 Eh          -17511.57716 eV
One Electron Energy:      -1078.31904294989704 Eh          -29342.55291 eV
Two Electron Energy:        434.78038489780869 Eh           11830.97575 eV
CPCM Dielectric    :         -0.01450972357800 Eh              -0.39483 eV
SMD CDS (Gcds)     :          0.00598869654699 Eh               0.16296 eV

Virial components:
Potential Energy   :       -622.88934780580666 Eh          -16949.68086 eV
Kinetic Energy     :        310.67688202317964 Eh            8453.94775 eV
Virial Ratio       :          2.00494270365226

DFT components:
N(Alpha)           :       29.000011785103 electrons
N(Beta)            :       29.000011785103 electrons
N(Total)           :       58.000023570206 electrons
E(X)               :      -44.472943828162 Eh       
E(C)               :       -1.811660856725 Eh       
E(XC)              :      -46.284604684886 Eh       

CPCM Solvation Model Properties:
Surface-charge          :         -0.05056923500285
Corrected charge        :          0.00000000000000
Outlying charge corr.   :          0.00019969737478 Eh               0.00543 eV
Free-energy (cav+disp)  :          0.00598869654699 Eh               0.16296 eV

---------------
SCF CONVERGENCE
---------------

  Last Energy change         ...    1.0161e-08  Tolerance :   1.0000e-07
  Last MAX-Density change    ...    2.8883e-05  Tolerance :   1.0000e-07
  Last RMS-Density change    ...    1.5548e-06  Tolerance :   5.0000e-09
  Last DIIS Error            ...    3.0452e-03  Tolerance :   1.0000e-07
  Last Orbital Gradient      ...    1.5077e-05  Tolerance :   1.0000e-04
  Last Orbital Rotation      ...    1.1723e-05  Tolerance :   1.0000e-04


----------------
ORBITAL ENERGIES
----------------

  NO   OCC          E(Eh)            E(eV) 
   0   2.0000     -18.946545      -515.5617 
   1   2.0000     -10.075777      -274.1758 
   2   2.0000     -10.027894      -272.8729 
   3   2.0000     -10.014086      -272.4971 
   4   2.0000     -10.011402      -272.4241 
   5   2.0000     -10.008785      -272.3529 
   6   2.0000     -10.008562      -272.3468 
   7   2.0000      -0.979817       -26.6622 
   8   2.0000      -0.769891       -20.9498 
   9   2.0000      -0.710682       -19.3386 
  10   2.0000      -0.644146       -17.5281 
  11   2.0000      -0.638080       -17.3630 
  12   2.0000      -0.564739       -15.3673 
  13   2.0000      -0.521983       -14.2039 
  14   2.0000      -0.445733       -12.1290 
  15   2.0000      -0.427994       -11.6463 
  16   2.0000      -0.424633       -11.5548 
  17   2.0000      -0.389064       -10.5870 
  18   2.0000      -0.378875       -10.3097 
  19   2.0000      -0.362296        -9.8586 
  20   2.0000      -0.356943        -9.7129 
  21   2.0000      -0.341464        -9.2917 
  22   2.0000      -0.336877        -9.1669 
  23   2.0000      -0.313599        -8.5335 
  24   2.0000      -0.297145        -8.0857 
  25   2.0000      -0.288264        -7.8441 
  26   2.0000      -0.282710        -7.6929 
  27   2.0000      -0.277459        -7.5501 
  28   2.0000      -0.235800        -6.4165 
  29   0.0000       0.078991         2.1494 
  30   0.0000       0.093788         2.5521 
  31   0.0000       0.117849         3.2068 
  32   0.0000       0.119712         3.2575 
  33   0.0000       0.130360         3.5473 
  34   0.0000       0.138095         3.7577 
  35   0.0000       0.148247         4.0340 
  36   0.0000       0.151122         4.1122 
  37   0.0000       0.153701         4.1824 
  38   0.0000       0.165828         4.5124 
  39   0.0000       0.172754         4.7009 
*Only the first 10 virtual orbitals were printed.
Total SCF time: 0 days 0 hours 0 min 20 sec 
Finished LeanSCF after  20.2 sec

Maximum memory used throughout the entire LEANSCF-calculation: 30.4 MB


-------------------------------------------------------------------------------
                          DFT DISPERSION CORRECTION                            
                                                                               
                                DFTD4 V3.4.0                                   
-------------------------------------------------------------------------------
-------------------------   ----------------
Dispersion correction           -0.005557819
-------------------------   ----------------

------------------   -----------------
[...]
  Last Orbital Gradient      ...    8.6643e-06  Tolerance :   1.0000e-04
  Last Orbital Rotation      ...    1.5021e-05  Tolerance :   1.0000e-04


----------------
ORBITAL ENERGIES
----------------

  NO   OCC          E(Eh)            E(eV) 
   0   2.0000     -18.946193      -515.5521 
   1   2.0000     -10.076510      -274.1958 
   2   2.0000     -10.029128      -272.9064 
   3   2.0000     -10.015508      -272.5358 
   4   2.0000     -10.011916      -272.4381 
   5   2.0000     -10.009600      -272.3751 
   6   2.0000     -10.009505      -272.3725 
   7   2.0000      -0.975941       -26.5567 
   8   2.0000      -0.770210       -20.9585 
   9   2.0000      -0.711219       -19.3533 
  10   2.0000      -0.644974       -17.5506 
  11   2.0000      -0.637724       -17.3533 
  12   2.0000      -0.562917       -15.3178 
  13   2.0000      -0.522035       -14.2053 
  14   2.0000      -0.444366       -12.0918 
  15   2.0000      -0.427249       -11.6260 
  16   2.0000      -0.425449       -11.5770 
  17   2.0000      -0.387866       -10.5544 
  18   2.0000      -0.378554       -10.3010 
  19   2.0000      -0.362471        -9.8633 
  20   2.0000      -0.356959        -9.7134 
  21   2.0000      -0.340280        -9.2595 
  22   2.0000      -0.335636        -9.1331 
  23   2.0000      -0.314439        -8.5563 
  24   2.0000      -0.299469        -8.1490 
  25   2.0000      -0.287982        -7.8364 
  26   2.0000      -0.282374        -7.6838 
  27   2.0000      -0.278404        -7.5758 
  28   2.0000      -0.236809        -6.4439 
  29   0.0000       0.078073         2.1245 
  30   0.0000       0.092993         2.5305 
  31   0.0000       0.118457         3.2234 
  32   0.0000       0.119571         3.2537 
  33   0.0000       0.128757         3.5037 
  34   0.0000       0.135625         3.6905 
  35   0.0000       0.148750         4.0477 
  36   0.0000       0.149737         4.0746 
  37   0.0000       0.153382         4.1737 
  38   0.0000       0.165587         4.5059 
  39   0.0000       0.172805         4.7023 
*Only the first 10 virtual orbitals were printed.
Total SCF time: 0 days 0 hours 0 min 7 sec 
Finished LeanSCF after   7.9 sec

Maximum memory used throughout the entire LEANSCF-calculation: 30.3 MB


-------------------------------------------------------------------------------
                          DFT DISPERSION CORRECTION                            
                                                                               
                                DFTD4 V3.4.0                                   
-------------------------------------------------------------------------------
-------------------------   ----------------
Dispersion correction           -0.005570135
-------------------------   ----------------

------------------   -----------------
gCP correction             0.010984752
------------------   -----------------

-------------------------   --------------------
FINAL SINGLE POINT ENERGY      -312.207417157376
-------------------------   --------------------

------------------------------------------------------------------------------
                         ORCA SCF GRADIENT CALCULATION
------------------------------------------------------------------------------

Nuc. rep. gradient        (SHARK) ... done (  0.0 sec)
HCore & Overlap gradient  (SHARK) ... done (  0.4 sec)
Split-RIJ-J gradient      (SHARK) ... done (  1.6 sec)
XC gradient                       ... done (  7.8 sec)
CPCM gradient                     ... done (  1.0 sec)
SMD gradient                      ... done (  0.0 sec)
Dispersion correction             ... done (  0.0 sec)

-------------------
DISPERSION GRADIENT
-------------------

   1   C   :    0.000088977   -0.000030019   -0.000036704
   2   C   :    0.000068256    0.000000030    0.000020381
   3   H   :    0.000034066   -0.000001113    0.000020466
   4   C   :    0.000008828    0.000040089    0.000004910
   5   C   :   -0.000064362    0.000001207    0.000017316
   6   C   :   -0.000090448    0.000043731   -0.000002948
   7   C   :   -0.000062789   -0.000070651   -0.000022746
   8   O   :    0.000080771    0.000047086    0.000029874
   9   H   :    0.000038236   -0.000015249   -0.000006951
  10   H   :    0.000035725   -0.000023433   -0.000022171
  11   H   :    0.000041093   -0.000002813   -0.000018640
  12   H   :    0.000006305    0.000031424    0.000017424
  13   H   :    0.000005290    0.000020766   -0.000010925
  14   H   :   -0.000029475   -0.000001829    0.000018525
  15   H   :   -0.000034855    0.000010517    0.000002599
  16   H   :   -0.000035881    0.000020236   -0.000009757
  17   H   :   -0.000034011    0.000026854    0.000005761
  18   H   :   -0.000029529   -0.000027305   -0.000022532
  19   H   :   -0.000020646   -0.000041710   -0.000003439
  20   H   :   -0.000030824   -0.000031524   -0.000004701
  21   H   :    0.000025273    0.000003704    0.000024262

Difference to translation invariance:
           :    0.0000000000    0.0000000000   -0.0000000000

Difference to rotation invariance:
           :    0.0000000000    0.0000000000   -0.0000000000

Norm of the Dispersion gradient    ...    0.0002719080
RMS gradient                       ...    0.0000342572
MAX gradient                       ...    0.0000904484
gCP correction                   ... done

------------------
CARTESIAN GRADIENT
------------------

   1   C   :    0.000110917   -0.000176740   -0.000223374
   2   C   :    0.000128994    0.000224200    0.000348228
   3   H   :   -0.000006067   -0.000027317   -0.000018910
   4   C   :   -0.000044481    0.000054555    0.000045077
   5   C   :    0.000087591   -0.000012715    0.000001078
   6   C   :   -0.000017507    0.000027159   -0.000005919
   7   C   :   -0.000019558   -0.000004769    0.000053724
   8   O   :   -0.000163340   -0.000050070   -0.000377773
   9   H   :   -0.000147021    0.000051327   -0.000063000
  10   H   :    0.000129202    0.000179321    0.000071413
  11   H   :    0.000029097   -0.000109393    0.000124019
  12   H   :   -0.000002328   -0.000034910   -0.000056046
  13   H   :   -0.000003641   -0.000007896    0.000012612
  14   H   :   -0.000010204   -0.000016419   -0.000004583
  15   H   :   -0.000037075   -0.000018184    0.000001369
  16   H   :    0.000014370    0.000008720   -0.000021151
  17   H   :    0.000005997    0.000031246    0.000027061
  18   H   :   -0.000041055    0.000034001   -0.000084360
  19   H   :    0.000048364   -0.000015707   -0.000045029
  20   H   :   -0.000029925   -0.000053145    0.000026430
  21   H   :   -0.000032331   -0.000083265    0.000189134

Difference to translation invariance:
           :    0.0000000000    0.0000000000   -0.0000000000

Difference to rotation invariance:
           :    0.0004292172   -0.0002424298    0.0000092257

Norm of the Cartesian gradient     ...    0.0008100087
RMS gradient                       ...    0.0001020515
MAX gradient                       ...    0.0003777733

-------
TIMINGS
-------

Total SCF gradient time     ....       11.699 sec

Densities                   ....       0.001 sec  (  0.0%)
One electron gradient       ....       0.382 sec  (  3.3%)
RI-J Coulomb gradient       ....       1.618 sec  ( 13.8%)
XC gradient                 ....       7.766 sec  ( 66.4%)
CPCM gradient               ....       1.025 sec  (  8.8%)
   A-Matrix (El+Nuc)        ....       0.129 sec  (  1.1%)
   Potential                ....       0.896 sec  (  7.7%)
SMD gradient                ....       0.013 sec  (  0.1%)

Maximum memory used throughout the entire SCFGRAD-calculation: 34.6 MB

------------------------------------------------------------------------------
                              ORCA PROPERTY CALCULATIONS
------------------------------------------------------------------------------

GBWName                                 ... xtb_opt.gbw
Number of atoms                         ...     21
Number of basis functions               ...    208
Max core memory                         ...   1024 MB

Electric properties:
Dipole moment                           ... YES
Quadrupole moment                       ...  NO
Static polarizability (Dipole/Dipole)   ...  NO
Static polarizability (Dipole/Quad.)    ...  NO
Static polarizability (Quad./Quad.)     ...  NO
Static polarizability (Velocity)        ...  NO

Atomic electric properties:
Dipole moment                           ...  NO
Quadrupole moment                       ...  NO
Static polarizability                   ...  NO

Choice of electric origin               ... Center of mass
Position of electric origin             ...     0.019674    -0.002751     0.001290

General magnetic properties:
Magnetizability                         ...  NO

EPR properties:
g-Tensor (aka g-matrix)                 ...  NO
Zero-Field splitting spin-orbit         ...  NO
Zero-field splitting spin-spin          ...  NO
Hyperfine couplings                     ...  NO (   0 nuclei)
Quadrupole couplings                    ...  NO (   0 nuclei)
Contact density                         ...  NO (   0 nuclei)

NMR properties:
Chemical shifts                         ...  NO (   0 nuclei)
Spin-rotation constants                 ...  NO (   0 nuclei)
Spin-spin couplings                     ...  NO (   0 nuclei,    0 pairs)

Choice of magnetic origin               ... GIAO
Position of magnetic origin             ...     0.000000     0.000000     0.000000

Properties with geometric perturbations:
SCF Hessian                             ...  NO
IR spectrum                             ...  NO
VCD spectrum                            ...  NO
X-ray spectroscopy properties:
SCF XES/XAS/RIXS spectra                ...  NO


-------------
DIPOLE MOMENT
-------------

Method             : SCF
Type of density    : Electron Density
Multiplicity       :   1
Irrep              :   0
Energy             :  -312.2128317746035577 Eh
Relativity type    : 
Basis              : AO
                                X                 Y                 Z
Electronic contribution:      4.437815419       1.856306430       3.077690608
Nuclear contribution   :     -4.834673505      -1.837953809      -3.922437686
                        -----------------------------------------
Total Dipole Moment    :     -0.396858085       0.018352621      -0.844747077
                        -----------------------------------------
Magnitude (a.u.)       :      0.933504571
Magnitude (Debye)      :      2.372780051



--------------------
Rotational spectrum 
--------------------
 
Rotational constants in cm-1:             0.141702             0.048555             0.040210 
Rotational constants in MHz :          4248.125012          1455.639378          1205.466651 

Dipole components along the rotational axes: 
x,y,z [a.u.] :    -0.495622     0.362766    -0.702987 
x,y,z [Debye]:    -1.259770     0.922077    -1.786851 

 

Dipole moment calculation done in   0.0 sec 

Maximum memory used throughout the entire PROP-calculation: 13.0 MB

--------------------------------
SUGGESTED CITATIONS FOR THIS RUN
--------------------------------

Below you find a list of papers that are relevant to this ORCA run
We neither can nor want to force you to cite these papers, but we appreciate if you do
You receive ORCA, which is the product of decades of hard work by many enthusiastic individuals, for free
The only thing we kindly ask in return is that you cite our papers,
We deeply appreciate it, if you show your appreciation for ORCA by not just citing the generic ORCA reference.

Please note that relegating all ORCA citations to the supporting information does *not* help us.
SI sections are not indexed - citations you put there will not count into any citation statistics
But we need these citations in order to attract the funding resources that allow us to do what we are doing

Therefore, if you are a happy ORCA user, please consider citing a few of the papers listed below in the main body of your paper

In addition to the list printed below, the program has created the file xtb_opt.bibtex that contains the list in bibtex format
You can import this file easily into all common literature databanks and citation aid programs


List of essential papers. We consider these as the minimum necessary citations

  1. Neese,F.
     Software update: the ORCA program system, version 5.0
     WIRES Comput. Molec. Sci., 2022 12(1)e1606
     doi.org/10.1002/wcms.1606
  2. Grimme,S.; Hansen,A.; Ehlert,S.; Mewes,J.
     r2SCAN-3c: A 'Swiss army knife' composite electronic-structure method
     J. Chem. Phys., 2021 154 064103
     doi.org/10.1063/5.0040021

List of papers to cite with high priority. The work reported in these papers was absolutely
necessary for this run to complete.
Our perspective: the developers of density functionals and basis sets usually get cited in chemistry papers
Good! But without the algorithms to do something with them, the functionals or basis sets would not do anything.
Hence, in our opinion, the algorithm design and method developments papers are equally worthy of getting cited

  1. Neese,F.
     An improvement of the resolution of the identity approximation for the formation of the Coulomb matrix
     J. Comp. Chem., 2003 24(14)1740-1747
     doi.org/10.1002/jcc.10318
  2. Garcia-Rates,M.; Neese,F.
     Effect of the Solute Cavity on the Solvation Energy and its Derivatives within the Framework of the Gaussian Charge Scheme
     J. Comput. Chem., 2020 41 922-939
     doi.org/10.1002/jcc.26139
  3. Neese,F.
     The SHARK Integral Generation and Digestion System
     J. Comp. Chem., 2022  1-16
     doi.org/10.1002/jcc.26942
  4. Lehtola,S.; Steigemann,C.; Oliveira,M.; Marques,M.
     Recent developments in Libxc - A comprehensive library of functionals for density functional theory
     Software X, 2018 7 
     doi.org/10.1016/j.softx.2017.11.002
  5. Caldeweyher,E.; Bannwarth,C.; Grimme,S.
     Extension of the D3 dispersion coefficient model
     J. Chem. Phys., 2017 147 034112-XXXX
     doi.org/10.1063/1.4993215
  6. Caldeweyher,E.; Ehlert,S.; Hansen,A.; Neugebauer,H.; Spicher,S.; Bannwarth,C.; Grimme,S.
     A generally applicable atomic-charge dependent London dispersion correction
     J. Chem. Phys., 2019 150 154122-XXXX
     doi.org/10.1063/1.5090222
  7. Caldeweyher,E.; Mewes,J.; Ehlert,S.; Grimme,S.
     Extension and evaluation of the D4 London-dispersion model for periodic systems
     Phys. Chem. Chem. Phys., 2020 22(16)8499-8512
     doi.org/10.1039/D0CP00502A

List of suggested additional citations. These are papers that are important in the 'surrounding' of 
of this run, or papers that preceded the highly important papers. If you like your results we are grateful for a citation.

  1. Neese,F.
     The ORCA program system
     WIRES Comput. Molec. Sci., 2012 2(1)73-78
     doi.org/10.1002/wcms.81
  2. Neese,F.
     Software update: the ORCA program system, version 4.0
     WIRES Comput. Molec. Sci., 2018 8(1)1-6
     doi.org/10.1002/wcms.1327
  3. Neese,F.; Wennmohs,F.; Becker,U.; Riplinger,C.
     The ORCA quantum chemistry program package
     J. Chem. Phys., 2020 152 Art. No. L224108
     doi.org/10.1063/5.0004608

List of optional additional citations

  1. Neese,F.
     Approximate second-order SCF convergence for spin unrestricted wavefunctions
     Chem. Phys. Lett., 2000 325(1-3)93-98
     doi.org/10.1016/s0009-2614(00)00662-x

Timings for individual modules:

Sum of individual times          ...       22.557 sec (=   0.376 min)
Startup calculation              ...        1.493 sec (=   0.025 min)   6.6 %
SCF iterations                   ...        9.120 sec (=   0.152 min)  40.4 %
Property calculations            ...        0.131 sec (=   0.002 min)   0.6 %
SCF Gradient evaluation          ...       11.813 sec (=   0.197 min)  52.4 %
                             ****ORCA TERMINATED NORMALLY****
TOTAL RUN TIME: 0 days 0 hours 0 minutes 23 seconds 402 msec
  ------------------------------------------------------------------------
          * successful ORCA run, taking over control again...

         :::::::::::::::::::::::::::::::::::::::::::::::::::::
         ::                  ORCA SUMMARY                   ::
         :::::::::::::::::::::::::::::::::::::::::::::::::::::
         :: total energy            -312.207417157376 Eh    ::
         :: gradient norm              0.000810008678 Eh/a0 ::
         :: HOMO-LUMO gap              0.000000000000 eV    ::
         :::::::::::::::::::::::::::::::::::::::::::::::::::::

           -------------------------------------------------
          |                Property Printout                |
           -------------------------------------------------
           -------------------------------------------------
          |                Geometry Summary                 |
           -------------------------------------------------

      molecular mass/u    :      102.1749908
   center of mass at/Å    :        0.0104289      -0.0014497       0.0006920
  moments of inertia/u·Å² :        0.1189621E+03   0.3471812E+03   0.4192322E+03
rotational constants/cm⁻¹ :        0.1417059E+00   0.4855572E-01   0.4021073E-01

 * 19 selected distances

     #   Z          #   Z                                           value/Å
     1   6 C        2   6 C                                       1.5215839
     2   6 C        3   1 H                                       1.0970662
     2   6 C        4   6 C                                       1.5372900 (max)
     4   6 C        5   6 C                                       1.5365074
     5   6 C        6   6 C                                       1.5290712
     5   6 C        7   6 C                                       1.5289972
     1   6 C        9   1 H                                       1.0941661
     1   6 C       10   1 H                                       1.0931142
     1   6 C       11   1 H                                       1.0965611
     4   6 C       12   1 H                                       1.0964993
     4   6 C       13   1 H                                       1.0997827
     5   6 C       14   1 H                                       1.0998616
     6   6 C       15   1 H                                       1.0954129
     6   6 C       16   1 H                                       1.0970103
     6   6 C       17   1 H                                       1.0956040
     7   6 C       18   1 H                                       1.0972641
     7   6 C       19   1 H                                       1.0945318
     7   6 C       20   1 H                                       1.0957531
     8   8 O       21   1 H                                       0.9667860 (min)

 * 3 distinct bonds (by element types)

   Z      Z             #   av. dist./Å        max./Å        min./Å
   1 H    6 C          13     1.0963559     1.0998616     1.0931142
   6 C    6 C           5     1.5306899     1.5372900     1.5215839
   1 H    8 O           1     0.9667860     0.9667860     0.9667860


optimized geometry written to: xtbopt.coord


           -------------------------------------------------
          | TOTAL ENERGY             -312.207417157376 Eh   |
          | GRADIENT NORM               0.000810008678 Eh/α |
           -------------------------------------------------

------------------------------------------------------------------------
 * finished run on 2025/04/11 at 12:04:41.472     
------------------------------------------------------------------------
 total:
 * wall-time:     0 d,  0 h,  5 min,  8.733 sec
 *  cpu-time:     0 d,  0 h,  0 min,  2.457 sec
 * ratio c/w:     0.008 speedup
 SCF:
 * wall-time:     0 d,  0 h,  0 min, 28.356 sec
 *  cpu-time:     0 d,  0 h,  0 min,  1.058 sec
 * ratio c/w:     0.037 speedup
 ANC optimizer:
 * wall-time:     0 d,  0 h,  4 min, 40.298 sec
 *  cpu-time:     0 d,  0 h,  0 min,  1.147 sec
 * ratio c/w:     0.004 speedup

