      -----------------------------------------------------------      
     |                   =====================                   |     
     |                           x T B                           |     
     |                   =====================                   |     
     |                         S. Grimme                         |     
     |          Mulliken Center for Theoretical Chemistry        |     
     |                    University of Bonn                     |     
      -----------------------------------------------------------      

   * xtb version 6.7.1 (edcfbbe) compiled by 'albert@albert-system' on 2024-07-22

   xtb is free software: you can redistribute it and/or modify it under
   the terms of the GNU Lesser General Public License as published by
   the Free Software Foundation, either version 3 of the License, or
   (at your option) any later version.
   
   xtb is distributed in the hope that it will be useful,
   but WITHOUT ANY WARRANTY; without even the implied warranty of
   MERCHANTABILITY or FITNESS FOR A PARTICULAR PURPOSE.  See the
   GNU Lesser General Public License for more details.
   
   Cite this work as:
   * C. Bannwarth, E. Caldeweyher, S. Ehlert, A. Hansen, P. Pracht,
     J. Seibert, S. Spicher, S. Grimme, WIREs Comput. Mol. Sci., 2020, 11,
     e01493. DOI: 10.1002/wcms.1493
   
   for GFN2-xTB:
   * C. Bannwarth, S. Ehlert and S. Grimme., J. Chem. Theory Comput., 2019,
     15, 1652-1671. DOI: 10.1021/acs.jctc.8b01176
   for GFN1-xTB:
   * S. Grimme, C. Bannwarth, P. Shushkov, J. Chem. Theory Comput., 2017,
     13, 1989-2009. DOI: 10.1021/acs.jctc.7b00118
   for GFN0-xTB:
   * P. Pracht, E. Caldeweyher, S. Ehlert, S. Grimme, ChemRxiv, 2019, preprint.
     DOI: 10.26434/chemrxiv.8326202.v1
   for GFN-FF:
   * S. Spicher and S. Grimme, Angew. Chem. Int. Ed., 2020, 59, 15665-15673.
     DOI: 10.1002/anie.202004239
   
   for ALPB and GBSA implicit solvation:
   * S. Ehlert, M. Stahn, S. Spicher, S. Grimme, J. Chem. Theory Comput.,
     2021, 17, 4250-4261. DOI: 10.1021/acs.jctc.1c00471
   
   for ddCOSMO and CPCM-X implicit solvation:
   * M. Stahn, S. Ehlert, S. Grimme, J. Phys. Chem. A,
     2023, XX, XXXX-XXXX. DOI: 10.1021/acs.jpca.3c04382
   
   for DFT-D4:
   * E. Caldeweyher, C. Bannwarth and S. Grimme, J. Chem. Phys., 2017,
     147, 034112. DOI: 10.1063/1.4993215
   * E. Caldeweyher, S. Ehlert, A. Hansen, H. Neugebauer, S. Spicher,
     C. Bannwarth and S. Grimme, J. Chem. Phys., 2019, 150, 154122.
     DOI: 10.1063/1.5090222
   * E. Caldeweyher, J.-M. Mewes, S. Ehlert and S. Grimme, Phys. Chem. Chem. Phys.
     2020, 22, 8499-8512. DOI: 10.1039/D0CP00502A
   
   for sTDA-xTB:
   * S. Grimme and C. Bannwarth, J. Chem. Phys., 2016, 145, 054103.
     DOI: 10.1063/1.4959605
   
   in the mass-spec context:
   * V. Asgeirsson, C. Bauer and S. Grimme, Chem. Sci., 2017, 8, 4879.
     DOI: 10.1039/c7sc00601b
   * J. Koopman and S. Grimme, ACS Omega 2019, 4, 12, 15120-15133.
     DOI: 10.1021/acsomega.9b02011
   
   for metadynamics refer to:
   * S. Grimme, J. Chem. Theory Comput., 2019, 155, 2847-2862
     DOI: 10.1021/acs.jctc.9b00143
   
   for SPH calculations refer to:
   * S. Spicher and S. Grimme, J. Chem. Theory Comput., 2021, 17, 1701-1714
     DOI: 10.1021/acs.jctc.0c01306
   
   for ONIOM refer to:
   * C. Plett, A. Katbashev, S. Ehlert, S. Grimme, M. Bursch,
     Phys. Chem. Chem. Phys., 2023, 25, 17860-17868. DOI: 10.1039/D3CP02178E
   
   for DIPRO refer to:
   * J. Kohn, N. Gildemeister, S. Grimme, D. Fazzi, A. Hansen,
     J. Chem. Phys., 2023, just accepted.
   
   for PTB refer to:
   * S. Grimme, M. Mueller, A. Hansen, J. Chem. Phys., 2023, 158, 124111.
     DOI: 10.1063/5.0137838
   
   with help from (in alphabetical order)
   P. Atkinson, C. Bannwarth, F. Bohle, G. Brandenburg, E. Caldeweyher
   M. Checinski, S. Dohm, S. Ehlert, S. Ehrlich, I. Gerasimov, C. Hölzer
   A. Katbashev, J. Kohn, J. Koopman, C. Lavigne, S. Lehtola, F. März, M. Müller,
   F. Musil, H. Neugebauer, J. Pisarek, C. Plett, P. Pracht, F. Pultar,
   J. Seibert, P. Shushkov, S. Spicher, M. Stahn, M. Steiner, T. Strunk,
   J. Stückrath, T. Rose, and J. Unsleber
   
 * started run on 2025/04/11 at 12:19:03.857     
   ID    Z sym.   atoms
    1    6 C      1-3, 6, 7
    2    8 O      4, 5
    3    1 H      8-17

           -------------------------------------------------
          |                Calculation Setup                |
           -------------------------------------------------

          program call               : /srv/scratch/z5358697/.xtb/bin/xtb solv.coord --gfn2 --sp --chrg 0 --norestart --parallel 1 --alpb water reference -I xtb_sp-xcontrol-inp
          hostname                   : k071
          coordinate file            : solv.coord
          omp threads                :                     1


           -------------------------------------------------
          |                 G F N 2 - x T B                 |
           -------------------------------------------------

        Reference                      10.1021/acs.jctc.8b01176
      * Hamiltonian:
        H0-scaling (s, p, d)           1.850000    2.230000    2.230000
        zeta-weighting                 0.500000
      * Dispersion:
        s8                             2.700000
        a1                             0.520000
        a2                             5.000000
        s9                             5.000000
      * Repulsion:
        kExp                           1.500000    1.000000
        rExp                           1.000000
      * Coulomb:
        alpha                          2.000000
        third order                    shell-resolved
        anisotropic                    true
        a3                             3.000000
        a5                             4.000000
        cn-shift                       1.200000
        cn-exp                         4.000000
        max-rad                        5.000000

      * Solvation model:               ALPB
        Solvent                        water
        Parameter file                 internal GFN2-xTB/ALPB
        Dielectric constant                8.0200E+01
        Reference state                gsolv=reference [X=1]
        Free energy shift                  2.8945E-03 Eh       1.8164E+00 kcal/mol
        Temperature                        2.9815E+02 K
        Density                            1.0000E+00 kg/L
        Solvent mass                       1.8000E+01 g/mol
        Interaction kernel             P16
        Born radius scaling (c1)           1.4744E+00
        Born radii integrator          GBOBC
        Born offset                        0.0000E+00 a0       0.0000E+00 AA
        H-bond correction              true
        Ion screening                  false
        Surface tension                    1.0000E-05 Eh       1.5569E+01 dyn/cm
        Grid points                               974 per atom

          ...................................................
          :                      SETUP                      :
          :.................................................:
          :  # basis functions                  38          :
          :  # atomic orbitals                  38          :
          :  # shells                           24          :
          :  # electrons                        42          :
          :  max. iterations                   250          :
          :  Hamiltonian                  GFN2-xTB          :
          :  restarted?                      false          :
          :  GBSA solvation                   true          :
          :  PC potential                    false          :
          :  electronic temp.          300.0000000     K    :
          :  accuracy                    1.0000000          :
          :  -> integral cutoff          0.2500000E+02      :
          :  -> integral neglect         0.1000000E-07      :
          :  -> SCF convergence          0.1000000E-05 Eh   :
          :  -> wf. convergence          0.1000000E-03 e    :
          :  Broyden damping             0.4000000          :
          :  net charge                          0          :
          :  unpaired electrons                  0          :
          ...................................................

 iter      E             dE          RMSdq      gap      omega  full diag
   1    -24.1670504 -0.241671E+02  0.417E+00    5.79       0.0  T
   2    -24.2223325 -0.552821E-01  0.207E+00    4.81       1.0  T
   3    -24.2238929 -0.156036E-02  0.105E+00    5.11       1.0  T
   4    -24.2252272 -0.133439E-02  0.165E-01    4.89       1.0  T
   5    -24.2254022 -0.174930E-03  0.710E-02    4.94       1.0  T
   6    -24.2254038 -0.163348E-05  0.224E-02    4.94       1.1  T
   7    -24.2254048 -0.102062E-05  0.420E-03    4.94       5.8  T
   8    -24.2254049 -0.216472E-07  0.239E-03    4.94      10.2  T
   9    -24.2254049 -0.934012E-08  0.433E-04    4.94      56.0  T
  10    -24.2254049 -0.777071E-09  0.218E-04    4.94     111.3  T

   *** convergence criteria satisfied after 10 iterations ***

         #    Occupation            Energy/Eh            Energy/eV
      -------------------------------------------------------------
         1        2.0000           -0.7503121             -20.4170
       ...           ...                  ...                  ...
        15        2.0000           -0.4753357             -12.9345
        16        2.0000           -0.4716151             -12.8333
        17        2.0000           -0.4655947             -12.6695
        18        2.0000           -0.4631717             -12.6035
        19        2.0000           -0.4463506             -12.1458
        20        2.0000           -0.4386937             -11.9375
        21        2.0000           -0.4208254             -11.4512 (HOMO)
        22                         -0.2393811              -6.5139 (LUMO)
        23                         -0.0043156              -0.1174
        24                          0.1069508               2.9103
        25                          0.1152997               3.1375
        26                          0.1348698               3.6700
       ...                                ...                  ...
        38                          0.6117262              16.6459
      -------------------------------------------------------------
                  HL-Gap            0.1814442 Eh            4.9373 eV
             Fermi-level           -0.3301032 Eh           -8.9826 eV

 SCC (total)                   0 d,  0 h,  0 min,  0.010 sec
 SCC setup                      ...        0 min,  0.001 sec (  9.653%)
 Dispersion                     ...        0 min,  0.000 sec (  0.727%)
 classical contributions        ...        0 min,  0.000 sec (  0.182%)
 integral evaluation            ...        0 min,  0.001 sec ( 11.555%)
 iterations                     ...        0 min,  0.005 sec ( 44.605%)
 molecular gradient             ...        0 min,  0.003 sec ( 31.959%)
 printout                       ...        0 min,  0.000 sec (  1.203%)

         :::::::::::::::::::::::::::::::::::::::::::::::::::::
         ::                     SUMMARY                     ::
         :::::::::::::::::::::::::::::::::::::::::::::::::::::
         :: total energy             -23.955486050122 Eh    ::
         :: total w/o Gsasa/hb       -23.957320758361 Eh    ::
         :: gradient norm              0.000161938973 Eh/a0 ::
         :: HOMO-LUMO gap              4.937349255111 eV    ::
         ::.................................................::
         :: SCC energy               -24.225384937888 Eh    ::
         :: -> isotropic ES            0.058783744002 Eh    ::
         :: -> anisotropic ES         -0.000138082252 Eh    ::
         :: -> anisotropic XC          0.006400968797 Eh    ::
         :: -> dispersion             -0.008922270678 Eh    ::
         :: -> Gsolv                  -0.007553186686 Eh    ::
         ::    -> Gelec               -0.009387894925 Eh    ::
         ::    -> Gsasa                0.001318074357 Eh    ::
         ::    -> Ghb                 -0.002377915279 Eh    ::
         ::    -> Gshift               0.002894549160 Eh    ::
         :: repulsion energy           0.269898887766 Eh    ::
         :: add. restraining           0.000000000000 Eh    ::
         :: total charge              -0.000000000000 e     ::
         :::::::::::::::::::::::::::::::::::::::::::::::::::::

           -------------------------------------------------
          |                Property Printout                |
           -------------------------------------------------

    * Orbital Energies and Occupations

         #    Occupation            Energy/Eh            Energy/eV
      -------------------------------------------------------------
         1        2.0000           -0.7503121             -20.4170
       ...           ...                  ...                  ...
         9        2.0000           -0.5656158             -15.3912
        10        2.0000           -0.5462949             -14.8654
        11        2.0000           -0.5268276             -14.3357
        12        2.0000           -0.5067845             -13.7903
        13        2.0000           -0.5039127             -13.7122
        14        2.0000           -0.4826317             -13.1331
        15        2.0000           -0.4753357             -12.9345
        16        2.0000           -0.4716151             -12.8333
        17        2.0000           -0.4655947             -12.6695
        18        2.0000           -0.4631717             -12.6035
        19        2.0000           -0.4463506             -12.1458
        20        2.0000           -0.4386937             -11.9375
        21        2.0000           -0.4208254             -11.4512 (HOMO)
        22                         -0.2393811              -6.5139 (LUMO)
        23                         -0.0043156              -0.1174
        24                          0.1069508               2.9103
        25                          0.1152997               3.1375
        26                          0.1348698               3.6700
        27                          0.1466191               3.9897
        28                          0.1512645               4.1161
        29                          0.1632127               4.4412
        30                          0.1707538               4.6464
        31                          0.1816119               4.9419
        32                          0.1860629               5.0630
       ...                                ...                  ...
        38                          0.6117262              16.6459
      -------------------------------------------------------------
                  HL-Gap            0.1814442 Eh            4.9373 eV
             Fermi-level           -0.3301032 Eh           -8.9826 eV

     #   Z          covCN         q      C6AA      α(0)
     1   6 C        3.755    -0.113    22.722     6.797
     2   6 C        3.802    -0.097    22.349     6.731
     3   6 C        2.716     0.365    20.814     7.468
     4   8 O        0.856    -0.494    23.653     6.521
     5   8 O        1.704    -0.266    18.414     5.794
     6   6 C        3.695     0.077    19.468     6.312
     7   6 C        3.751    -0.134    23.134     6.859
     8   1 H        0.925     0.049     2.338     2.391
     9   1 H        0.925     0.056     2.249     2.345
    10   1 H        0.925     0.071     2.072     2.251
    11   1 H        0.925     0.083     1.947     2.182
    12   1 H        0.925     0.076     2.016     2.220
    13   1 H        0.924     0.058     2.222     2.331
    14   1 H        0.924     0.056     2.252     2.347
    15   1 H        0.925     0.069     2.102     2.267
    16   1 H        0.925     0.072     2.059     2.244
    17   1 H        0.925     0.073     2.051     2.240

 Mol. C6AA /au·bohr⁶  :       2199.495035
 Mol. C8AA /au·bohr⁸  :      46881.411046
 Mol. α(0) /au        :         69.298733


Wiberg/Mayer (AO) data.
largest (>0.10) Wiberg bond orders for each atom

 ---------------------------------------------------------------------------
     #   Z sym  total        # sym  WBO       # sym  WBO       # sym  WBO
 ---------------------------------------------------------------------------
     1   6 C    3.988 --     2 C    0.989     8 H    0.988     9 H    0.987
                            10 H    0.981
     2   6 C    3.988 --     1 C    0.989     3 C    0.976    12 H    0.969
                            11 H    0.966
     3   6 C    3.902 --     4 O    1.690     5 O    1.173     2 C    0.976
     4   8 O    1.967 --     3 C    1.690     5 O    0.172
     5   8 O    2.322 --     3 C    1.173     6 C    0.918     4 O    0.172
     6   6 C    3.913 --     7 C    1.019    14 H    0.969    13 H    0.968
                             5 O    0.918
     7   6 C    3.985 --     6 C    1.019    15 H    0.984    16 H    0.983
                            17 H    0.980
     8   1 H    0.998 --     1 C    0.988
     9   1 H    0.997 --     1 C    0.987
    10   1 H    0.995 --     1 C    0.981
    11   1 H    0.993 --     2 C    0.966
    12   1 H    0.994 --     2 C    0.969
    13   1 H    0.997 --     6 C    0.968
    14   1 H    0.997 --     6 C    0.969
    15   1 H    0.995 --     7 C    0.984
    16   1 H    0.995 --     7 C    0.983
    17   1 H    0.994 --     7 C    0.980
 ---------------------------------------------------------------------------

Topologies differ in total number of bonds
Writing topology from bond orders to xtbtopo.mol

molecular dipole:
                 x           y           z       tot (Debye)
 q only:        0.363       0.995       0.850
   full:        0.342       0.949       0.805       3.281
molecular quadrupole (traceless):
                xx          xy          yy          xz          yz          zz
 q only:        9.492      -2.805      -5.242      -0.251      -3.433      -4.250
  q+dip:        7.656      -3.073      -4.583      -0.544      -4.569      -3.073
   full:        8.005      -3.009      -4.953      -0.773      -4.932      -3.051


           -------------------------------------------------
          | TOTAL ENERGY              -23.955486050122 Eh   |
          | GRADIENT NORM               0.000161938973 Eh/α |
          | HOMO-LUMO GAP               4.937349255111 eV   |
           -------------------------------------------------

------------------------------------------------------------------------
 * finished run on 2025/04/11 at 12:19:03.902     
------------------------------------------------------------------------
 total:
 * wall-time:     0 d,  0 h,  0 min,  0.044 sec
 *  cpu-time:     0 d,  0 h,  0 min,  0.019 sec
 * ratio c/w:     0.429 speedup
 SCF:
 * wall-time:     0 d,  0 h,  0 min,  0.011 sec
 *  cpu-time:     0 d,  0 h,  0 min,  0.011 sec
 * ratio c/w:     0.989 speedup

