      -----------------------------------------------------------      
     |                   =====================                   |     
     |                           x T B                           |     
     |                   =====================                   |     
     |                         S. Grimme                         |     
     |          Mulliken Center for Theoretical Chemistry        |     
     |                    University of Bonn                     |     
      -----------------------------------------------------------      

   * xtb version 6.7.1 (edcfbbe) compiled by 'albert@albert-system' on 2024-07-22

   xtb is free software: you can redistribute it and/or modify it under
   the terms of the GNU Lesser General Public License as published by
   the Free Software Foundation, either version 3 of the License, or
   (at your option) any later version.
   
   xtb is distributed in the hope that it will be useful,
   but WITHOUT ANY WARRANTY; without even the implied warranty of
   MERCHANTABILITY or FITNESS FOR A PARTICULAR PURPOSE.  See the
   GNU Lesser General Public License for more details.
   
   Cite this work as:
   * C. Bannwarth, E. Caldeweyher, S. Ehlert, A. Hansen, P. Pracht,
     J. Seibert, S. Spicher, S. Grimme, WIREs Comput. Mol. Sci., 2020, 11,
     e01493. DOI: 10.1002/wcms.1493
   
   for GFN2-xTB:
   * C. Bannwarth, S. Ehlert and S. Grimme., J. Chem. Theory Comput., 2019,
     15, 1652-1671. DOI: 10.1021/acs.jctc.8b01176
   for GFN1-xTB:
   * S. Grimme, C. Bannwarth, P. Shushkov, J. Chem. Theory Comput., 2017,
     13, 1989-2009. DOI: 10.1021/acs.jctc.7b00118
   for GFN0-xTB:
   * P. Pracht, E. Caldeweyher, S. Ehlert, S. Grimme, ChemRxiv, 2019, preprint.
     DOI: 10.26434/chemrxiv.8326202.v1
   for GFN-FF:
   * S. Spicher and S. Grimme, Angew. Chem. Int. Ed., 2020, 59, 15665-15673.
     DOI: 10.1002/anie.202004239
   
   for ALPB and GBSA implicit solvation:
   * S. Ehlert, M. Stahn, S. Spicher, S. Grimme, J. Chem. Theory Comput.,
     2021, 17, 4250-4261. DOI: 10.1021/acs.jctc.1c00471
   
   for ddCOSMO and CPCM-X implicit solvation:
   * M. Stahn, S. Ehlert, S. Grimme, J. Phys. Chem. A,
     2023, XX, XXXX-XXXX. DOI: 10.1021/acs.jpca.3c04382
   
   for DFT-D4:
   * E. Caldeweyher, C. Bannwarth and S. Grimme, J. Chem. Phys., 2017,
     147, 034112. DOI: 10.1063/1.4993215
   * E. Caldeweyher, S. Ehlert, A. Hansen, H. Neugebauer, S. Spicher,
     C. Bannwarth and S. Grimme, J. Chem. Phys., 2019, 150, 154122.
     DOI: 10.1063/1.5090222
   * E. Caldeweyher, J.-M. Mewes, S. Ehlert and S. Grimme, Phys. Chem. Chem. Phys.
     2020, 22, 8499-8512. DOI: 10.1039/D0CP00502A
   
   for sTDA-xTB:
   * S. Grimme and C. Bannwarth, J. Chem. Phys., 2016, 145, 054103.
     DOI: 10.1063/1.4959605
   
   in the mass-spec context:
   * V. Asgeirsson, C. Bauer and S. Grimme, Chem. Sci., 2017, 8, 4879.
     DOI: 10.1039/c7sc00601b
   * J. Koopman and S. Grimme, ACS Omega 2019, 4, 12, 15120-15133.
     DOI: 10.1021/acsomega.9b02011
   
   for metadynamics refer to:
   * S. Grimme, J. Chem. Theory Comput., 2019, 155, 2847-2862
     DOI: 10.1021/acs.jctc.9b00143
   
   for SPH calculations refer to:
   * S. Spicher and S. Grimme, J. Chem. Theory Comput., 2021, 17, 1701-1714
     DOI: 10.1021/acs.jctc.0c01306
   
   for ONIOM refer to:
   * C. Plett, A. Katbashev, S. Ehlert, S. Grimme, M. Bursch,
     Phys. Chem. Chem. Phys., 2023, 25, 17860-17868. DOI: 10.1039/D3CP02178E
   
   for DIPRO refer to:
   * J. Kohn, N. Gildemeister, S. Grimme, D. Fazzi, A. Hansen,
     J. Chem. Phys., 2023, just accepted.
   
   for PTB refer to:
   * S. Grimme, M. Mueller, A. Hansen, J. Chem. Phys., 2023, 158, 124111.
     DOI: 10.1063/5.0137838
   
   with help from (in alphabetical order)
   P. Atkinson, C. Bannwarth, F. Bohle, G. Brandenburg, E. Caldeweyher
   M. Checinski, S. Dohm, S. Ehlert, S. Ehrlich, I. Gerasimov, C. Hölzer
   A. Katbashev, J. Kohn, J. Koopman, C. Lavigne, S. Lehtola, F. März, M. Müller,
   F. Musil, H. Neugebauer, J. Pisarek, C. Plett, P. Pracht, F. Pultar,
   J. Seibert, P. Shushkov, S. Spicher, M. Stahn, M. Steiner, T. Strunk,
   J. Stückrath, T. Rose, and J. Unsleber
   
 * started run on 2025/04/11 at 12:20:26.172     
   ID    Z sym.   atoms
    1    6 C      1-3, 5, 6
    2    1 H      4, 8-18
    3    8 O      7

           -------------------------------------------------
          |                Calculation Setup                |
           -------------------------------------------------

          program call               : /srv/scratch/z5358697/.xtb/bin/xtb solv.coord --gfn2 --sp --chrg 0 --norestart --parallel 1 --alpb water reference -I xtb_sp-xcontrol-inp
          hostname                   : k114
          coordinate file            : solv.coord
          omp threads                :                     1


           -------------------------------------------------
          |                 G F N 2 - x T B                 |
           -------------------------------------------------

        Reference                      10.1021/acs.jctc.8b01176
      * Hamiltonian:
        H0-scaling (s, p, d)           1.850000    2.230000    2.230000
        zeta-weighting                 0.500000
      * Dispersion:
        s8                             2.700000
        a1                             0.520000
        a2                             5.000000
        s9                             5.000000
      * Repulsion:
        kExp                           1.500000    1.000000
        rExp                           1.000000
      * Coulomb:
        alpha                          2.000000
        third order                    shell-resolved
        anisotropic                    true
        a3                             3.000000
        a5                             4.000000
        cn-shift                       1.200000
        cn-exp                         4.000000
        max-rad                        5.000000

      * Solvation model:               ALPB
        Solvent                        water
        Parameter file                 internal GFN2-xTB/ALPB
        Dielectric constant                8.0200E+01
        Reference state                gsolv=reference [X=1]
        Free energy shift                  2.8945E-03 Eh       1.8164E+00 kcal/mol
        Temperature                        2.9815E+02 K
        Density                            1.0000E+00 kg/L
        Solvent mass                       1.8000E+01 g/mol
        Interaction kernel             P16
        Born radius scaling (c1)           1.4744E+00
        Born radii integrator          GBOBC
        Born offset                        0.0000E+00 a0       0.0000E+00 AA
        H-bond correction              true
        Ion screening                  false
        Surface tension                    1.0000E-05 Eh       1.5569E+01 dyn/cm
        Grid points                               974 per atom

          ...................................................
          :                      SETUP                      :
          :.................................................:
          :  # basis functions                  36          :
          :  # atomic orbitals                  36          :
          :  # shells                           24          :
          :  # electrons                        38          :
          :  max. iterations                   250          :
          :  Hamiltonian                  GFN2-xTB          :
          :  restarted?                      false          :
          :  GBSA solvation                   true          :
          :  PC potential                    false          :
          :  electronic temp.          300.0000000     K    :
          :  accuracy                    1.0000000          :
          :  -> integral cutoff          0.2500000E+02      :
          :  -> integral neglect         0.1000000E-07      :
          :  -> SCF convergence          0.1000000E-05 Eh   :
          :  -> wf. convergence          0.1000000E-03 e    :
          :  Broyden damping             0.4000000          :
          :  net charge                          0          :
          :  unpaired electrons                  0          :
          ...................................................

 iter      E             dE          RMSdq      gap      omega  full diag
   1    -21.1222666 -0.211223E+02  0.317E+00   12.23       0.0  T
   2    -21.1506143 -0.283477E-01  0.170E+00   11.98       1.0  T
   3    -21.1515475 -0.933171E-03  0.600E-01   11.96       1.0  T
   4    -21.1517190 -0.171559E-03  0.109E-01   11.99       1.0  T
   5    -21.1517342 -0.151512E-04  0.624E-02   12.00       1.0  T
   6    -21.1517368 -0.260288E-05  0.125E-02   12.01       1.9  T
   7    -21.1517374 -0.654024E-06  0.607E-03   12.01       3.9  T
   8    -21.1517375 -0.799656E-07  0.239E-03   12.01       9.9  T
   9    -21.1517375 -0.891194E-08  0.766E-04   12.01      30.8  T
  10    -21.1517375 -0.145127E-08  0.197E-04   12.01     119.4  T

   *** convergence criteria satisfied after 10 iterations ***

         #    Occupation            Energy/Eh            Energy/eV
      -------------------------------------------------------------
         1        2.0000           -0.6844452             -18.6247
       ...           ...                  ...                  ...
        13        2.0000           -0.4675759             -12.7234
        14        2.0000           -0.4526286             -12.3167
        15        2.0000           -0.4409467             -11.9988
        16        2.0000           -0.4315713             -11.7437
        17        2.0000           -0.4248967             -11.5620
        18        2.0000           -0.4181864             -11.3794
        19        2.0000           -0.4023891             -10.9496 (HOMO)
        20                          0.0389441               1.0597 (LUMO)
        21                          0.0824592               2.2438
        22                          0.0895802               2.4376
        23                          0.1257590               3.4221
        24                          0.1321466               3.5959
       ...                                ...                  ...
        36                          0.3064635               8.3393
      -------------------------------------------------------------
                  HL-Gap            0.4413332 Eh           12.0093 eV
             Fermi-level           -0.1817225 Eh           -4.9449 eV

 SCC (total)                   0 d,  0 h,  0 min,  0.012 sec
 SCC setup                      ...        0 min,  0.001 sec (  9.885%)
 Dispersion                     ...        0 min,  0.000 sec (  0.792%)
 classical contributions        ...        0 min,  0.000 sec (  0.201%)
 integral evaluation            ...        0 min,  0.001 sec ( 10.331%)
 iterations                     ...        0 min,  0.006 sec ( 46.870%)
 molecular gradient             ...        0 min,  0.004 sec ( 30.446%)
 printout                       ...        0 min,  0.000 sec (  1.348%)

         :::::::::::::::::::::::::::::::::::::::::::::::::::::
         ::                     SUMMARY                     ::
         :::::::::::::::::::::::::::::::::::::::::::::::::::::
         :: total energy             -20.890857207867 Eh    ::
         :: total w/o Gsasa/hb       -20.887395680496 Eh    ::
         :: gradient norm              0.000057056065 Eh/a0 ::
         :: HOMO-LUMO gap             12.009286364376 eV    ::
         ::.................................................::
         :: SCC energy               -21.151700781452 Eh    ::
         :: -> isotropic ES            0.036302502138 Eh    ::
         :: -> anisotropic ES          0.004823450959 Eh    ::
         :: -> anisotropic XC          0.007632426871 Eh    ::
         :: -> dispersion             -0.010146682056 Eh    ::
         :: -> Gsolv                  -0.007960842735 Eh    ::
         ::    -> Gelec               -0.004499315365 Eh    ::
         ::    -> Gsasa               -0.000017930928 Eh    ::
         ::    -> Ghb                 -0.006338145603 Eh    ::
         ::    -> Gshift               0.002894549160 Eh    ::
         :: repulsion energy           0.260843573584 Eh    ::
         :: add. restraining           0.000000000000 Eh    ::
         :: total charge               0.000000000000 e     ::
         :::::::::::::::::::::::::::::::::::::::::::::::::::::

           -------------------------------------------------
          |                Property Printout                |
           -------------------------------------------------

    * Orbital Energies and Occupations

         #    Occupation            Energy/Eh            Energy/eV
      -------------------------------------------------------------
         1        2.0000           -0.6844452             -18.6247
       ...           ...                  ...                  ...
         7        2.0000           -0.5466030             -14.8738
         8        2.0000           -0.5289912             -14.3946
         9        2.0000           -0.5146585             -14.0046
        10        2.0000           -0.4855976             -13.2138
        11        2.0000           -0.4824137             -13.1271
        12        2.0000           -0.4806638             -13.0795
        13        2.0000           -0.4675759             -12.7234
        14        2.0000           -0.4526286             -12.3167
        15        2.0000           -0.4409467             -11.9988
        16        2.0000           -0.4315713             -11.7437
        17        2.0000           -0.4248967             -11.5620
        18        2.0000           -0.4181864             -11.3794
        19        2.0000           -0.4023891             -10.9496 (HOMO)
        20                          0.0389441               1.0597 (LUMO)
        21                          0.0824592               2.2438
        22                          0.0895802               2.4376
        23                          0.1257590               3.4221
        24                          0.1321466               3.5959
        25                          0.1422284               3.8702
        26                          0.1689664               4.5978
        27                          0.1878863               5.1126
        28                          0.1938305               5.2744
        29                          0.2014021               5.4804
        30                          0.2223615               6.0508
       ...                                ...                  ...
        36                          0.3064635               8.3393
      -------------------------------------------------------------
                  HL-Gap            0.4413332 Eh           12.0093 eV
             Fermi-level           -0.1817225 Eh           -4.9449 eV

     #   Z          covCN         q      C6AA      α(0)
     1   6 C        3.751    -0.110    22.665     6.789
     2   6 C        3.803    -0.060    21.657     6.625
     3   6 C        3.849    -0.024    20.973     6.514
     4   1 H        0.924     0.044     2.395     2.420
     5   6 C        3.757    -0.121    22.867     6.818
     6   6 C        3.676     0.083    19.409     6.312
     7   8 O        1.655    -0.519    23.294     6.515
     8   1 H        0.925     0.048     2.343     2.394
     9   1 H        0.925     0.034     2.532     2.488
    10   1 H        0.925     0.033     2.549     2.497
    11   1 H        0.924     0.032     2.560     2.502
    12   1 H        0.924     0.035     2.515     2.480
    13   1 H        0.925     0.047     2.352     2.398
    14   1 H        0.925     0.041     2.432     2.439
    15   1 H        0.925     0.041     2.434     2.440
    16   1 H        0.923     0.018     2.760     2.598
    17   1 H        0.923     0.019     2.751     2.594
    18   1 H        0.805     0.358     0.570     1.186

 Mol. C6AA /au·bohr⁶  :       2124.185188
 Mol. C8AA /au·bohr⁸  :      43749.358500
 Mol. α(0) /au        :         68.009577


Wiberg/Mayer (AO) data.
largest (>0.10) Wiberg bond orders for each atom

 ---------------------------------------------------------------------------
     #   Z sym  total        # sym  WBO       # sym  WBO       # sym  WBO
 ---------------------------------------------------------------------------
     1   6 C    3.996 --     2 C    1.020    10 H    0.988     9 H    0.987
                             8 H    0.984
     2   6 C    3.997 --     1 C    1.020     3 C    0.998    11 H    0.977
                            12 H    0.977
     3   6 C    3.994 --     5 C    1.008     2 C    0.998     6 C    0.993
                             4 H    0.966
     4   1 H    0.998 --     3 C    0.966
     5   6 C    3.995 --     3 C    1.008    15 H    0.987    14 H    0.986
                            13 H    0.985
     6   6 C    3.954 --     3 C    0.993     7 O    0.991    17 H    0.971
                            16 H    0.970
     7   8 O    1.905 --     6 C    0.991    18 H    0.859
     8   1 H    0.998 --     1 C    0.984
     9   1 H    0.999 --     1 C    0.987
    10   1 H    0.999 --     1 C    0.988
    11   1 H    0.999 --     2 C    0.977
    12   1 H    0.999 --     2 C    0.977
    13   1 H    0.997 --     5 C    0.985
    14   1 H    0.998 --     5 C    0.986
    15   1 H    0.998 --     5 C    0.987
    16   1 H    1.000 --     6 C    0.970
    17   1 H    1.000 --     6 C    0.971
    18   1 H    0.872 --     7 O    0.859
 ---------------------------------------------------------------------------

Topologies differ in total number of bonds
Writing topology from bond orders to xtbtopo.mol

molecular dipole:
                 x           y           z       tot (Debye)
 q only:        0.317      -0.294      -0.343
   full:        0.483      -0.365      -0.467       1.943
molecular quadrupole (traceless):
                xx          xy          yy          xz          yz          zz
 q only:        3.498       1.331      -1.103      -1.632      -0.919      -2.395
  q+dip:        5.097       1.041      -3.656      -2.380      -2.083      -1.440
   full:        4.984       1.279      -2.821      -2.374      -1.635      -2.163


           -------------------------------------------------
          | TOTAL ENERGY              -20.890857207867 Eh   |
          | GRADIENT NORM               0.000057056065 Eh/α |
          | HOMO-LUMO GAP              12.009286364376 eV   |
           -------------------------------------------------

------------------------------------------------------------------------
 * finished run on 2025/04/11 at 12:20:26.230     
------------------------------------------------------------------------
 total:
 * wall-time:     0 d,  0 h,  0 min,  0.058 sec
 *  cpu-time:     0 d,  0 h,  0 min,  0.020 sec
 * ratio c/w:     0.351 speedup
 SCF:
 * wall-time:     0 d,  0 h,  0 min,  0.012 sec
 *  cpu-time:     0 d,  0 h,  0 min,  0.012 sec
 * ratio c/w:     0.989 speedup

