      -----------------------------------------------------------      
     |                   =====================                   |     
     |                           x T B                           |     
     |                   =====================                   |     
     |                         S. Grimme                         |     
     |          Mulliken Center for Theoretical Chemistry        |     
     |                    University of Bonn                     |     
      -----------------------------------------------------------      

   * xtb version 6.7.1 (edcfbbe) compiled by 'albert@albert-system' on 2024-07-22

   xtb is free software: you can redistribute it and/or modify it under
   the terms of the GNU Lesser General Public License as published by
   the Free Software Foundation, either version 3 of the License, or
   (at your option) any later version.
   
   xtb is distributed in the hope that it will be useful,
   but WITHOUT ANY WARRANTY; without even the implied warranty of
   MERCHANTABILITY or FITNESS FOR A PARTICULAR PURPOSE.  See the
   GNU Lesser General Public License for more details.
   
   Cite this work as:
   * C. Bannwarth, E. Caldeweyher, S. Ehlert, A. Hansen, P. Pracht,
     J. Seibert, S. Spicher, S. Grimme, WIREs Comput. Mol. Sci., 2020, 11,
     e01493. DOI: 10.1002/wcms.1493
   
   for GFN2-xTB:
   * C. Bannwarth, S. Ehlert and S. Grimme., J. Chem. Theory Comput., 2019,
     15, 1652-1671. DOI: 10.1021/acs.jctc.8b01176
   for GFN1-xTB:
   * S. Grimme, C. Bannwarth, P. Shushkov, J. Chem. Theory Comput., 2017,
     13, 1989-2009. DOI: 10.1021/acs.jctc.7b00118
   for GFN0-xTB:
   * P. Pracht, E. Caldeweyher, S. Ehlert, S. Grimme, ChemRxiv, 2019, preprint.
     DOI: 10.26434/chemrxiv.8326202.v1
   for GFN-FF:
   * S. Spicher and S. Grimme, Angew. Chem. Int. Ed., 2020, 59, 15665-15673.
     DOI: 10.1002/anie.202004239
   
   for ALPB and GBSA implicit solvation:
   * S. Ehlert, M. Stahn, S. Spicher, S. Grimme, J. Chem. Theory Comput.,
     2021, 17, 4250-4261. DOI: 10.1021/acs.jctc.1c00471
   
   for ddCOSMO and CPCM-X implicit solvation:
   * M. Stahn, S. Ehlert, S. Grimme, J. Phys. Chem. A,
     2023, XX, XXXX-XXXX. DOI: 10.1021/acs.jpca.3c04382
   
   for DFT-D4:
   * E. Caldeweyher, C. Bannwarth and S. Grimme, J. Chem. Phys., 2017,
     147, 034112. DOI: 10.1063/1.4993215
   * E. Caldeweyher, S. Ehlert, A. Hansen, H. Neugebauer, S. Spicher,
     C. Bannwarth and S. Grimme, J. Chem. Phys., 2019, 150, 154122.
     DOI: 10.1063/1.5090222
   * E. Caldeweyher, J.-M. Mewes, S. Ehlert and S. Grimme, Phys. Chem. Chem. Phys.
     2020, 22, 8499-8512. DOI: 10.1039/D0CP00502A
   
   for sTDA-xTB:
   * S. Grimme and C. Bannwarth, J. Chem. Phys., 2016, 145, 054103.
     DOI: 10.1063/1.4959605
   
   in the mass-spec context:
   * V. Asgeirsson, C. Bauer and S. Grimme, Chem. Sci., 2017, 8, 4879.
     DOI: 10.1039/c7sc00601b
   * J. Koopman and S. Grimme, ACS Omega 2019, 4, 12, 15120-15133.
     DOI: 10.1021/acsomega.9b02011
   
   for metadynamics refer to:
   * S. Grimme, J. Chem. Theory Comput., 2019, 155, 2847-2862
     DOI: 10.1021/acs.jctc.9b00143
   
   for SPH calculations refer to:
   * S. Spicher and S. Grimme, J. Chem. Theory Comput., 2021, 17, 1701-1714
     DOI: 10.1021/acs.jctc.0c01306
   
   for ONIOM refer to:
   * C. Plett, A. Katbashev, S. Ehlert, S. Grimme, M. Bursch,
     Phys. Chem. Chem. Phys., 2023, 25, 17860-17868. DOI: 10.1039/D3CP02178E
   
   for DIPRO refer to:
   * J. Kohn, N. Gildemeister, S. Grimme, D. Fazzi, A. Hansen,
     J. Chem. Phys., 2023, just accepted.
   
   for PTB refer to:
   * S. Grimme, M. Mueller, A. Hansen, J. Chem. Phys., 2023, 158, 124111.
     DOI: 10.1063/5.0137838
   
   with help from (in alphabetical order)
   P. Atkinson, C. Bannwarth, F. Bohle, G. Brandenburg, E. Caldeweyher
   M. Checinski, S. Dohm, S. Ehlert, S. Ehrlich, I. Gerasimov, C. Hölzer
   A. Katbashev, J. Kohn, J. Koopman, C. Lavigne, S. Lehtola, F. März, M. Müller,
   F. Musil, H. Neugebauer, J. Pisarek, C. Plett, P. Pracht, F. Pultar,
   J. Seibert, P. Shushkov, S. Spicher, M. Stahn, M. Steiner, T. Strunk,
   J. Stückrath, T. Rose, and J. Unsleber
   
 * started run on 2025/04/11 at 11:52:26.216     
   ID    Z sym.   atoms
    1    6 C      1, 3, 4
    2    8 O      2, 5
    3    1 H      6-13

           -------------------------------------------------
          |                Calculation Setup                |
           -------------------------------------------------

          program call               : /srv/scratch/z5358697/.xtb/bin/xtb solv.coord --gfn2 --sp --chrg 0 --norestart --parallel 1 --alpb water reference -I xtb_sp-xcontrol-inp
          hostname                   : k133
          coordinate file            : solv.coord
          omp threads                :                     1


           -------------------------------------------------
          |                 G F N 2 - x T B                 |
           -------------------------------------------------

        Reference                      10.1021/acs.jctc.8b01176
      * Hamiltonian:
        H0-scaling (s, p, d)           1.850000    2.230000    2.230000
        zeta-weighting                 0.500000
      * Dispersion:
        s8                             2.700000
        a1                             0.520000
        a2                             5.000000
        s9                             5.000000
      * Repulsion:
        kExp                           1.500000    1.000000
        rExp                           1.000000
      * Coulomb:
        alpha                          2.000000
        third order                    shell-resolved
        anisotropic                    true
        a3                             3.000000
        a5                             4.000000
        cn-shift                       1.200000
        cn-exp                         4.000000
        max-rad                        5.000000

      * Solvation model:               ALPB
        Solvent                        water
        Parameter file                 internal GFN2-xTB/ALPB
        Dielectric constant                8.0200E+01
        Reference state                gsolv=reference [X=1]
        Free energy shift                  2.8945E-03 Eh       1.8164E+00 kcal/mol
        Temperature                        2.9815E+02 K
        Density                            1.0000E+00 kg/L
        Solvent mass                       1.8000E+01 g/mol
        Interaction kernel             P16
        Born radius scaling (c1)           1.4744E+00
        Born radii integrator          GBOBC
        Born offset                        0.0000E+00 a0       0.0000E+00 AA
        H-bond correction              true
        Ion screening                  false
        Surface tension                    1.0000E-05 Eh       1.5569E+01 dyn/cm
        Grid points                               974 per atom

          ...................................................
          :                      SETUP                      :
          :.................................................:
          :  # basis functions                  28          :
          :  # atomic orbitals                  28          :
          :  # shells                           18          :
          :  # electrons                        32          :
          :  max. iterations                   250          :
          :  Hamiltonian                  GFN2-xTB          :
          :  restarted?                      false          :
          :  GBSA solvation                   true          :
          :  PC potential                    false          :
          :  electronic temp.          300.0000000     K    :
          :  accuracy                    1.0000000          :
          :  -> integral cutoff          0.2500000E+02      :
          :  -> integral neglect         0.1000000E-07      :
          :  -> SCF convergence          0.1000000E-05 Eh   :
          :  -> wf. convergence          0.1000000E-03 e    :
          :  Broyden damping             0.4000000          :
          :  net charge                          0          :
          :  unpaired electrons                  0          :
          ...................................................

 iter      E             dE          RMSdq      gap      omega  full diag
   1    -18.7473354 -0.187473E+02  0.466E+00   11.98       0.0  T
   2    -18.7780363 -0.307009E-01  0.237E+00   11.55       1.0  T
   3    -18.7790808 -0.104454E-02  0.699E-01   11.58       1.0  T
   4    -18.7792089 -0.128082E-03  0.158E-01   11.64       1.0  T
   5    -18.7792298 -0.208935E-04  0.360E-02   11.66       1.0  T
   6    -18.7792311 -0.126827E-05  0.165E-02   11.67       1.7  T
   7    -18.7792315 -0.402913E-06  0.398E-03   11.67       7.0  T
   8    -18.7792315 -0.175589E-07  0.179E-03   11.67      15.5  T
   9    -18.7792315 -0.548093E-08  0.416E-04   11.67      66.7  T
  10    -18.7792315 -0.222073E-09  0.181E-04   11.67     152.9  T

   *** convergence criteria satisfied after 10 iterations ***

         #    Occupation            Energy/Eh            Energy/eV
      -------------------------------------------------------------
         1        2.0000           -0.7033139             -19.1381
       ...           ...                  ...                  ...
        10        2.0000           -0.5134416             -13.9715
        11        2.0000           -0.4976554             -13.5419
        12        2.0000           -0.4781635             -13.0115
        13        2.0000           -0.4585465             -12.4777
        14        2.0000           -0.4499794             -12.2446
        15        2.0000           -0.4141920             -11.2707
        16        2.0000           -0.4039650             -10.9924 (HOMO)
        17                          0.0247463               0.6734 (LUMO)
        18                          0.0473294               1.2879
        19                          0.0992704               2.7013
        20                          0.1168262               3.1790
        21                          0.1321483               3.5959
       ...                                ...                  ...
        28                          0.2682664               7.2999
      -------------------------------------------------------------
                  HL-Gap            0.4287113 Eh           11.6658 eV
             Fermi-level           -0.1896093 Eh           -5.1595 eV

 SCC (total)                   0 d,  0 h,  0 min,  0.043 sec
 SCC setup                      ...        0 min,  0.001 sec (  1.888%)
 Dispersion                     ...        0 min,  0.000 sec (  0.139%)
 classical contributions        ...        0 min,  0.000 sec (  0.040%)
 integral evaluation            ...        0 min,  0.001 sec (  1.951%)
 iterations                     ...        0 min,  0.039 sec ( 90.552%)
 molecular gradient             ...        0 min,  0.002 sec (  5.084%)
 printout                       ...        0 min,  0.000 sec (  0.319%)

         :::::::::::::::::::::::::::::::::::::::::::::::::::::
         ::                     SUMMARY                     ::
         :::::::::::::::::::::::::::::::::::::::::::::::::::::
         :: total energy             -18.615289901889 Eh    ::
         :: total w/o Gsasa/hb       -18.612300469654 Eh    ::
         :: gradient norm              0.000115216774 Eh/a0 ::
         :: HOMO-LUMO gap             11.665828472973 eV    ::
         ::.................................................::
         :: SCC energy               -18.779227513725 Eh    ::
         :: -> isotropic ES            0.056394646770 Eh    ::
         :: -> anisotropic ES          0.002737334634 Eh    ::
         :: -> anisotropic XC          0.000625637282 Eh    ::
         :: -> dispersion             -0.005532756519 Eh    ::
         :: -> Gsolv                  -0.011507875088 Eh    ::
         ::    -> Gelec               -0.008518442853 Eh    ::
         ::    -> Gsasa                0.001428745732 Eh    ::
         ::    -> Ghb                 -0.007312727127 Eh    ::
         ::    -> Gshift               0.002894549160 Eh    ::
         :: repulsion energy           0.163937611837 Eh    ::
         :: add. restraining           0.000000000000 Eh    ::
         :: total charge              -0.000000000000 e     ::
         :::::::::::::::::::::::::::::::::::::::::::::::::::::

           -------------------------------------------------
          |                Property Printout                |
           -------------------------------------------------

    * Orbital Energies and Occupations

         #    Occupation            Energy/Eh            Energy/eV
      -------------------------------------------------------------
         1        2.0000           -0.7033139             -19.1381
       ...           ...                  ...                  ...
         4        2.0000           -0.6156689             -16.7532
         5        2.0000           -0.6015847             -16.3700
         6        2.0000           -0.5736422             -15.6096
         7        2.0000           -0.5542583             -15.0821
         8        2.0000           -0.5453603             -14.8400
         9        2.0000           -0.5378976             -14.6369
        10        2.0000           -0.5134416             -13.9715
        11        2.0000           -0.4976554             -13.5419
        12        2.0000           -0.4781635             -13.0115
        13        2.0000           -0.4585465             -12.4777
        14        2.0000           -0.4499794             -12.2446
        15        2.0000           -0.4141920             -11.2707
        16        2.0000           -0.4039650             -10.9924 (HOMO)
        17                          0.0247463               0.6734 (LUMO)
        18                          0.0473294               1.2879
        19                          0.0992704               2.7013
        20                          0.1168262               3.1790
        21                          0.1321483               3.5959
        22                          0.1519087               4.1336
        23                          0.1603270               4.3627
        24                          0.1936383               5.2692
        25                          0.2021242               5.5001
        26                          0.2183531               5.9417
        27                          0.2573388               7.0025
        28                          0.2682664               7.2999
      -------------------------------------------------------------
                  HL-Gap            0.4287113 Eh           11.6658 eV
             Fermi-level           -0.1896093 Eh           -5.1595 eV

     #   Z          covCN         q      C6AA      α(0)
     1   6 C        3.652     0.027    20.426     6.491
     2   8 O        1.700    -0.351    19.903     6.023
     3   6 C        3.701     0.077    19.444     6.305
     4   6 C        3.673     0.075    19.561     6.339
     5   8 O        1.655    -0.517    23.262     6.511
     6   1 H        0.924     0.041     2.441     2.443
     7   1 H        0.925     0.075     2.028     2.227
     8   1 H        0.924     0.041     2.438     2.442
     9   1 H        0.923     0.031     2.569     2.506
    10   1 H        0.923     0.043     2.410     2.428
    11   1 H        0.924     0.040     2.452     2.449
    12   1 H        0.924     0.047     2.354     2.399
    13   1 H        0.805     0.371     0.541     1.156

 Mol. C6AA /au·bohr⁶  :       1161.397936
 Mol. C8AA /au·bohr⁸  :      23487.642178
 Mol. α(0) /au        :         49.718701


Wiberg/Mayer (AO) data.
largest (>0.10) Wiberg bond orders for each atom

 ---------------------------------------------------------------------------
     #   Z sym  total        # sym  WBO       # sym  WBO       # sym  WBO
 ---------------------------------------------------------------------------
     1   6 C    3.941 --     2 O    0.985     7 H    0.978     6 H    0.978
                             8 H    0.978
     2   8 O    2.048 --     1 C    0.985     3 C    0.980
     3   6 C    3.953 --     4 C    1.001     2 O    0.980     9 H    0.967
                            10 H    0.966
     4   6 C    3.959 --     3 C    1.001     5 O    0.998    12 H    0.970
                            11 H    0.969
     5   8 O    1.900 --     4 C    0.998    13 H    0.850
     6   1 H    0.998 --     1 C    0.978
     7   1 H    0.994 --     1 C    0.978
     8   1 H    0.998 --     1 C    0.978
     9   1 H    0.999 --     3 C    0.967
    10   1 H    0.998 --     3 C    0.966
    11   1 H    0.998 --     4 C    0.969
    12   1 H    0.998 --     4 C    0.970
    13   1 H    0.862 --     5 O    0.850
 ---------------------------------------------------------------------------

Topologies differ in total number of bonds
Writing topology from bond orders to xtbtopo.mol

molecular dipole:
                 x           y           z       tot (Debye)
 q only:        0.176       0.508      -0.094
   full:        0.217       0.688      -0.104       1.854
molecular quadrupole (traceless):
                xx          xy          yy          xz          yz          zz
 q only:        6.772       0.388      -2.959      -4.082       0.683      -3.813
  q+dip:        6.122       0.374      -3.008      -4.943       0.881      -3.114
   full:        6.975       0.322      -3.238      -5.184       0.863      -3.737


           -------------------------------------------------
          | TOTAL ENERGY              -18.615289901889 Eh   |
          | GRADIENT NORM               0.000115216774 Eh/α |
          | HOMO-LUMO GAP              11.665828472973 eV   |
           -------------------------------------------------

------------------------------------------------------------------------
 * finished run on 2025/04/11 at 11:52:26.300     
------------------------------------------------------------------------
 total:
 * wall-time:     0 d,  0 h,  0 min,  0.084 sec
 *  cpu-time:     0 d,  0 h,  0 min,  0.015 sec
 * ratio c/w:     0.174 speedup
 SCF:
 * wall-time:     0 d,  0 h,  0 min,  0.043 sec
 *  cpu-time:     0 d,  0 h,  0 min,  0.008 sec
 * ratio c/w:     0.192 speedup

