      -----------------------------------------------------------      
     |                   =====================                   |     
     |                           x T B                           |     
     |                   =====================                   |     
     |                         S. Grimme                         |     
     |          Mulliken Center for Theoretical Chemistry        |     
     |                    University of Bonn                     |     
      -----------------------------------------------------------      

   * xtb version 6.7.1 (edcfbbe) compiled by 'albert@albert-system' on 2024-07-22

   xtb is free software: you can redistribute it and/or modify it under
   the terms of the GNU Lesser General Public License as published by
   the Free Software Foundation, either version 3 of the License, or
   (at your option) any later version.
   
   xtb is distributed in the hope that it will be useful,
   but WITHOUT ANY WARRANTY; without even the implied warranty of
   MERCHANTABILITY or FITNESS FOR A PARTICULAR PURPOSE.  See the
   GNU Lesser General Public License for more details.
   
   Cite this work as:
   * C. Bannwarth, E. Caldeweyher, S. Ehlert, A. Hansen, P. Pracht,
     J. Seibert, S. Spicher, S. Grimme, WIREs Comput. Mol. Sci., 2020, 11,
     e01493. DOI: 10.1002/wcms.1493
   
   for GFN2-xTB:
   * C. Bannwarth, S. Ehlert and S. Grimme., J. Chem. Theory Comput., 2019,
     15, 1652-1671. DOI: 10.1021/acs.jctc.8b01176
   for GFN1-xTB:
   * S. Grimme, C. Bannwarth, P. Shushkov, J. Chem. Theory Comput., 2017,
     13, 1989-2009. DOI: 10.1021/acs.jctc.7b00118
   for GFN0-xTB:
   * P. Pracht, E. Caldeweyher, S. Ehlert, S. Grimme, ChemRxiv, 2019, preprint.
     DOI: 10.26434/chemrxiv.8326202.v1
   for GFN-FF:
   * S. Spicher and S. Grimme, Angew. Chem. Int. Ed., 2020, 59, 15665-15673.
     DOI: 10.1002/anie.202004239
   
   for ALPB and GBSA implicit solvation:
   * S. Ehlert, M. Stahn, S. Spicher, S. Grimme, J. Chem. Theory Comput.,
     2021, 17, 4250-4261. DOI: 10.1021/acs.jctc.1c00471
   
   for ddCOSMO and CPCM-X implicit solvation:
   * M. Stahn, S. Ehlert, S. Grimme, J. Phys. Chem. A,
     2023, XX, XXXX-XXXX. DOI: 10.1021/acs.jpca.3c04382
   
   for DFT-D4:
   * E. Caldeweyher, C. Bannwarth and S. Grimme, J. Chem. Phys., 2017,
     147, 034112. DOI: 10.1063/1.4993215
   * E. Caldeweyher, S. Ehlert, A. Hansen, H. Neugebauer, S. Spicher,
     C. Bannwarth and S. Grimme, J. Chem. Phys., 2019, 150, 154122.
     DOI: 10.1063/1.5090222
   * E. Caldeweyher, J.-M. Mewes, S. Ehlert and S. Grimme, Phys. Chem. Chem. Phys.
     2020, 22, 8499-8512. DOI: 10.1039/D0CP00502A
   
   for sTDA-xTB:
   * S. Grimme and C. Bannwarth, J. Chem. Phys., 2016, 145, 054103.
     DOI: 10.1063/1.4959605
   
   in the mass-spec context:
   * V. Asgeirsson, C. Bauer and S. Grimme, Chem. Sci., 2017, 8, 4879.
     DOI: 10.1039/c7sc00601b
   * J. Koopman and S. Grimme, ACS Omega 2019, 4, 12, 15120-15133.
     DOI: 10.1021/acsomega.9b02011
   
   for metadynamics refer to:
   * S. Grimme, J. Chem. Theory Comput., 2019, 155, 2847-2862
     DOI: 10.1021/acs.jctc.9b00143
   
   for SPH calculations refer to:
   * S. Spicher and S. Grimme, J. Chem. Theory Comput., 2021, 17, 1701-1714
     DOI: 10.1021/acs.jctc.0c01306
   
   for ONIOM refer to:
   * C. Plett, A. Katbashev, S. Ehlert, S. Grimme, M. Bursch,
     Phys. Chem. Chem. Phys., 2023, 25, 17860-17868. DOI: 10.1039/D3CP02178E
   
   for DIPRO refer to:
   * J. Kohn, N. Gildemeister, S. Grimme, D. Fazzi, A. Hansen,
     J. Chem. Phys., 2023, just accepted.
   
   for PTB refer to:
   * S. Grimme, M. Mueller, A. Hansen, J. Chem. Phys., 2023, 158, 124111.
     DOI: 10.1063/5.0137838
   
   with help from (in alphabetical order)
   P. Atkinson, C. Bannwarth, F. Bohle, G. Brandenburg, E. Caldeweyher
   M. Checinski, S. Dohm, S. Ehlert, S. Ehrlich, I. Gerasimov, C. Hölzer
   A. Katbashev, J. Kohn, J. Koopman, C. Lavigne, S. Lehtola, F. März, M. Müller,
   F. Musil, H. Neugebauer, J. Pisarek, C. Plett, P. Pracht, F. Pultar,
   J. Seibert, P. Shushkov, S. Spicher, M. Stahn, M. Steiner, T. Strunk,
   J. Stückrath, T. Rose, and J. Unsleber
   
 * started run on 2025/04/11 at 11:36:47.601     
   ID    Z sym.   atoms
    1    6 C      1-3
    2    8 O      4-6
    3    1 H      7-14

           -------------------------------------------------
          |                Calculation Setup                |
           -------------------------------------------------

          program call               : /srv/scratch/z5358697/.xtb/bin/xtb xtb_rrho.coord --gfn2 --bhess vtight --chrg 0 --enso --norestart -I rrho-xcontrol-inp --parallel 1 --alpb water
          hostname                   : k022
          coordinate file            : xtb_rrho.coord
          omp threads                :                     1


           -------------------------------------------------
          |                 G F N 2 - x T B                 |
           -------------------------------------------------

        Reference                      10.1021/acs.jctc.8b01176
      * Hamiltonian:
        H0-scaling (s, p, d)           1.850000    2.230000    2.230000
        zeta-weighting                 0.500000
      * Dispersion:
        s8                             2.700000
        a1                             0.520000
        a2                             5.000000
        s9                             5.000000
      * Repulsion:
        kExp                           1.500000    1.000000
        rExp                           1.000000
      * Coulomb:
        alpha                          2.000000
        third order                    shell-resolved
        anisotropic                    true
        a3                             3.000000
        a5                             4.000000
        cn-shift                       1.200000
        cn-exp                         4.000000
        max-rad                        5.000000

      * Solvation model:               ALPB
        Solvent                        water
        Parameter file                 internal GFN2-xTB/ALPB
        Dielectric constant                8.0200E+01
        Reference state                gsolv [1 M gas/solution]
        Free energy shift                  1.0808E-03 Eh       6.7819E-01 kcal/mol
        Temperature                        2.9815E+02 K
        Density                            1.0000E+00 kg/L
        Solvent mass                       1.8000E+01 g/mol
        Interaction kernel             P16
        Born radius scaling (c1)           1.4744E+00
        Born radii integrator          GBOBC
        Born offset                        0.0000E+00 a0       0.0000E+00 AA
        H-bond correction              true
        Ion screening                  false
        Surface tension                    1.0000E-05 Eh       1.5569E+01 dyn/cm
        Grid points                               974 per atom

          ...................................................
          :                      SETUP                      :
          :.................................................:
          :  # basis functions                  32          :
          :  # atomic orbitals                  32          :
          :  # shells                           20          :
          :  # electrons                        38          :
          :  max. iterations                   250          :
          :  Hamiltonian                  GFN2-xTB          :
          :  restarted?                      false          :
          :  GBSA solvation                   true          :
          :  PC potential                    false          :
          :  electronic temp.          300.0000000     K    :
          :  accuracy                    1.0000000          :
          :  -> integral cutoff          0.2500000E+02      :
          :  -> integral neglect         0.1000000E-07      :
          :  -> SCF convergence          0.1000000E-05 Eh   :
          :  -> wf. convergence          0.1000000E-03 e    :
          :  Broyden damping             0.4000000          :
          :  net charge                          0          :
          :  unpaired electrons                  0          :
          ...................................................

 iter      E             dE          RMSdq      gap      omega  full diag
   1    -22.8363641 -0.228364E+02  0.472E+00   11.63       0.0  T
   2    -22.8611357 -0.247716E-01  0.245E+00   11.41       1.0  T
   3    -22.8627549 -0.161922E-02  0.620E-01   11.36       1.0  T
   4    -22.8628481 -0.931429E-04  0.188E-01   11.37       1.0  T
   5    -22.8628858 -0.377535E-04  0.456E-02   11.39       1.0  T
   6    -22.8628891 -0.322656E-05  0.239E-02   11.39       1.1  T
   7    -22.8628900 -0.916550E-06  0.498E-03   11.39       5.4  T
   8    -22.8628900 -0.467715E-07  0.241E-03   11.39      11.1  T
   9    -22.8628900 -0.144970E-07  0.558E-04   11.39      47.9  T
  10    -22.8628900 -0.546493E-09  0.214E-04   11.39     125.1  T

   *** convergence criteria satisfied after 10 iterations ***

         #    Occupation            Energy/Eh            Energy/eV
      -------------------------------------------------------------
         1        2.0000           -0.6929293             -18.8556
       ...           ...                  ...                  ...
        13        2.0000           -0.5097216             -13.8702
        14        2.0000           -0.4791587             -13.0386
        15        2.0000           -0.4782322             -13.0134
        16        2.0000           -0.4473337             -12.1726
        17        2.0000           -0.4206765             -11.4472
        18        2.0000           -0.4153935             -11.3034
        19        2.0000           -0.4127373             -11.2312 (HOMO)
        20                          0.0058440               0.1590 (LUMO)
        21                          0.0150620               0.4099
        22                          0.0453524               1.2341
        23                          0.1089040               2.9634
        24                          0.1150359               3.1303
       ...                                ...                  ...
        32                          0.2699270               7.3451
      -------------------------------------------------------------
                  HL-Gap            0.4185812 Eh           11.3902 eV
             Fermi-level           -0.2034466 Eh           -5.5361 eV

 SCC (total)                   0 d,  0 h,  0 min,  0.054 sec
 SCC setup                      ...        0 min,  0.001 sec (  1.741%)
 Dispersion                     ...        0 min,  0.000 sec (  0.122%)
 classical contributions        ...        0 min,  0.000 sec (  0.031%)
 integral evaluation            ...        0 min,  0.001 sec (  1.981%)
 iterations                     ...        0 min,  0.049 sec ( 90.417%)
 molecular gradient             ...        0 min,  0.003 sec (  5.394%)
 printout                       ...        0 min,  0.000 sec (  0.289%)

         :::::::::::::::::::::::::::::::::::::::::::::::::::::
         ::                     SUMMARY                     ::
         :::::::::::::::::::::::::::::::::::::::::::::::::::::
         :: total energy             -22.689861882824 Eh    ::
         :: total w/o Gsasa/hb       -22.675906439951 Eh    ::
         :: gradient norm              0.040061696264 Eh/a0 ::
         :: HOMO-LUMO gap             11.390175367496 eV    ::
         ::.................................................::
         :: SCC energy               -22.862879801166 Eh    ::
         :: -> isotropic ES            0.099100779691 Eh    ::
         :: -> anisotropic ES          0.001210243082 Eh    ::
         :: -> anisotropic XC         -0.001748841419 Eh    ::
         :: -> dispersion             -0.007022165878 Eh    ::
         :: -> Gsolv                  -0.027159702901 Eh    ::
         ::    -> Gelec               -0.013204260027 Eh    ::
         ::    -> Gsasa                0.002734410223 Eh    ::
         ::    -> Ghb                 -0.017770612795 Eh    ::
         ::    -> Gshift               0.001080759698 Eh    ::
         :: repulsion energy           0.173017918341 Eh    ::
         :: add. restraining           0.000000000000 Eh    ::
         :: total charge               0.000000000000 e     ::
         :::::::::::::::::::::::::::::::::::::::::::::::::::::

metadynamics with 1 initial structures loaded
           -------------------------------------------------
          |           Optimal kpush determination           |
           -------------------------------------------------
      ----------------------------------------------------------- 
     |                   =====================                   |
     |                        A N C O P T                        |
     |                   =====================                   |
     |               Approximate Normal Coordinate               |
     |                Rational Function Optimizer                |
      ----------------------------------------------------------- 
target rmsd / Å         0.100000
unbiased initial rmsd   0.107647
 
iter. min.        max.        rmsd       kpush
      ----------------------------------------------------------- 
     |                   =====================                   |
     |                        A N C O P T                        |
     |                   =====================                   |
     |               Approximate Normal Coordinate               |
     |                Rational Function Optimizer                |
      ----------------------------------------------------------- 
 1    0.000000    0.636364    0.013765   -0.318182
      ----------------------------------------------------------- 
     |                   =====================                   |
     |                        A N C O P T                        |
     |                   =====================                   |
     |               Approximate Normal Coordinate               |
     |                Rational Function Optimizer                |
      ----------------------------------------------------------- 
 2    0.000000    0.318182    0.018623   -0.159091
      ----------------------------------------------------------- 
     |                   =====================                   |
     |                        A N C O P T                        |
     |                   =====================                   |
     |               Approximate Normal Coordinate               |
     |                Rational Function Optimizer                |
      ----------------------------------------------------------- 
 3    0.000000    0.159091    0.026683   -0.079545
      ----------------------------------------------------------- 
     |                   =====================                   |
     |                        A N C O P T                        |
     |                   =====================                   |
     |               Approximate Normal Coordinate               |
     |                Rational Function Optimizer                |
      ----------------------------------------------------------- 
 4    0.000000    0.079545    0.038388   -0.039773
      ----------------------------------------------------------- 
     |                   =====================                   |
     |                        A N C O P T                        |
     |                   =====================                   |
     |               Approximate Normal Coordinate               |
     |                Rational Function Optimizer                |
      ----------------------------------------------------------- 
 5    0.000000    0.039773    0.052338   -0.019886
      ----------------------------------------------------------- 
     |                   =====================                   |
     |                        A N C O P T                        |
     |                   =====================                   |
     |               Approximate Normal Coordinate               |
     |                Rational Function Optimizer                |
      ----------------------------------------------------------- 
 6    0.000000    0.019886    0.066817   -0.009943
      ----------------------------------------------------------- 
     |                   =====================                   |
     |                        A N C O P T                        |
     |                   =====================                   |
     |               Approximate Normal Coordinate               |
     |                Rational Function Optimizer                |
      ----------------------------------------------------------- 
 7    0.000000    0.009943    0.080187   -0.004972
      ----------------------------------------------------------- 
     |                   =====================                   |
     |                        A N C O P T                        |
     |                   =====================                   |
     |               Approximate Normal Coordinate               |
     |                Rational Function Optimizer                |
      ----------------------------------------------------------- 
 8    0.000000    0.004972    0.090852   -0.002486
      ----------------------------------------------------------- 
     |                   =====================                   |
     |                        A N C O P T                        |
     |                   =====================                   |
     |               Approximate Normal Coordinate               |
     |                Rational Function Optimizer                |
      ----------------------------------------------------------- 
 9    0.000000    0.002486    0.097838   -0.001243
      ----------------------------------------------------------- 
     |                   =====================                   |
     |                        A N C O P T                        |
     |                   =====================                   |
     |               Approximate Normal Coordinate               |
     |                Rational Function Optimizer                |
      ----------------------------------------------------------- 
10    0.000000    0.001243    0.102446   -0.000621
final kpush: -0.000621
           -------------------------------------------------
          |            Biased Numerical Hessian             |
           -------------------------------------------------
kpush                :  -0.00062
alpha                :   1.00000
step length          :   0.00500
SCC accuracy         :   0.30000
Hessian scale factor :   1.00000
frozen atoms in %    :   0.00000    0
RMS gradient         :   0.00004
estimated CPU  time      0.01 min
estimated wall time      0.01 min

writing file <hessian>.

 projected vibrational frequencies (cm⁻¹)
eigval :       -0.00    -0.00    -0.00     0.00     0.00     0.00
eigval :       84.77   102.09   192.53   235.58   270.90   301.58
eigval :      340.52   372.94   468.06   616.95   865.12   931.54
eigval :      951.20  1040.44  1072.57  1092.08  1113.69  1159.71
eigval :     1189.79  1192.03  1230.39  1247.04  1298.83  1332.61
eigval :     1357.65  1363.65  1453.45  1466.55  2839.38  2880.37
eigval :     2908.93  2929.41  2940.22  3463.93  3497.38  3508.33
           -------------------------------------------------
          |                Property Printout                |
           -------------------------------------------------

    * Orbital Energies and Occupations

         #    Occupation            Energy/Eh            Energy/eV
      -------------------------------------------------------------
         1        2.0000           -0.6949150             -18.9096
       ...           ...                  ...                  ...
         7        2.0000           -0.5781553             -15.7324
         8        2.0000           -0.5671209             -15.4321
         9        2.0000           -0.5604737             -15.2513
        10        2.0000           -0.5356687             -14.5763
        11        2.0000           -0.5209574             -14.1760
        12        2.0000           -0.5168687             -14.0647
        13        2.0000           -0.5128746             -13.9560
        14        2.0000           -0.4821345             -13.1195
        15        2.0000           -0.4775176             -12.9939
        16        2.0000           -0.4407732             -11.9941
        17        2.0000           -0.4168043             -11.3418
        18        2.0000           -0.4152033             -11.2983
        19        2.0000           -0.4108037             -11.1785 (HOMO)
        20                          0.0280123               0.7623 (LUMO)
        21                          0.0379103               1.0316
        22                          0.0589537               1.6042
        23                          0.1028830               2.7996
        24                          0.1219659               3.3189
        25                          0.1379792               3.7546
        26                          0.1422205               3.8700
        27                          0.1736238               4.7245
        28                          0.2018642               5.4930
        29                          0.2201530               5.9907
        30                          0.2411856               6.5630
       ...                                ...                  ...
        32                          0.2761973               7.5157
      -------------------------------------------------------------
                  HL-Gap            0.4388160 Eh           11.9408 eV
             Fermi-level           -0.1913957 Eh           -5.2081 eV

     #   Z          covCN         q      C6AA      α(0)
     1   6 C        3.675     0.070    19.625     6.348
     2   6 C        3.723     0.110    18.872     6.204
     3   6 C        3.675     0.071    19.612     6.346
     4   8 O        1.655    -0.515    23.211     6.504
     5   8 O        1.655    -0.505    22.993     6.473
     6   8 O        1.655    -0.521    23.347     6.523
     7   1 H        0.924     0.032     2.562     2.503
     8   1 H        0.924     0.048     2.349     2.397
     9   1 H        0.923     0.025     2.655     2.548
    10   1 H        0.923     0.031     2.573     2.508
    11   1 H        0.924     0.047     2.358     2.402
    12   1 H        0.805     0.374     0.535     1.149
    13   1 H        0.804     0.360     0.565     1.181
    14   1 H        0.805     0.372     0.539     1.154

 Mol. C6AA /au·bohr⁶  :       1418.203832
 Mol. C8AA /au·bohr⁸  :      29124.136926
 Mol. α(0) /au        :         54.238219


Wiberg/Mayer (AO) data.
largest (>0.10) Wiberg bond orders for each atom

 ---------------------------------------------------------------------------
     #   Z sym  total        # sym  WBO       # sym  WBO       # sym  WBO
 ---------------------------------------------------------------------------
     1   6 C    3.955 --     6 O    0.995     2 C    0.985     7 H    0.970
                             8 H    0.969
     2   6 C    3.962 --     5 O    0.994     3 C    0.988     1 C    0.985
                             9 H    0.959
     3   6 C    3.960 --     4 O    1.001     2 C    0.988    11 H    0.970
                            10 H    0.969
     4   8 O    1.902 --     3 C    1.001    12 H    0.847
     5   8 O    1.917 --     2 C    0.994    13 H    0.852
     6   8 O    1.901 --     1 C    0.995    14 H    0.849
     7   1 H    0.999 --     1 C    0.970
     8   1 H    0.998 --     1 C    0.969
     9   1 H    0.999 --     2 C    0.959
    10   1 H    0.999 --     3 C    0.969
    11   1 H    0.998 --     3 C    0.970
    12   1 H    0.860 --     4 O    0.847
    13   1 H    0.870 --     5 O    0.852
    14   1 H    0.861 --     6 O    0.849
 ---------------------------------------------------------------------------

Topologies differ in total number of bonds
Writing topology from bond orders to xtbtopo.mol

molecular dipole:
                 x           y           z       tot (Debye)
 q only:       -0.090      -0.757       0.046
   full:       -0.130      -0.971       0.126       2.510
molecular quadrupole (traceless):
                xx          xy          yy          xz          yz          zz
 q only:        6.740      -2.008      -3.322       4.144      -0.178      -3.419
  q+dip:        7.533      -1.383      -4.129       5.389      -0.564      -3.404
   full:        8.051      -1.898      -4.224       5.477      -0.390      -3.826

           -------------------------------------------------
          |                Geometry Summary                 |
           -------------------------------------------------

      molecular mass/u    :       92.0939485
   center of mass at/Å    :        0.0001634      -0.0001882      -0.0007228
  moments of inertia/u·Å² :        0.8682821E+02   0.2146841E+03   0.2582771E+03
rotational constants/cm⁻¹ :        0.1941493E+00   0.7852296E-01   0.6526956E-01

 * 13 selected distances

     #   Z          #   Z                                           value/Å
     1   6 C        2   6 C                                       1.5306018
     2   6 C        3   6 C                                       1.5313240 (max)
     3   6 C        4   8 O                                       1.4098750
     2   6 C        5   8 O                                       1.4102601
     1   6 C        6   8 O                                       1.4130503
     1   6 C        7   1 H                                       1.0960779
     1   6 C        8   1 H                                       1.0953559
     2   6 C        9   1 H                                       1.1023693
     3   6 C       10   1 H                                       1.0981121
     3   6 C       11   1 H                                       1.0952621
     4   8 O       12   1 H                                       0.9669382
     5   8 O       13   1 H                                       0.9690510
     6   8 O       14   1 H                                       0.9662849 (min)

 * 4 distinct bonds (by element types)

   Z      Z             #   av. dist./Å        max./Å        min./Å
   1 H    6 C           5     1.0974355     1.1023693     1.0952621
   6 C    6 C           2     1.5309629     1.5313240     1.5306018
   1 H    8 O           3     0.9674247     0.9690510     0.9662849
   6 C    8 O           3     1.4110618     1.4130503     1.4098750

           -------------------------------------------------
          |               Frequency Printout                |
           -------------------------------------------------
 projected vibrational frequencies (cm⁻¹)
eigval :       -0.00    -0.00    -0.00     0.00     0.00     0.00
eigval :       84.77   102.09   192.53   235.58   270.90   301.58
eigval :      340.52   372.94   468.06   616.95   865.12   931.54
eigval :      951.20  1040.44  1072.57  1092.08  1113.69  1159.71
eigval :     1189.79  1192.03  1230.39  1247.04  1298.83  1332.61
eigval :     1357.65  1363.65  1453.45  1466.55  2839.38  2880.37
eigval :     2908.93  2929.41  2940.22  3463.93  3497.38  3508.33
 reduced masses (amu)
   1: 12.59   2: 13.14   3: 13.43   4: 12.68   5: 12.55   6: 13.54   7: 10.79   8: 11.97
   9: 12.80  10:  2.36  11:  3.67  12: 10.75  13:  9.76  14:  3.13  15: 10.01  16: 10.63
  17:  9.58  18:  6.47  19:  7.96  20:  7.35  21: 11.04  22: 11.15  23:  7.85  24:  3.04
  25:  3.45  26:  3.87  27:  2.68  28:  3.19  29:  4.30  30:  2.91  31:  4.56  32:  5.30
  33:  1.78  34:  1.79  35:  1.71  36:  1.83  37:  1.89  38:  1.59  39:  1.53  40:  1.87
  41:  1.88  42:  1.88
 IR intensities (km·mol⁻¹)
   1:  0.51   2:  0.01   3:  0.16   4:  1.23   5:  1.34   6:  0.87   7:  5.70   8:  3.96
   9:  6.31  10:230.47  11:189.76  12: 25.38  13:  6.47  14:242.21  15: 29.10  16: 40.12
  17: 25.45  18: 25.36  19: 46.13  20: 72.73  21:106.22  22:163.87  23:103.06  24: 31.99
  25: 89.20  26:182.57  27:  4.74  28: 16.36  29: 75.06  30: 12.97  31: 11.04  32: 17.67
  33:  1.88  34:  1.30  35: 96.83  36: 97.94  37:107.15  38: 55.78  39: 61.65  40:104.90
  41: 91.22  42: 94.67
 Raman intensities (Ä⁴*amu⁻¹)
   1:  0.00   2:  0.00   3:  0.00   4:  0.00   5:  0.00   6:  0.00   7:  0.00   8:  0.00
   9:  0.00  10:  0.00  11:  0.00  12:  0.00  13:  0.00  14:  0.00  15:  0.00  16:  0.00
  17:  0.00  18:  0.00  19:  0.00  20:  0.00  21:  0.00  22:  0.00  23:  0.00  24:  0.00
  25:  0.00  26:  0.00  27:  0.00  28:  0.00  29:  0.00  30:  0.00  31:  0.00  32:  0.00
  33:  0.00  34:  0.00  35:  0.00  36:  0.00  37:  0.00  38:  0.00  39:  0.00  40:  0.00
  41:  0.00  42:  0.00
 output can be read by thermo (or use thermo option).
 writing <g98.out> molden fake output.
 recommended (thermochemical) frequency scaling factor: 1.0
           -------------------------------------------------
          |             Thermodynamic Functions             |
           -------------------------------------------------

Molecule has no symmetry elements
It seems to be the C1 point group
c1  symmetry found (for desy threshold:  0.10E+00) used in thermo

          ...................................................
          :                      SETUP                      :
          :.................................................:
          :  # frequencies                          36      :
          :  # imaginary freq.                       0      :
          :  linear?                             false      :
          :  only rotor calc.                    false      :
          :  symmetry                               c1      :
          :  rotational number                       1      :
          :  scaling factor                  1.0000000      :
          :  rotor cutoff                    0.0000000 cm⁻¹ :
          :  imag. cutoff                 -100.0000000 cm⁻¹ :
          :.................................................:

    mode    ω/cm⁻¹     T·S(HO)/kcal·mol⁻¹    T·S(FR)/kcal·mol⁻¹   T·S(vib)
   ------------------------------------------------------------------------
       1     84.77    -1.12621 (100.00%)    -0.89985 (  0.00%)    -1.12621
       2    102.09    -1.01787 (100.00%)    -0.84481 (  0.00%)    -1.01787
       3    192.53    -0.65693 (100.00%)    -0.65701 (  0.00%)    -0.65693
       4    235.58    -0.54740 (100.00%)    -0.59725 (  0.00%)    -0.54740
       5    270.90    -0.47419 (100.00%)    -0.55588 (  0.00%)    -0.47419
   ------------------------------------------------------------------------

   temp. (K)  partition function   enthalpy   heat capacity  entropy
                                   cal/mol     cal/K/mol   cal/K/mol   J/K/mol
 298.15  VIB   63.2                 3109.060     20.731     18.668
         ROT  0.168E+06              888.752      2.981     26.886
         INT  0.106E+08             3997.812     23.712     45.555
         TR   0.855E+27             1481.254      4.968     39.455
         TOT                        5479.0659    28.6798    85.0092   355.6785

       T/K    H(0)-H(T)+PV         H(T)/Eh          T*S/Eh         G(T)/Eh
   ------------------------------------------------------------------------
    298.15    0.873145E-02    0.121073E+00    0.403906E-01    0.806823E-01
   ------------------------------------------------------------------------

         :::::::::::::::::::::::::::::::::::::::::::::::::::::
         ::                  THERMODYNAMIC                  ::
         :::::::::::::::::::::::::::::::::::::::::::::::::::::
         :: total free energy         -22.612229576460 Eh   ::
         ::.................................................::
         :: total energy              -22.692911924034 Eh   ::
         :: zero point energy           0.112341515756 Eh   ::
         :: G(RRHO) w/o ZPVE           -0.031659168182 Eh   ::
         :: G(RRHO) contrib.            0.080682347573 Eh   ::
         :::::::::::::::::::::::::::::::::::::::::::::::::::::

optimized geometry written to: xtbopt.coord


           -------------------------------------------------
          | TOTAL ENERGY              -22.692911924034 Eh   |
          | TOTAL ENTHALPY            -22.571838960963 Eh   |
          | TOTAL FREE ENERGY         -22.612229576460 Eh   |
          | GRADIENT NORM               0.000041062361 Eh/α |
          | HOMO-LUMO GAP              11.940790174688 eV   |
           -------------------------------------------------

------------------------------------------------------------------------
 * finished run on 2025/04/11 at 11:36:49.311     
------------------------------------------------------------------------
 total:
 * wall-time:     0 d,  0 h,  0 min,  1.709 sec
 *  cpu-time:     0 d,  0 h,  0 min,  1.497 sec
 * ratio c/w:     0.876 speedup
 SCF:
 * wall-time:     0 d,  0 h,  0 min,  0.054 sec
 *  cpu-time:     0 d,  0 h,  0 min,  0.010 sec
 * ratio c/w:     0.185 speedup
 analytical hessian:
 * wall-time:     0 d,  0 h,  0 min,  0.498 sec
 *  cpu-time:     0 d,  0 h,  0 min,  0.489 sec
 * ratio c/w:     0.982 speedup

