      -----------------------------------------------------------      
     |                   =====================                   |     
     |                           x T B                           |     
     |                   =====================                   |     
     |                         S. Grimme                         |     
     |          Mulliken Center for Theoretical Chemistry        |     
     |                    University of Bonn                     |     
      -----------------------------------------------------------      

   * xtb version 6.7.1 (edcfbbe) compiled by 'albert@albert-system' on 2024-07-22

   xtb is free software: you can redistribute it and/or modify it under
   the terms of the GNU Lesser General Public License as published by
   the Free Software Foundation, either version 3 of the License, or
   (at your option) any later version.
   
   xtb is distributed in the hope that it will be useful,
   but WITHOUT ANY WARRANTY; without even the implied warranty of
   MERCHANTABILITY or FITNESS FOR A PARTICULAR PURPOSE.  See the
   GNU Lesser General Public License for more details.
   
   Cite this work as:
   * C. Bannwarth, E. Caldeweyher, S. Ehlert, A. Hansen, P. Pracht,
     J. Seibert, S. Spicher, S. Grimme, WIREs Comput. Mol. Sci., 2020, 11,
     e01493. DOI: 10.1002/wcms.1493
   
   for GFN2-xTB:
   * C. Bannwarth, S. Ehlert and S. Grimme., J. Chem. Theory Comput., 2019,
     15, 1652-1671. DOI: 10.1021/acs.jctc.8b01176
   for GFN1-xTB:
   * S. Grimme, C. Bannwarth, P. Shushkov, J. Chem. Theory Comput., 2017,
     13, 1989-2009. DOI: 10.1021/acs.jctc.7b00118
   for GFN0-xTB:
   * P. Pracht, E. Caldeweyher, S. Ehlert, S. Grimme, ChemRxiv, 2019, preprint.
     DOI: 10.26434/chemrxiv.8326202.v1
   for GFN-FF:
   * S. Spicher and S. Grimme, Angew. Chem. Int. Ed., 2020, 59, 15665-15673.
     DOI: 10.1002/anie.202004239
   
   for ALPB and GBSA implicit solvation:
   * S. Ehlert, M. Stahn, S. Spicher, S. Grimme, J. Chem. Theory Comput.,
     2021, 17, 4250-4261. DOI: 10.1021/acs.jctc.1c00471
   
   for ddCOSMO and CPCM-X implicit solvation:
   * M. Stahn, S. Ehlert, S. Grimme, J. Phys. Chem. A,
     2023, XX, XXXX-XXXX. DOI: 10.1021/acs.jpca.3c04382
   
   for DFT-D4:
   * E. Caldeweyher, C. Bannwarth and S. Grimme, J. Chem. Phys., 2017,
     147, 034112. DOI: 10.1063/1.4993215
   * E. Caldeweyher, S. Ehlert, A. Hansen, H. Neugebauer, S. Spicher,
     C. Bannwarth and S. Grimme, J. Chem. Phys., 2019, 150, 154122.
     DOI: 10.1063/1.5090222
   * E. Caldeweyher, J.-M. Mewes, S. Ehlert and S. Grimme, Phys. Chem. Chem. Phys.
     2020, 22, 8499-8512. DOI: 10.1039/D0CP00502A
   
   for sTDA-xTB:
   * S. Grimme and C. Bannwarth, J. Chem. Phys., 2016, 145, 054103.
     DOI: 10.1063/1.4959605
   
   in the mass-spec context:
   * V. Asgeirsson, C. Bauer and S. Grimme, Chem. Sci., 2017, 8, 4879.
     DOI: 10.1039/c7sc00601b
   * J. Koopman and S. Grimme, ACS Omega 2019, 4, 12, 15120-15133.
     DOI: 10.1021/acsomega.9b02011
   
   for metadynamics refer to:
   * S. Grimme, J. Chem. Theory Comput., 2019, 155, 2847-2862
     DOI: 10.1021/acs.jctc.9b00143
   
   for SPH calculations refer to:
   * S. Spicher and S. Grimme, J. Chem. Theory Comput., 2021, 17, 1701-1714
     DOI: 10.1021/acs.jctc.0c01306
   
   for ONIOM refer to:
   * C. Plett, A. Katbashev, S. Ehlert, S. Grimme, M. Bursch,
     Phys. Chem. Chem. Phys., 2023, 25, 17860-17868. DOI: 10.1039/D3CP02178E
   
   for DIPRO refer to:
   * J. Kohn, N. Gildemeister, S. Grimme, D. Fazzi, A. Hansen,
     J. Chem. Phys., 2023, just accepted.
   
   for PTB refer to:
   * S. Grimme, M. Mueller, A. Hansen, J. Chem. Phys., 2023, 158, 124111.
     DOI: 10.1063/5.0137838
   
   with help from (in alphabetical order)
   P. Atkinson, C. Bannwarth, F. Bohle, G. Brandenburg, E. Caldeweyher
   M. Checinski, S. Dohm, S. Ehlert, S. Ehrlich, I. Gerasimov, C. Hölzer
   A. Katbashev, J. Kohn, J. Koopman, C. Lavigne, S. Lehtola, F. März, M. Müller,
   F. Musil, H. Neugebauer, J. Pisarek, C. Plett, P. Pracht, F. Pultar,
   J. Seibert, P. Shushkov, S. Spicher, M. Stahn, M. Steiner, T. Strunk,
   J. Stückrath, T. Rose, and J. Unsleber
   
 * started run on 2025/04/11 at 11:18:31.986     
   ID    Z sym.   atoms
    1    6 C      1-3, 5, 7, 9, 10, 12, 14
    2    1 H      4, 16-27
    3    7 N      6, 11
    4    8 O      8, 13
    5   35 Br     15

           -------------------------------------------------
          |                Calculation Setup                |
           -------------------------------------------------

          program call               : /srv/scratch/z5358697/.xtb/bin/xtb xtb_rrho.coord --gfn2 --bhess vtight --chrg 0 --enso --norestart -I rrho-xcontrol-inp --parallel 1 --alpb water
          hostname                   : k078
          coordinate file            : xtb_rrho.coord
          omp threads                :                     1


           -------------------------------------------------
          |                 G F N 2 - x T B                 |
           -------------------------------------------------

        Reference                      10.1021/acs.jctc.8b01176
      * Hamiltonian:
        H0-scaling (s, p, d)           1.850000    2.230000    2.230000
        zeta-weighting                 0.500000
      * Dispersion:
        s8                             2.700000
        a1                             0.520000
        a2                             5.000000
        s9                             5.000000
      * Repulsion:
        kExp                           1.500000    1.000000
        rExp                           1.000000
      * Coulomb:
        alpha                          2.000000
        third order                    shell-resolved
        anisotropic                    true
        a3                             3.000000
        a5                             4.000000
        cn-shift                       1.200000
        cn-exp                         4.000000
        max-rad                        5.000000

      * Solvation model:               ALPB
        Solvent                        water
        Parameter file                 internal GFN2-xTB/ALPB
        Dielectric constant                8.0200E+01
        Reference state                gsolv [1 M gas/solution]
        Free energy shift                  1.0808E-03 Eh       6.7819E-01 kcal/mol
        Temperature                        2.9815E+02 K
        Density                            1.0000E+00 kg/L
        Solvent mass                       1.8000E+01 g/mol
        Interaction kernel             P16
        Born radius scaling (c1)           1.4744E+00
        Born radii integrator          GBOBC
        Born offset                        0.0000E+00 a0       0.0000E+00 AA
        H-bond correction              true
        Ion screening                  false
        Surface tension                    1.0000E-05 Eh       1.5569E+01 dyn/cm
        Grid points                               974 per atom

          ...................................................
          :                      SETUP                      :
          :.................................................:
          :  # basis functions                  75          :
          :  # atomic orbitals                  74          :
          :  # shells                           42          :
          :  # electrons                        78          :
          :  max. iterations                   250          :
          :  Hamiltonian                  GFN2-xTB          :
          :  restarted?                      false          :
          :  GBSA solvation                   true          :
          :  PC potential                    false          :
          :  electronic temp.          300.0000000     K    :
          :  accuracy                    1.0000000          :
          :  -> integral cutoff          0.2500000E+02      :
          :  -> integral neglect         0.1000000E-07      :
          :  -> SCF convergence          0.1000000E-05 Eh   :
          :  -> wf. convergence          0.1000000E-03 e    :
          :  Broyden damping             0.4000000          :
          :  net charge                          0          :
          :  unpaired electrons                  0          :
          ...................................................

 iter      E             dE          RMSdq      gap      omega  full diag
   1    -44.4087036 -0.444087E+02  0.448E+00    3.92       0.0  T
   2    -44.5199797 -0.111276E+00  0.243E+00    3.21       1.0  T
   3    -44.5213622 -0.138250E-02  0.133E+00    3.43       1.0  T
   4    -44.5221584 -0.796218E-03  0.610E-01    3.17       1.0  T
   5    -44.5282855 -0.612710E-02  0.240E-01    3.24       1.0  T
   6    -44.5283771 -0.915972E-04  0.157E-01    3.26       1.0  T
   7    -44.5284876 -0.110470E-03  0.100E-01    3.25       1.0  T
   8    -44.5285153 -0.277239E-04  0.662E-02    3.25       1.0  T
   9    -44.5285388 -0.234550E-04  0.172E-02    3.26       1.1  T
  10    -44.5285396 -0.807098E-06  0.942E-03    3.26       2.0  T
  11    -44.5285399 -0.306720E-06  0.497E-03    3.26       3.9  T
  12    -44.5285400 -0.903407E-07  0.346E-03    3.26       5.6  T
  13    -44.5285400 -0.469584E-07  0.156E-03    3.26      12.3  T
  14    -44.5285400 -0.904205E-08  0.564E-04    3.26      34.1  T
  15    -44.5285400 -0.177437E-08  0.246E-04    3.26      78.3  T

   *** convergence criteria satisfied after 15 iterations ***

         #    Occupation            Energy/Eh            Energy/eV
      -------------------------------------------------------------
         1        2.0000           -0.8505539             -23.1447
       ...           ...                  ...                  ...
        33        2.0000           -0.4526487             -12.3172
        34        2.0000           -0.4404969             -11.9865
        35        2.0000           -0.4359028             -11.8615
        36        2.0000           -0.4296185             -11.6905
        37        2.0000           -0.4254603             -11.5774
        38        2.0000           -0.4172982             -11.3553
        39        2.0000           -0.4036360             -10.9835 (HOMO)
        40                         -0.2839921              -7.7278 (LUMO)
        41                         -0.2508724              -6.8266
        42                         -0.2205096              -6.0004
        43                         -0.1666175              -4.5339
        44                         -0.0623377              -1.6963
       ...                                ...                  ...
        74                          0.6334859              17.2380
      -------------------------------------------------------------
                  HL-Gap            0.1196439 Eh            3.2557 eV
             Fermi-level           -0.3438140 Eh           -9.3557 eV

 SCC (total)                   0 d,  0 h,  0 min,  0.044 sec
 SCC setup                      ...        0 min,  0.002 sec (  4.229%)
 Dispersion                     ...        0 min,  0.000 sec (  0.513%)
 classical contributions        ...        0 min,  0.000 sec (  0.086%)
 integral evaluation            ...        0 min,  0.010 sec ( 22.004%)
 iterations                     ...        0 min,  0.019 sec ( 43.980%)
 molecular gradient             ...        0 min,  0.013 sec ( 28.635%)
 printout                       ...        0 min,  0.000 sec (  0.509%)

         :::::::::::::::::::::::::::::::::::::::::::::::::::::
         ::                     SUMMARY                     ::
         :::::::::::::::::::::::::::::::::::::::::::::::::::::
         :: total energy             -44.039934572778 Eh    ::
         :: total w/o Gsasa/hb       -44.036484981287 Eh    ::
         :: gradient norm              0.040938605877 Eh/a0 ::
         :: HOMO-LUMO gap              3.255675454336 eV    ::
         ::.................................................::
         :: SCC energy               -44.528274660488 Eh    ::
         :: -> isotropic ES            0.103190007602 Eh    ::
         :: -> anisotropic ES          0.000400412792 Eh    ::
         :: -> anisotropic XC          0.008761792909 Eh    ::
         :: -> dispersion             -0.026992032162 Eh    ::
         :: -> Gsolv                  -0.021437360722 Eh    ::
         ::    -> Gelec               -0.017987769231 Eh    ::
         ::    -> Gsasa                0.000628052123 Eh    ::
         ::    -> Ghb                 -0.005158403312 Eh    ::
         ::    -> Gshift               0.001080759698 Eh    ::
         :: repulsion energy           0.488340087710 Eh    ::
         :: add. restraining           0.000000000000 Eh    ::
         :: total charge               0.000000000000 e     ::
         :::::::::::::::::::::::::::::::::::::::::::::::::::::

metadynamics with 1 initial structures loaded
           -------------------------------------------------
          |           Optimal kpush determination           |
           -------------------------------------------------
      ----------------------------------------------------------- 
     |                   =====================                   |
     |                        A N C O P T                        |
     |                   =====================                   |
     |               Approximate Normal Coordinate               |
     |                Rational Function Optimizer                |
      ----------------------------------------------------------- 
target rmsd / Å         0.100000
unbiased initial rmsd   0.089578
 
iter. min.        max.        rmsd       kpush
final kpush:  0.000000
           -------------------------------------------------
          |            Biased Numerical Hessian             |
           -------------------------------------------------
kpush                :   0.00000
alpha                :   1.00000
step length          :   0.00500
SCC accuracy         :   0.30000
Hessian scale factor :   1.00000
frozen atoms in %    :   0.00000    0
RMS gradient         :   0.00020
estimated CPU  time      0.07 min
estimated wall time      0.07 min

writing file <hessian>.

 projected vibrational frequencies (cm⁻¹)
eigval :       -0.00    -0.00    -0.00     0.00     0.00     0.00
eigval :      -21.84    38.86    42.81    69.87    83.33   136.17
eigval :      157.35   173.20   201.83   223.96   227.00   251.32
eigval :      265.43   285.25   298.03   342.15   408.15   430.98
eigval :      451.90   512.77   563.81   590.26   619.40   638.47
eigval :      649.16   673.67   690.00   772.64   815.92   879.04
eigval :      991.00  1002.53  1012.13  1020.99  1037.06  1048.28
eigval :     1081.60  1093.77  1127.93  1151.03  1183.34  1198.47
eigval :     1216.93  1267.63  1300.02  1305.89  1345.10  1365.02
eigval :     1387.69  1405.21  1415.90  1418.52  1423.74  1451.53
eigval :     1472.66  1481.91  1489.96  1498.44  1509.51  1594.23
eigval :     1648.77  1689.54  2922.81  2967.57  2997.91  3017.64
eigval :     3018.56  3034.23  3039.56  3039.75  3049.41  3056.04
eigval :     3074.47  3080.50  3361.05
           -------------------------------------------------
          |                Property Printout                |
           -------------------------------------------------

    * Orbital Energies and Occupations

         #    Occupation            Energy/Eh            Energy/eV
      -------------------------------------------------------------
         1        2.0000           -0.8492284             -23.1087
       ...           ...                  ...                  ...
        27        2.0000           -0.4837790             -13.1643
        28        2.0000           -0.4801043             -13.0643
        29        2.0000           -0.4746516             -12.9159
        30        2.0000           -0.4716853             -12.8352
        31        2.0000           -0.4606031             -12.5336
        32        2.0000           -0.4554021             -12.3921
        33        2.0000           -0.4512531             -12.2792
        34        2.0000           -0.4414611             -12.0128
        35        2.0000           -0.4354608             -11.8495
        36        2.0000           -0.4283692             -11.6565
        37        2.0000           -0.4236402             -11.5278
        38        2.0000           -0.4153775             -11.3030
        39        2.0000           -0.4025083             -10.9528 (HOMO)
        40                         -0.2801162              -7.6224 (LUMO)
        41                         -0.2472213              -6.7272
        42                         -0.2191255              -5.9627
        43                         -0.1611476              -4.3850
        44                         -0.0426455              -1.1604
        45                         -0.0001514              -0.0041
        46                          0.0261455               0.7115
        47                          0.0305392               0.8310
        48                          0.0502672               1.3678
        49                          0.0664945               1.8094
        50                          0.0688103               1.8724
       ...                                ...                  ...
        74                          0.6684540              18.1896
      -------------------------------------------------------------
                  HL-Gap            0.1223920 Eh            3.3305 eV
             Fermi-level           -0.3413122 Eh           -9.2876 eV

     #   Z          covCN         q      C6AA      α(0)
     1   6 C        3.751    -0.102    22.516     6.767
     2   6 C        3.801    -0.065    21.741     6.639
     3   6 C        3.799     0.049    19.760     6.329
     4   1 H        0.924     0.069     2.097     2.265
     5   6 C        3.753    -0.120    22.852     6.817
     6   7 N        2.743    -0.119    23.598     7.215
     7   6 C        2.846     0.280    22.278     7.735
     8   8 O        0.860    -0.446    22.610     6.375
     9   6 C        2.910     0.001    27.995     8.676
    10   6 C        2.962     0.092    25.963     8.358
    11   7 N        2.712    -0.152    24.279     7.318
    12   6 C        2.712     0.330    21.386     7.570
    13   8 O        0.860    -0.501    23.809     6.542
    14   6 C        3.760    -0.155    23.555     6.919
    15  35 Br       1.080    -0.160   189.472    22.194
    16   1 H        0.925     0.050     2.317     2.380
    17   1 H        0.925     0.021     2.716     2.577
    18   1 H        0.925     0.047     2.359     2.402
    19   1 H        0.924     0.061     2.191     2.315
    20   1 H        0.924     0.041     2.438     2.442
    21   1 H        0.925     0.071     2.079     2.255
    22   1 H        0.925     0.062     2.176     2.307
    23   1 H        0.925     0.044     2.393     2.419
    24   1 H        0.860     0.275     0.793     1.395
    25   1 H        0.925     0.109     1.701     2.040
    26   1 H        0.925     0.115     1.656     2.013
    27   1 H        0.925     0.103     1.758     2.073

 Mol. C6AA /au·bohr⁶  :       8957.130826
 Mol. C8AA /au·bohr⁸  :     244208.939083
 Mol. α(0) /au        :        144.335193


Wiberg/Mayer (AO) data.
largest (>0.10) Wiberg bond orders for each atom

 ---------------------------------------------------------------------------
     #   Z sym  total        # sym  WBO       # sym  WBO       # sym  WBO
 ---------------------------------------------------------------------------
     1   6 C    3.996 --     2 C    1.021    17 H    0.988    18 H    0.985
                            16 H    0.984
     2   6 C    3.993 --     1 C    1.021     3 C    0.984    20 H    0.977
                            19 H    0.971
     3   6 C    3.940 --     5 C    1.009     2 C    0.984     4 H    0.955
                             6 N    0.933
     4   1 H    0.994 --     3 C    0.955
     5   6 C    3.989 --     3 C    1.009    23 H    0.985    22 H    0.980
                            21 H    0.978
     6   7 N    3.559 --    12 C    1.143     7 C    1.098     3 C    0.933
                             8 O    0.137    13 O    0.134
     7   6 C    3.953 --     8 O    1.656     9 C    1.099     6 N    1.098
     8   8 O    2.010 --     7 C    1.656     6 N    0.137
     9   6 C    3.913 --    10 C    1.559     7 C    1.099    15 Br   0.986
    10   6 C    3.958 --     9 C    1.559    11 N    1.185    14 C    1.042
    11   7 N    3.534 --    10 C    1.185    12 C    1.144    24 H    0.890
                            13 O    0.126
    12   6 C    3.961 --    13 O    1.591    11 N    1.144     6 N    1.143
    13   8 O    1.937 --    12 C    1.591     6 N    0.134    11 N    0.126
    14   6 C    3.973 --    10 C    1.042    27 H    0.973    25 H    0.951
                            26 H    0.943
    15  35 Br   1.124 --     9 C    0.986
    16   1 H    0.997 --     1 C    0.984
    17   1 H    1.000 --     1 C    0.988
    18   1 H    0.998 --     1 C    0.985
    19   1 H    0.995 --     2 C    0.971
    20   1 H    0.998 --     2 C    0.977
    21   1 H    0.995 --     5 C    0.978
    22   1 H    0.995 --     5 C    0.980
    23   1 H    0.998 --     5 C    0.985
    24   1 H    0.924 --    11 N    0.890
    25   1 H    0.988 --    14 C    0.951
    26   1 H    0.986 --    14 C    0.943
    27   1 H    0.989 --    14 C    0.973
 ---------------------------------------------------------------------------

Topologies differ in total number of bonds
Writing topology from bond orders to xtbtopo.mol

molecular dipole:
                 x           y           z       tot (Debye)
 q only:        0.608       2.008       0.259
   full:        0.129       2.151       0.217       5.505
molecular quadrupole (traceless):
                xx          xy          yy          xz          yz          zz
 q only:       -2.790      21.850       3.753       1.499       1.662      -0.964
  q+dip:      -10.965      22.895       6.834       0.813       1.670       4.130
   full:      -10.709      22.302       5.416       0.701       1.359       5.293

           -------------------------------------------------
          |                Geometry Summary                 |
           -------------------------------------------------

      molecular mass/u    :      261.1155969
   center of mass at/Å    :        0.0005219       0.0018157       0.0021254
  moments of inertia/u·Å² :        0.6189537E+03   0.1368668E+04   0.1774537E+04
rotational constants/cm⁻¹ :        0.2723569E-01   0.1231681E-01   0.9499734E-02

 * 26 selected distances

     #   Z          #   Z                                           value/Å
     1   6 C        2   6 C                                       1.5237872
     2   6 C        3   6 C                                       1.5364309
     3   6 C        4   1 H                                       1.0970043
     3   6 C        5   6 C                                       1.5228446
     3   6 C        6   7 N                                       1.4784184
     6   7 N        7   6 C                                       1.3953468
     7   6 C        8   8 O                                       1.2158735
     9   6 C       10   6 C                                       1.3553972
    10   6 C       11   7 N                                       1.3618540
     6   7 N       12   6 C                                       1.3775495
    11   7 N       12   6 C                                       1.3707035
    12   6 C       13   8 O                                       1.2196424
    10   6 C       14   6 C                                       1.4839992
     9   6 C       15  35 Br                                      1.8997918 (max)
     1   6 C       16   1 H                                       1.0861579
     1   6 C       17   1 H                                       1.0886076
     1   6 C       18   1 H                                       1.0868969
     2   6 C       19   1 H                                       1.0903208
     2   6 C       20   1 H                                       1.0930726
     5   6 C       21   1 H                                       1.0843485
     5   6 C       22   1 H                                       1.0861596
     5   6 C       23   1 H                                       1.0876648
    11   7 N       24   1 H                                       1.0153097 (min)
    14   6 C       25   1 H                                       1.0884271
    14   6 C       26   1 H                                       1.0892798
    14   6 C       27   1 H                                       1.0845186

 * 6 distinct bonds (by element types)

   Z      Z             #   av. dist./Å        max./Å        min./Å
   1 H    6 C          12     1.0885382     1.0970043     1.0843485
   6 C    6 C           5     1.4844918     1.5364309     1.3553972
   1 H    7 N           1     1.0153097     1.0153097     1.0153097
   6 C    7 N           5     1.3967744     1.4784184     1.3618540
   6 C    8 O           2     1.2177580     1.2196424     1.2158735
   6 C   35 Br          1     1.8997918     1.8997918     1.8997918

           -------------------------------------------------
          |               Frequency Printout                |
           -------------------------------------------------
 projected vibrational frequencies (cm⁻¹)
eigval :       -0.00    -0.00    -0.00     0.00     0.00     0.00
eigval :      -21.84    38.86    42.81    69.87    83.33   136.17
eigval :      157.35   173.20   201.83   223.96   227.00   251.32
eigval :      265.43   285.25   298.03   342.15   408.15   430.98
eigval :      451.90   512.77   563.81   590.26   619.40   638.47
eigval :      649.16   673.67   690.00   772.64   815.92   879.04
eigval :      991.00  1002.53  1012.13  1020.99  1037.06  1048.28
eigval :     1081.60  1093.77  1127.93  1151.03  1183.34  1198.47
eigval :     1216.93  1267.63  1300.02  1305.89  1345.10  1365.02
eigval :     1387.69  1405.21  1415.90  1418.52  1423.74  1451.53
eigval :     1472.66  1481.91  1489.96  1498.44  1509.51  1594.23
eigval :     1648.77  1689.54  2922.81  2967.57  2997.91  3017.64
eigval :     3018.56  3034.23  3039.56  3039.75  3049.41  3056.04
eigval :     3074.47  3080.50  3361.05
 reduced masses (amu)
   1: 13.90   2: 34.87   3: 31.03   4: 21.31   5: 33.02   6: 50.49   7:  1.91   8: 10.69
   9: 20.39  10: 13.46  11: 17.58  12: 34.27  13: 12.30  14:  9.73  15: 10.00  16: 15.95
  17: 18.85  18: 14.64  19: 17.11  20: 10.70  21: 11.00  22: 15.61  23: 12.68  24: 10.62
  25: 12.18  26: 10.68  27: 14.42  28:  9.90  29:  3.32  30: 11.74  31: 12.64  32: 12.07
  33: 12.51  34: 10.59  35:  3.59  36:  7.88  37:  5.61  38:  6.29  39:  4.61  40:  4.81
  41:  5.34  42: 10.15  43:  7.44  44:  9.79  45:  9.98  46:  8.47  47:  7.86  48:  8.98
  49:  8.35  50:  3.25  51: 10.33  52:  6.40  53:  4.37  54:  3.99  55:  3.17  56:  3.31
  57:  4.60  58:  5.76  59:  2.76  60:  5.00  61:  1.70  62:  1.76  63:  1.61  64:  1.56
  65:  1.59  66: 11.81  67: 13.22  68: 13.28  69:  1.75  70:  1.83  71:  1.64  72:  1.90
  73:  1.85  74:  1.80  75:  1.73  76:  1.52  77:  1.68  78:  1.56  79:  1.76  80:  1.67
  81:  1.85
 IR intensities (km·mol⁻¹)
   1:  1.33   2:  0.07   3:  0.82   4:  0.11   5:  0.00   6:  0.59   7:  1.73   8:  3.97
   9:  0.07  10:  8.30  11:  1.34  12:  0.79  13:  6.88  14:  0.98  15:  1.27  16:  1.47
  17:  1.83  18:  2.14  19:  9.46  20:  5.41  21:  2.67  22:  0.38  23: 20.25  24: 19.51
  25:  2.08  26:  0.16  27: 14.88  28:  4.14  29:103.34  30: 15.55  31:  8.03  32:  8.75
  33: 96.00  34: 30.35  35: 11.91  36:  2.49  37: 18.19  38:  9.92  39: 10.39  40:  5.43
  41: 30.21  42: 19.56  43: 14.86  44: 11.99  45: 10.74  46: 11.20  47: 14.61  48: 39.50
  49: 15.51  50: 15.10  51:293.40  52: 92.50  53:  7.04  54: 14.72  55: 80.00  56: 19.63
  57: 74.25  58:133.40  59: 52.22  60: 56.48  61:  4.02  62:  2.15  63: 17.09  64:  9.66
  65:  8.78  66:440.33  67:******  68:338.79  69: 24.14  70: 52.04  71: 24.98  72:  0.24
  73:110.86  74: 44.62  75: 55.79  76:  8.21  77: 43.19  78: 27.64  79:  3.80  80: 18.36
  81:238.17
 Raman intensities (Ä⁴*amu⁻¹)
   1:  0.00   2:  0.00   3:  0.00   4:  0.00   5:  0.00   6:  0.00   7:  0.00   8:  0.00
   9:  0.00  10:  0.00  11:  0.00  12:  0.00  13:  0.00  14:  0.00  15:  0.00  16:  0.00
  17:  0.00  18:  0.00  19:  0.00  20:  0.00  21:  0.00  22:  0.00  23:  0.00  24:  0.00
  25:  0.00  26:  0.00  27:  0.00  28:  0.00  29:  0.00  30:  0.00  31:  0.00  32:  0.00
  33:  0.00  34:  0.00  35:  0.00  36:  0.00  37:  0.00  38:  0.00  39:  0.00  40:  0.00
  41:  0.00  42:  0.00  43:  0.00  44:  0.00  45:  0.00  46:  0.00  47:  0.00  48:  0.00
  49:  0.00  50:  0.00  51:  0.00  52:  0.00  53:  0.00  54:  0.00  55:  0.00  56:  0.00
  57:  0.00  58:  0.00  59:  0.00  60:  0.00  61:  0.00  62:  0.00  63:  0.00  64:  0.00
  65:  0.00  66:  0.00  67:  0.00  68:  0.00  69:  0.00  70:  0.00  71:  0.00  72:  0.00
  73:  0.00  74:  0.00  75:  0.00  76:  0.00  77:  0.00  78:  0.00  79:  0.00  80:  0.00
  81:  0.00
 output can be read by thermo (or use thermo option).
 writing <g98.out> molden fake output.
 recommended (thermochemical) frequency scaling factor: 1.0
           -------------------------------------------------
          |             Thermodynamic Functions             |
           -------------------------------------------------

Molecule has no symmetry elements
It seems to be the C1 point group
c1  symmetry found (for desy threshold:  0.10E+00) used in thermo
 inverting freq            1   21.8353059873073     

          ...................................................
          :                      SETUP                      :
          :.................................................:
          :  # frequencies                          75      :
          :  # imaginary freq.                       0      :
          :  linear?                             false      :
          :  only rotor calc.                    false      :
          :  symmetry                               c1      :
          :  rotational number                       1      :
          :  scaling factor                  1.0000000      :
          :  rotor cutoff                    0.0000000 cm⁻¹ :
          :  imag. cutoff                 -100.0000000 cm⁻¹ :
          :.................................................:

    mode    ω/cm⁻¹     T·S(HO)/kcal·mol⁻¹    T·S(FR)/kcal·mol⁻¹   T·S(vib)
   ------------------------------------------------------------------------
       1     21.84    -1.92601 (100.00%)    -1.30180 (  0.00%)    -1.92601
       2     38.86    -1.58513 (100.00%)    -1.13114 (  0.00%)    -1.58513
       3     42.81    -1.52793 (100.00%)    -1.10246 (  0.00%)    -1.52793
       4     69.87    -1.23945 (100.00%)    -0.95739 (  0.00%)    -1.23945
       5     83.33    -1.13620 (100.00%)    -0.90518 (  0.00%)    -1.13620
       6    136.17    -0.85179 (100.00%)    -0.75971 (  0.00%)    -0.85179
       7    157.35    -0.76964 (100.00%)    -0.71690 (  0.00%)    -0.76964
       8    173.20    -0.71570 (100.00%)    -0.68847 (  0.00%)    -0.71570
       9    201.83    -0.63099 (100.00%)    -0.64316 (  0.00%)    -0.63099
      10    223.96    -0.57448 (100.00%)    -0.61233 (  0.00%)    -0.57448
      11    227.00    -0.56724 (100.00%)    -0.60834 (  0.00%)    -0.56724
      12    251.32    -0.51321 (100.00%)    -0.57819 (  0.00%)    -0.51321
      13    265.43    -0.48474 (100.00%)    -0.56202 (  0.00%)    -0.48474
      14    285.25    -0.44782 (100.00%)    -0.54068 (  0.00%)    -0.44782
      15    298.03    -0.42574 (100.00%)    -0.52769 (  0.00%)    -0.42574
   ------------------------------------------------------------------------

   temp. (K)  partition function   enthalpy   heat capacity  entropy
                                   cal/mol     cal/K/mol   cal/K/mol   J/K/mol
 298.15  VIB  0.958E+06             7918.953     49.190     53.929
         ROT  0.296E+07              888.752      2.981     32.594
         INT  0.284E+13             8807.705     52.171     86.523
         TR   0.408E+28             1481.254      4.968     42.560
         TOT                       10288.9591    57.1394   129.0823   540.0806

       T/K    H(0)-H(T)+PV         H(T)/Eh          T*S/Eh         G(T)/Eh
   ------------------------------------------------------------------------
    298.15    0.163965E-01    0.227834E+00    0.613312E-01    0.166503E+00
   ------------------------------------------------------------------------

         :::::::::::::::::::::::::::::::::::::::::::::::::::::
         ::                  THERMODYNAMIC                  ::
         :::::::::::::::::::::::::::::::::::::::::::::::::::::
         :: total free energy         -43.876177340697 Eh   ::
         ::.................................................::
         :: total energy              -44.042680322399 Eh   ::
         :: zero point energy           0.211437671215 Eh   ::
         :: G(RRHO) w/o ZPVE           -0.044934689514 Eh   ::
         :: G(RRHO) contrib.            0.166502981701 Eh   ::
         :::::::::::::::::::::::::::::::::::::::::::::::::::::
imag cut-off (cm-1) :    5.00
 found            1  significant imaginary frequency
 writing imag mode distorted coords to xtbhess.coord
 for further optimization.

optimized geometry written to: xtbopt.coord


           -------------------------------------------------
          | TOTAL ENERGY              -44.042680322399 Eh   |
          | TOTAL ENTHALPY            -43.814846151138 Eh   |
          | TOTAL FREE ENERGY         -43.876177340697 Eh   |
          | GRADIENT NORM               0.000196263578 Eh/α |
          | HOMO-LUMO GAP               3.330457019630 eV   |
           -------------------------------------------------

------------------------------------------------------------------------
 * finished run on 2025/04/11 at 11:18:36.946     
------------------------------------------------------------------------
 total:
 * wall-time:     0 d,  0 h,  0 min,  4.959 sec
 *  cpu-time:     0 d,  0 h,  0 min,  4.834 sec
 * ratio c/w:     0.975 speedup
 SCF:
 * wall-time:     0 d,  0 h,  0 min,  0.044 sec
 *  cpu-time:     0 d,  0 h,  0 min,  0.039 sec
 * ratio c/w:     0.891 speedup
 analytical hessian:
 * wall-time:     0 d,  0 h,  0 min,  4.144 sec
 *  cpu-time:     0 d,  0 h,  0 min,  4.103 sec
 * ratio c/w:     0.990 speedup

