27
 energy: -44.039934572964 gnorm: 0.040940005039 xtb: 6.7.1 (edcfbbe)
C           -2.64502031428954       -1.79585386938821        1.71139130643374
C           -3.39797104914784       -0.78177096433916        0.85584095885045
C           -2.76712082455867       -0.42454146502628       -0.49602840669705
H           -3.38033521770344        0.36893726944818       -0.92716816843936
C           -2.76373999677079       -1.56504199500613       -1.50891163576654
N           -1.43642216885738        0.24881161304164       -0.30791501091107
C           -0.23536447990841       -0.49111350082094       -0.24000745807153
O           -0.23492831522226       -1.71743936628617       -0.31335691609462
C            0.96209183547209        0.30477436656266       -0.08239666487307
C            0.93286103433975        1.65482940431632        0.07734244808916
N           -0.29107649952068        2.26101907446893        0.05811389624466
C           -1.49939684597193        1.62076098549433       -0.10753684627410
O           -2.55048516838194        2.26317154878220       -0.08206148644283
C            2.11787165446886        2.52740404044746        0.29207744980306
Br           2.61085868602576       -0.62908126779904       -0.04061065592326
H           -2.50579960847796       -2.74849803781666        1.19272034269936
H           -1.65995770856513       -1.42118805215615        2.00610920269778
H           -3.20906690891885       -1.99489207039058        2.62815327040242
H           -4.40369958043704       -1.15914446207445        0.63315186224946
H           -3.53159951992490        0.14490347392503        1.42616140428792
H           -2.42002136264751       -2.51249443004715       -1.09713690834526
H           -3.79662432662622       -1.69262730681860       -1.84842019146492
H           -2.15424811122446       -1.32190877664662       -2.38336468988801
H           -0.34861543325120        3.26292417110871        0.19547855004582
H            2.86097836386877        2.35942133845585       -0.49196288760150
H            2.59123083619540        2.28430926990879        1.24921642890594
H            1.83751442729628        3.58210553235886        0.29787790239182
27
 energy: -44.041981217529 gnorm: 0.013123145036 xtb: 6.7.1 (edcfbbe)
C           -2.64130577565277       -1.79050364412205        1.70438142631112
C           -3.39733674363340       -0.77788013437116        0.85515320866516
C           -2.76458065071118       -0.41124037789238       -0.49356260837115
H           -3.37335265920520        0.39387841902543       -0.91877457636529
C           -2.75208052912805       -1.55460904534949       -1.49968168298052
N           -1.43964753085896        0.24329266115037       -0.30257360989505
C           -0.24778021112147       -0.49318429895726       -0.24061002633649
O           -0.23977291030497       -1.70870975216238       -0.31973723306760
C            0.94678317279992        0.30701624932099       -0.07779661995635
C            0.91970478524259        1.65515146931108        0.08114065960069
N           -0.30301426793046        2.25524065081489        0.05913601215544
C           -1.50133148812371        1.60703438435449       -0.10809355777527
O           -2.54613563705191        2.23817785313549       -0.09093485675998
C            2.11012047354230        2.51872968601251        0.28961473622776
Br           2.58715757413377       -0.64652824756537       -0.04356281448163
H           -2.50030083637935       -2.73103416132516        1.17624626678518
H           -1.65925723808708       -1.41580247585286        1.99101064150631
H           -3.20295941315870       -1.99214434919140        2.61593921159604
H           -4.39619222981509       -1.16485265946784        0.63706448236663
H           -3.52296336958091        0.14646519846893        1.42682212917371
H           -2.38046259599638       -2.48295907541571       -1.07635773867308
H           -3.77661265554670       -1.70835677370472       -1.83906661959164
H           -2.14117928451627       -1.30433308433917       -2.36482908757558
H           -0.36623620739358        3.25911769024589        0.19364046311596
H            2.84959951398861        2.34258918044616       -0.49079995434997
H            2.58581496559692        2.27352731356766        1.23986540618575
H            1.83523514615281        3.56969384756585        0.29312343879830
27
 energy: -44.042398442435 gnorm: 0.005550561398 xtb: 6.7.1 (edcfbbe)
C           -2.63362559468707       -1.78431588572676        1.69697516553036
C           -3.40058996096325       -0.77251034439541        0.85578792027761
C           -2.76445029307679       -0.40355924224748       -0.49181325114384
H           -3.37682741845875        0.40123366770722       -0.91699199655994
C           -2.73892775679540       -1.54794361819834       -1.49505155275624
N           -1.44660749132027        0.24153015581424       -0.29438723654617
C           -0.26160796310617       -0.49599048934321       -0.23825703947277
O           -0.24418759472196       -1.70761004198246       -0.32248558245953
C            0.93264155241828        0.30800531251750       -0.07290265765088
C            0.90994878679059        1.65493053512155        0.08410278324900
N           -0.31150374672832        2.25415696149908        0.06206960085406
C           -1.50589013922372        1.60309860833878       -0.10635147201966
O           -2.54844214518211        2.23263994001196       -0.09402357817335
C            2.10643571013858        2.50942805229056        0.28730959706840
Br           2.56737218204177       -0.65968432904925       -0.04286856333730
H           -2.48981591535105       -2.71761039961531        1.16108487833243
H           -1.65379314814798       -1.40594185683460        1.97970139299289
H           -3.19135154314908       -1.99217165009093        2.60622151786327
H           -4.39391459397681       -1.16710668582923        0.63861866553927
H           -3.52612554193356        0.15013821291374        1.42824121314005
H           -2.33826811899299       -2.46005104291457       -1.06383019799996
H           -3.75838789753174       -1.72889475026664       -1.82795482819553
H           -2.13373781300614       -1.28600413818447       -2.35882572991741
H           -0.37753212570265        3.25892771668397        0.19395921610263
H            2.84035297247207        2.32255602436090       -0.49404621335932
H            2.58289430576824        2.26057741104423        1.23423100133310
H            1.83785468968710        3.55994840007767        0.28824404361731
27
 energy: -44.042495283052 gnorm: 0.003319122175 xtb: 6.7.1 (edcfbbe)
C           -2.62903714114199       -1.78052729885005        1.69438076256198
C           -3.40389431875992       -0.77204414113623        0.85518787057872
C           -2.76643915185365       -0.40053300335027       -0.49206478769797
H           -3.38206003657705        0.40131011679732       -0.91918399850399
C           -2.73314005623519       -1.54576306275332       -1.49453506031401
N           -1.45164571838014        0.24237097327320       -0.28928381286462
C           -0.26900959281356       -0.49646817828816       -0.23532003365447
O           -0.24492697808498       -1.70802254050051       -0.32068567542119
C            0.92589656792759        0.30805860418546       -0.06798581714816
C            0.90618119352371        1.65465058478862        0.08676749484283
N           -0.31471944078636        2.25557232446267        0.06523357065238
C           -1.50881094951316        1.60470850899965       -0.10439458177523
O           -2.55136012770320        2.23596117528912       -0.09575731991215
C            2.10673192255014        2.50397572068783        0.28577095927913
Br           2.55839029984393       -0.66492342230242       -0.03910661165000
H           -2.48037747226379       -2.71062286554555        1.15435396930134
H           -1.65109390727423       -1.39553202661526        1.97495985033800
H           -3.18274368123964       -1.99474109503091        2.60432477308840
H           -4.39496341980677       -1.17132186750063        0.63913644836941
H           -3.53214275396800        0.14996630213254        1.42758948473843
H           -2.31261617225188       -2.44966282529104       -1.06508279062247
H           -3.75104731267537       -1.74495123405549       -1.81916034176785
H           -2.13777594188763       -1.27305243642993       -2.36218482301389
H           -0.38158379733502        3.26056827739540        0.19483477674908
H            2.83673962737980        2.30961087209502       -0.49752709560165
H            2.58375921334129        2.25343011967163        1.23188452963882
H            1.84360254324593        3.55575894157405        0.28460535611761
27
 energy: -44.042557980089 gnorm: 0.002410600962 xtb: 6.7.1 (edcfbbe)
C           -2.62416097265857       -1.77631738200959        1.69266292015418
C           -3.40825155580931       -0.77361304606930        0.85424964703338
C           -2.76934742521902       -0.39940442234538       -0.49237152800121
H           -3.38700801807570        0.39981338728520       -0.92141533973612
C           -2.72984357315512       -1.54372554797929       -1.49637065660394
N           -1.45622561014855        0.24325205628875       -0.28471860492100
C           -0.27488985760651       -0.49631736735707       -0.23025805237008
O           -0.24423621865443       -1.70845544162365       -0.31505595578808
C            0.92103045873166        0.30760813151622       -0.06155303054973
C            0.90398434558303        1.65420022593011        0.08984534763295
N           -0.31669029808360        2.25725696801326        0.06896513457594
C           -1.51095835174964        1.60714754602921       -0.10327201149352
O           -2.55388836623084        2.23995646139590       -0.09862860926256
C            2.10841118657752        2.49904969481326        0.28406274639756
Br           2.55154486228551       -0.66879246014421       -0.03174852375299
H           -2.46656951440306       -2.70397246474333        1.15024425694829
H           -1.64979586389579       -1.38119865513821        1.97330792979382
H           -3.17433785032040       -1.99821089247078        2.60316875207804
H           -4.39683631473105       -1.17915376223730        0.63854596700800
H           -3.54245275158086        0.14801454041850        1.42607324140531
H           -2.28554123360157       -2.43971200713736       -1.07470310702753
H           -3.74795276294471       -1.76272032281802       -1.80629763770498
H           -2.15216862443525       -1.25707897105121       -2.37269291943683
H           -0.38449491805271        3.26235780431902        0.19596150995260
H            2.83460255332270        2.29718527044870       -0.50128595772375
H            2.58645569874783        2.24801688447824        1.22983747105330
H            1.85153437336929        3.55259029589104        0.28020410664747
27
 energy: -44.042594203781 gnorm: 0.002595709977 xtb: 6.7.1 (edcfbbe)
C           -2.62079694757215       -1.77329869964242        1.69278123168630
C           -3.41068981449772       -0.77653717812401        0.85291499525906
C           -2.77143787345745       -0.39947373358304       -0.49285780387865
H           -3.38912555338884        0.39940647145041       -0.92196323437260
C           -2.73022829288245       -1.54174960304391       -1.49927444379252
N           -1.45813135733463        0.24343883210663       -0.28279172760267
C           -0.27724588193866       -0.49621098778715       -0.22561707484361
O           -0.24394459459380       -1.70890832973018       -0.30847146774200
C            0.91950209509072        0.30669059834975       -0.05625704305448
C            0.90380117478309        1.65357354811482        0.09203495618148
N           -0.31685487029335        2.25780226001219        0.07119110725259
C           -1.51128963290347        1.60841572164312       -0.10331868822127
O           -2.55436906105999        2.24175060754503       -0.10202568836141
C            2.11005948243945        2.49659047932351        0.28295885360943
Br           2.54864697501819       -0.67096729201336       -0.02403166666089
H           -2.45348153317803       -2.69926349154741        1.14983087286907
H           -1.65062125707856       -1.36930836815402        1.97640694068357
H           -3.17056284496774       -2.00121574145581        2.60233205664392
H           -4.39687757919640       -1.18792302801441        0.63620238409566
H           -3.55176634065717        0.14475443638641        1.42397518954817
H           -2.26623102227176       -2.43210218870428       -1.08731722130802
H           -3.74986637266490       -1.77512837384829       -1.79351359049494
H           -2.17125496892552       -1.24388824431920       -2.38480996294591
H           -0.38532644120988        3.26301264537037        0.19602069497318
H            2.83437932999102        2.29058157624375       -0.50321424938767
H            2.58899555279096        2.24665235530168        1.22881041402470
H            1.85663102721993        3.55108225182251        0.27676126214802
27
 energy: -44.042631191606 gnorm: 0.002658795493 xtb: 6.7.1 (edcfbbe)
C           -2.61680748931371       -1.76980929833027        1.69410447717049
C           -3.41247059586316       -0.78112258884859        0.85089814676746
C           -2.77324814949856       -0.39997805241423       -0.49339802361905
H           -3.38986560882953        0.40036322060632       -0.92059894606798
C           -2.73311555310049       -1.53850761268847       -1.50383553505366
N           -1.45867180672783        0.24302983887912       -0.28209404825553
C           -0.27818973228491       -0.49663956702962       -0.21961263827576
O           -0.24483925255317       -1.70992170962920       -0.29909860291970
C            0.91947378339570        0.30485354118809       -0.05012547272213
C            0.90472648471480        1.65228701167796        0.09420279612660
N           -0.31584415807408        2.25729789619205        0.07240289619943
C           -1.51044221479135        1.60894910598689       -0.10462805943227
O           -2.55328635936598        2.24254309904159       -0.10714572802264
C            2.11179287835800        2.49486083799830        0.28204229919031
Br           2.54707579818952       -0.67362579668996       -0.01332739666072
H           -2.43469592953963       -2.69325659393313        1.15109222605614
H           -1.65332565224620       -1.35455602681901        1.98507124683416
H           -3.16936476246440       -2.00550639531527        2.60022541997907
H           -4.39486231604812       -1.20093955283689        0.63147349414462
H           -3.56388544359562        0.13946528109853        1.42093401008406
H           -2.24440297048821       -2.42197380053107       -1.10617928291479
H           -3.75538928249101       -1.78854694032498       -1.77548080380752
H           -2.20073383008345       -1.22743190383534       -2.40180889259175
H           -0.38473921718640        3.26273707741901        0.19461044207570
H            2.83530697666420        2.28575909812522       -0.50406462666255
H            2.59154047019331        2.24765272852423        1.22835774351650
H            1.86017733029114        3.54979362619140        0.27273995517003
27
 energy: -44.042653331730 gnorm: 0.001998666732 xtb: 6.7.1 (edcfbbe)
C           -2.61395703051343       -1.76766000044366        1.69592186206521
C           -3.41252325178772       -0.78463824323423        0.84943294689641
C           -2.77371815470813       -0.40014514099499       -0.49366477835265
H           -3.38932686623459        0.40245586406321       -0.91788049984466
C           -2.73655197624022       -1.53548621076341       -1.50742323168267
N           -1.45786488805933        0.24234348135617       -0.28277736988940
C           -0.27767544729115       -0.49763355020496       -0.21577516060845
O           -0.24694795147187       -1.71115686350760       -0.29221190182087
C            0.92041681885895        0.30296931398034       -0.04670415812055
C            0.90589114511583        1.65084025602714        0.09499705939781
N           -0.31439626351734        2.25597425055080        0.07126005417141
C           -1.50918932483019        1.60847861508817       -0.10653357170072
O           -2.55135551334291        2.24244374628942       -0.11117074831458
C            2.11235938646161        2.49446689687842        0.28193923861658
Br           2.54725821321413       -0.67582164490964       -0.00554575445909
H           -2.41931519606103       -2.68833933154562        1.15255754238742
H           -1.65644760107312       -1.34450941676998        1.99504774091887
H           -3.17116918324742       -2.00981948249241        2.59754099112488
H           -4.39155220963553       -1.21108547988461        0.62727781294680
H           -3.57192337638872        0.13503491336370        1.41886567278049
H           -2.23219844483198       -2.41423350501244       -1.12044794945836
H           -3.76025513358076       -1.79564310435433       -1.76285751097864
H           -2.22327154605181       -1.21666328283979       -2.41307061551430
H           -0.38285237802735        3.26169066897795        0.19176307072124
H            2.83676751693522        2.28482171875248       -0.50309207388161
H            2.59199441638432        2.25001807226619        1.22898177904546
H            1.85971763718546        3.54907398306635        0.27032664986248
27
 energy: -44.042665398520 gnorm: 0.001100294375 xtb: 6.7.1 (edcfbbe)
C           -2.61067638444063       -1.76588779326111        1.69801526926890
C           -3.41173569377263       -0.78748413971339        0.84859712920906
C           -2.77360999345861       -0.39951070520341       -0.49356690115165
H           -3.38935117545127        0.40532842402507       -0.91373632488361
C           -2.73973945573431       -1.53186759929988       -1.51060010746740
N           -1.45702076324305        0.24175977906754       -0.28420978618649
C           -0.27735368251290       -0.49932607056509       -0.21317033129194
O           -0.25091253654419       -1.71280538753966       -0.28641059317471
C            0.92089573135345        0.30065226041676       -0.04486932316750
C            0.90667066965633        1.64884765561129        0.09470024842993
N           -0.31287112103489        2.25417570235690        0.06720816510025
C           -1.50814821343502        1.60764074194163       -0.10968100128579
O           -2.54900443636527        2.24285362602185       -0.11539889703459
C            2.11196300569643        2.49392455863350        0.28272682046023
Br           2.54737938851700       -0.67895483360805        0.00150300250549
H           -2.40184326264670       -2.68200356786899        1.15273340564895
H           -1.66032968843723       -1.33485443345528        2.00781336960436
H           -3.17445435268989       -2.01667358225652        2.59306630203150
H           -4.38702580683850       -1.22051635853832        0.62382937003216
H           -3.57822644574047        0.13087101799197        1.41772075261939
H           -2.22115232374848       -2.40578593575872       -1.13254344989198
H           -3.76403443583032       -1.80170017477687       -1.75146102308751
H           -2.24336278463099       -1.20582009503305       -2.42160914234054
H           -0.37967155396733        3.26028918175660        0.18634784528730
H            2.83879084200377        2.28458167020568       -0.50004523051621
H            2.58994732591929        2.25221989181085        1.23108305906126
H            1.85679054463733        3.54782269074138        0.26871446852969
27
 energy: -44.042669044162 gnorm: 0.000454635331 xtb: 6.7.1 (edcfbbe)
C           -2.60959968509439       -1.76589245682977        1.69818674523994
C           -3.41157083517883       -0.78739749597493        0.84928796470993
C           -2.77372274468580       -0.39905815844436       -0.49317639303597
H           -3.39053123838052        0.40527743423833       -0.91294425509553
C           -2.73954166862340       -1.53123131984797       -1.51071268753933
N           -1.45766164927055        0.24204085009352       -0.28428488737103
C           -0.27802587673798       -0.49962339056917       -0.21335067653122
O           -0.25165415161924       -1.71307019161099       -0.28587089272389
C            0.92006933611027        0.30039927479521       -0.04527217726457
C            0.90621753621705        1.64856188411756        0.09398402486745
N           -0.31298401621587        2.25436900248871        0.06470963586643
C           -1.50862962210331        1.60785653476109       -0.11090912071143
O           -2.54917824103136        2.24387487756227       -0.11646291797855
C            2.11160349791034        2.49320748966834        0.28343034137136
Br           2.54660547643865       -0.67983754015363        0.00240089710518
H           -2.39748800476165       -2.67995907072373        1.15103801549402
H           -1.66108385862004       -1.33302243598708        2.01067636312582
H           -3.17438975160617       -2.02027567552594        2.59143819820246
H           -4.38659767717190       -1.22074739979234        0.62485053467796
H           -3.57785643863326        0.13073473684700        1.41860186708884
H           -2.22013871374853       -2.40469660415743       -1.13287937261811
H           -3.76334556924849       -1.80229477409525       -1.75114955602193
H           -2.24371433514901       -1.20394583278003       -2.42155562304024
H           -0.37888420187168        3.26057504377463        0.18362952000251
H            2.83945837850652        2.28339122580467       -0.49830885384382
H            2.58794725941202        2.25136307817352        1.23254923063957
H            1.85661019241803        3.54717743787042        0.26885117169271
27
 energy: -44.042672159066 gnorm: 0.000532226321 xtb: 6.7.1 (edcfbbe)
C           -2.60721316453598       -1.76597222574906        1.69845248618260
C           -3.41116988866246       -0.78797514170952        0.85045637114318
C           -2.77450625417603       -0.39850175578654       -0.49253574062353
H           -3.39273845118852        0.40522403522726       -0.91146117538332
C           -2.74028001529713       -1.53009930340057       -1.51109191808618
N           -1.45885757348873        0.24274433165651       -0.28468531202375
C           -0.27922894381278       -0.49972057661317       -0.21313047044062
O           -0.25308558195412       -1.71323395205863       -0.28437777150667
C            0.91882930105154        0.30001737982013       -0.04538502952134
C            0.90569904804897        1.64828369811986        0.09277202685281
N           -0.31295115123468        2.25508837391560        0.06011363246510
C           -1.50921647881842        1.60860958730346       -0.11359949823077
O           -2.54935655051459        2.24558505149640       -0.11924220808677
C            2.11139365930609        2.49196205772233        0.28471613159572
Br           2.54513078209706       -0.68109253747855        0.00568626504841
H           -2.38739081806257       -2.67609877278405        1.14769454602797
H           -1.66262698038110       -1.32869053068683        2.01702064389048
H           -3.17428828502920       -2.02794264263049        2.58808273652173
H           -4.38596728690797       -1.22206973983046        0.62663192702322
H           -3.57766213079826        0.12988513599270        1.42015171162977
H           -2.21852828509579       -2.40295069266096       -1.13468894117354
H           -3.76382794497405       -1.80313486293356       -1.75020563686389
H           -2.24609494487641       -1.20077317868310       -2.42229074260317
H           -0.37751038597637        3.26144750760364        0.17821932388418
H            2.84129347561980        2.28083682150666       -0.49479545392439
H            2.58453310796759        2.25011541497434        1.23549210475681
H            1.85753513895502        3.54623304136927        0.26875708775448
27
 energy: -44.042673474843 gnorm: 0.000781717001 xtb: 6.7.1 (edcfbbe)
C           -2.60575282389596       -1.76645702710453        1.69838933024658
C           -3.41041239427740       -0.78817536380415        0.85144446406190
C           -2.77499848806788       -0.39836886207242       -0.49206947279873
H           -3.39378233411156        0.40521569755053       -0.91039614208221
C           -2.74108929909280       -1.52973263315486       -1.51093779800137
N           -1.45936937350496        0.24323140561220       -0.28530748745245
C           -0.27975854619331       -0.49944457020822       -0.21361948931271
O           -0.25385508803091       -1.71296875345528       -0.28456746313980
C            0.91826722400918        0.30006845896035       -0.04541218169110
C            0.90538829569204        1.64843200124558        0.09205520523359
N           -0.31296607566427        2.25573050514545        0.05718120874086
C           -1.50945811978434        1.60915545834731       -0.11546489998038
O           -2.54953369783524        2.24631939955505       -0.12139061702264
C            2.11121711438114        2.49151949299935        0.28566037130463
Br           2.54424213617740       -0.68150762983991        0.00792154250319
H           -2.38192996550531       -2.67414878402355        1.14561059126023
H           -1.66329346811248       -1.32754254196320        2.02055797211593
H           -3.17394709897280       -2.03291883318742        2.58583384615197
H           -4.38555482422070       -1.22194096540575        0.62840917155123
H           -3.57627611821923        0.12952290307012        1.42162720147644
H           -2.22226591639395       -2.40363000880954       -1.13416065640781
H           -3.76435151285319       -1.80050819440043       -1.75226669576398
H           -2.24456917039710       -1.20148972027752       -2.42098552596104
H           -0.37702543139106        3.26219139578108        0.17453031560538
H            2.84262504696786        2.27944476370039       -0.49217150617614
H            2.58213619301275        2.24980147493552        1.23760965599864
H            1.85822713354501        3.54597745450651        0.26867615584833
27
 energy: -44.042674986273 gnorm: 0.000436663141 xtb: 6.7.1 (edcfbbe)
C           -2.60308224130537       -1.76640331972061        1.69827129262214
C           -3.40966127842211       -0.78902345270664        0.85224523760554
C           -2.77597447520562       -0.39805637641188       -0.49167150599288
H           -3.39541485527920        0.40554402536240       -0.90889814689231
C           -2.74239102036859       -1.52880850687308       -1.51112843284555
N           -1.46017358308513        0.24385743196935       -0.28600635046225
C           -0.28099008289952       -0.49909965865370       -0.21349531262012
O           -0.25529883077256       -1.71260884543894       -0.28472103378012
C            0.91728798217264        0.29985941017683       -0.04415391263240
C            0.90495981913917        1.64839243212298        0.09187127454154
N           -0.31297926492705        2.25639820396408        0.05433974319820
C           -1.50961034646297        1.61004077446338       -0.11796772593701
O           -2.54954007605206        2.24740368227584       -0.12521360322995
C            2.11122965933310        2.49051556989090        0.28669959271905
Br           2.54236128151943       -0.68276914051600        0.01261505684866
H           -2.37217449392764       -2.67070784307425        1.14286959567025
H           -1.66414278698035       -1.32371524821068        2.02571252059138
H           -3.17307972180322       -2.03945932033842        2.58252682369508
H           -4.38452295246962       -1.22394056138091        0.62978146777400
H           -3.57644479601860        0.12831392190722        1.42289183952711
H           -2.22266910499453       -2.40301958828078       -1.13499956265840
H           -3.76624666745034       -1.79964995522824       -1.75198720035702
H           -2.24630033733723       -1.19953861785431       -2.42156930332483
H           -0.37680064521100        3.26305031838228        0.17011450636185
H            2.84417707009415        2.27633172322984       -0.48908359678007
H            2.57970352577316        2.24961803101712        1.24008786076362
H            1.85969162020197        3.54525143362884        0.26762597190304
27
 energy: -44.042676011303 gnorm: 0.000198450672 xtb: 6.7.1 (edcfbbe)
C           -2.60153342203615       -1.76633046720541        1.69826434826785
C           -3.40916663441127       -0.78964817823569        0.85243846343516
C           -2.77635333049856       -0.39794877694598       -0.49157169850887
H           -3.39567589774619        0.40602971335072       -0.90816100660151
C           -2.74370288507798       -1.52832809930630       -1.51134450899641
N           -1.46023695295807        0.24395250063609       -0.28627433499784
C           -0.28132919105146       -0.49902086084098       -0.21329100336375
O           -0.25572467832928       -1.71251384946009       -0.28556785072110
C            0.91713084384507        0.29965795095126       -0.04296298145742
C            0.90491894791997        1.64827314413940        0.09226412244597
N           -0.31291270582147        2.25643652020673        0.05391430624988
C           -1.50946711635127        1.61039644273412       -0.11905041217768
O           -2.54931957159457        2.24777788026728       -0.12745313201123
C            2.11121779550912        2.49034954974614        0.28708290901092
Br           2.54175391193405       -0.68326665548586        0.01559727589580
H           -2.36794331614484       -2.66947917766595        1.14199265225321
H           -1.66388276651323       -1.32199784915142        2.02739814966196
H           -3.17208201991520       -2.04164226453064        2.58147804243111
H           -4.38367545398642       -1.22549325085101        0.63004010039797
H           -3.57676725098592        0.12741848057609        1.42330031669143