17
 energy: -346.944117608674 gnorm: 0.001181244550 xtb: 6.7.1 (edcfbbe)
C           -3.34418438261904       -0.03343041903461        0.00506698732796
C           -2.01778838364683        0.65256207456533        0.32422275239646
C           -0.86108995551294       -0.21069172725297       -0.12596956477226
O            0.37561881962539        0.49215367508864        0.20746670911622
C            1.52094066150564       -0.13877292932407       -0.10362401755888
O            1.55268096981627       -1.23538799045759       -0.64082969845021
C            2.73487588988749        0.64089883465125        0.28744007490512
H           -4.18763222465753        0.57623476743151        0.34060025341786
H           -3.45383882825382       -0.19656834308293       -1.07241008403459
H           -3.41270594913677       -1.00673017996578        0.50265566237307
H           -1.93636327325389        0.83423708250373        1.40178784371014
H           -1.96384164848151        1.62416833143596       -0.17972480284847
H           -0.85938028451293       -1.17872445768187        0.38591905809025
H           -0.88298878695453       -0.38131335507032       -1.20741648696884
H            3.37090663402915        0.76412683308247       -0.59356158599345
H            3.29854596385688        0.05653891941081        1.02092740859590
H            2.48449438645088        1.61459208927454        0.70733580095928
17
 energy: -346.944120881639 gnorm: 0.000866799971 xtb: 6.7.1 (edcfbbe)
C           -3.34535644673667       -0.03254217712092        0.00538990820489
C           -2.01772715597127        0.65113130232956        0.32355551088974
C           -0.86126320479436       -0.21238913623364       -0.12679910461381
O            0.37545103513537        0.49111379358399        0.20846957310873
C            1.52176897301380       -0.13978268096615       -0.10189340648971
O            1.55438841816303       -1.23462692819044       -0.64323611648608
C            2.73482534560609        0.64177570640405        0.28785861418350
H           -4.18703383730031        0.57992965803344        0.34010603407782
H           -3.45596561799417       -0.19718360821394       -1.07161360506816
H           -3.41645520174350       -1.00473367374351        0.50453831279989
H           -1.93522683037754        0.83262419194043        1.40121387721045
H           -1.96288149394325        1.62300343978631       -0.17996052393277
H           -0.85880854490864       -1.18052392890572        0.38492290344734
H           -0.88169250863633       -0.38281428521914       -1.20839310165241
H            3.37047935489677        0.76551974924270       -0.59321309198091
H            3.29972583172490        0.05796954044293        1.02112927652931
H            2.48402148474326        1.61542226332832        0.70781116755890
17
 energy: -346.944120881639 gnorm: 0.000866799971 xtb: 6.7.1 (edcfbbe)
C           -3.34535644673667       -0.03254217712092        0.00538990820489
C           -2.01772715597127        0.65113130232956        0.32355551088974
C           -0.86126320479436       -0.21238913623364       -0.12679910461381
O            0.37545103513537        0.49111379358399        0.20846957310873
C            1.52176897301380       -0.13978268096615       -0.10189340648971
O            1.55438841816303       -1.23462692819044       -0.64323611648608
C            2.73482534560609        0.64177570640405        0.28785861418350
H           -4.18703383730031        0.57992965803344        0.34010603407782
H           -3.45596561799417       -0.19718360821394       -1.07161360506816
H           -3.41645520174350       -1.00473367374351        0.50453831279989
H           -1.93522683037754        0.83262419194043        1.40121387721045
H           -1.96288149394325        1.62300343978631       -0.17996052393277
H           -0.85880854490864       -1.18052392890572        0.38492290344734
H           -0.88169250863633       -0.38281428521914       -1.20839310165241
H            3.37047935489677        0.76551974924270       -0.59321309198091
H            3.29972583172490        0.05796954044293        1.02112927652931
H            2.48402148474326        1.61542226332832        0.70781116755890
