      -----------------------------------------------------------      
     |                   =====================                   |     
     |                           x T B                           |     
     |                   =====================                   |     
     |                         S. Grimme                         |     
     |          Mulliken Center for Theoretical Chemistry        |     
     |                    University of Bonn                     |     
      -----------------------------------------------------------      

   * xtb version 6.7.1 (edcfbbe) compiled by 'albert@albert-system' on 2024-07-22

   xtb is free software: you can redistribute it and/or modify it under
   the terms of the GNU Lesser General Public License as published by
   the Free Software Foundation, either version 3 of the License, or
   (at your option) any later version.
   
   xtb is distributed in the hope that it will be useful,
   but WITHOUT ANY WARRANTY; without even the implied warranty of
   MERCHANTABILITY or FITNESS FOR A PARTICULAR PURPOSE.  See the
   GNU Lesser General Public License for more details.
   
   Cite this work as:
   * C. Bannwarth, E. Caldeweyher, S. Ehlert, A. Hansen, P. Pracht,
     J. Seibert, S. Spicher, S. Grimme, WIREs Comput. Mol. Sci., 2020, 11,
     e01493. DOI: 10.1002/wcms.1493
   
   for GFN2-xTB:
   * C. Bannwarth, S. Ehlert and S. Grimme., J. Chem. Theory Comput., 2019,
     15, 1652-1671. DOI: 10.1021/acs.jctc.8b01176
   for GFN1-xTB:
   * S. Grimme, C. Bannwarth, P. Shushkov, J. Chem. Theory Comput., 2017,
     13, 1989-2009. DOI: 10.1021/acs.jctc.7b00118
   for GFN0-xTB:
   * P. Pracht, E. Caldeweyher, S. Ehlert, S. Grimme, ChemRxiv, 2019, preprint.
     DOI: 10.26434/chemrxiv.8326202.v1
   for GFN-FF:
   * S. Spicher and S. Grimme, Angew. Chem. Int. Ed., 2020, 59, 15665-15673.
     DOI: 10.1002/anie.202004239
   
   for ALPB and GBSA implicit solvation:
   * S. Ehlert, M. Stahn, S. Spicher, S. Grimme, J. Chem. Theory Comput.,
     2021, 17, 4250-4261. DOI: 10.1021/acs.jctc.1c00471
   
   for ddCOSMO and CPCM-X implicit solvation:
   * M. Stahn, S. Ehlert, S. Grimme, J. Phys. Chem. A,
     2023, XX, XXXX-XXXX. DOI: 10.1021/acs.jpca.3c04382
   
   for DFT-D4:
   * E. Caldeweyher, C. Bannwarth and S. Grimme, J. Chem. Phys., 2017,
     147, 034112. DOI: 10.1063/1.4993215
   * E. Caldeweyher, S. Ehlert, A. Hansen, H. Neugebauer, S. Spicher,
     C. Bannwarth and S. Grimme, J. Chem. Phys., 2019, 150, 154122.
     DOI: 10.1063/1.5090222
   * E. Caldeweyher, J.-M. Mewes, S. Ehlert and S. Grimme, Phys. Chem. Chem. Phys.
     2020, 22, 8499-8512. DOI: 10.1039/D0CP00502A
   
   for sTDA-xTB:
   * S. Grimme and C. Bannwarth, J. Chem. Phys., 2016, 145, 054103.
     DOI: 10.1063/1.4959605
   
   in the mass-spec context:
   * V. Asgeirsson, C. Bauer and S. Grimme, Chem. Sci., 2017, 8, 4879.
     DOI: 10.1039/c7sc00601b
   * J. Koopman and S. Grimme, ACS Omega 2019, 4, 12, 15120-15133.
     DOI: 10.1021/acsomega.9b02011
   
   for metadynamics refer to:
   * S. Grimme, J. Chem. Theory Comput., 2019, 155, 2847-2862
     DOI: 10.1021/acs.jctc.9b00143
   
   for SPH calculations refer to:
   * S. Spicher and S. Grimme, J. Chem. Theory Comput., 2021, 17, 1701-1714
     DOI: 10.1021/acs.jctc.0c01306
   
   for ONIOM refer to:
   * C. Plett, A. Katbashev, S. Ehlert, S. Grimme, M. Bursch,
     Phys. Chem. Chem. Phys., 2023, 25, 17860-17868. DOI: 10.1039/D3CP02178E
   
   for DIPRO refer to:
   * J. Kohn, N. Gildemeister, S. Grimme, D. Fazzi, A. Hansen,
     J. Chem. Phys., 2023, just accepted.
   
   for PTB refer to:
   * S. Grimme, M. Mueller, A. Hansen, J. Chem. Phys., 2023, 158, 124111.
     DOI: 10.1063/5.0137838
   
   with help from (in alphabetical order)
   P. Atkinson, C. Bannwarth, F. Bohle, G. Brandenburg, E. Caldeweyher
   M. Checinski, S. Dohm, S. Ehlert, S. Ehrlich, I. Gerasimov, C. Hölzer
   A. Katbashev, J. Kohn, J. Koopman, C. Lavigne, S. Lehtola, F. März, M. Müller,
   F. Musil, H. Neugebauer, J. Pisarek, C. Plett, P. Pracht, F. Pultar,
   J. Seibert, P. Shushkov, S. Spicher, M. Stahn, M. Steiner, T. Strunk,
   J. Stückrath, T. Rose, and J. Unsleber
   
 * started run on 2025/04/07 at 08:21:06.651     
   ID    Z sym.   atoms
    1    6 C      1-6
    2    1 H      7-16

           -------------------------------------------------
          |                Calculation Setup                |
           -------------------------------------------------

          program call               : /srv/scratch/z5358697/.xtb/bin/xtb solv.coord --gfn2 --sp --chrg 0 --norestart --parallel 1 --alpb water reference -I xtb_sp-xcontrol-inp
          hostname                   : k151
          coordinate file            : solv.coord
          omp threads                :                     1


           -------------------------------------------------
          |                 G F N 2 - x T B                 |
           -------------------------------------------------

        Reference                      10.1021/acs.jctc.8b01176
      * Hamiltonian:
        H0-scaling (s, p, d)           1.850000    2.230000    2.230000
        zeta-weighting                 0.500000
      * Dispersion:
        s8                             2.700000
        a1                             0.520000
        a2                             5.000000
        s9                             5.000000
      * Repulsion:
        kExp                           1.500000    1.000000
        rExp                           1.000000
      * Coulomb:
        alpha                          2.000000
        third order                    shell-resolved
        anisotropic                    true
        a3                             3.000000
        a5                             4.000000
        cn-shift                       1.200000
        cn-exp                         4.000000
        max-rad                        5.000000

      * Solvation model:               ALPB
        Solvent                        water
        Parameter file                 internal GFN2-xTB/ALPB
        Dielectric constant                8.0200E+01
        Reference state                gsolv=reference [X=1]
        Free energy shift                  2.8945E-03 Eh       1.8164E+00 kcal/mol
        Temperature                        2.9815E+02 K
        Density                            1.0000E+00 kg/L
        Solvent mass                       1.8000E+01 g/mol
        Interaction kernel             P16
        Born radius scaling (c1)           1.4744E+00
        Born radii integrator          GBOBC
        Born offset                        0.0000E+00 a0       0.0000E+00 AA
        H-bond correction              true
        Ion screening                  false
        Surface tension                    1.0000E-05 Eh       1.5569E+01 dyn/cm
        Grid points                               974 per atom

          ...................................................
          :                      SETUP                      :
          :.................................................:
          :  # basis functions                  34          :
          :  # atomic orbitals                  34          :
          :  # shells                           22          :
          :  # electrons                        34          :
          :  max. iterations                   250          :
          :  Hamiltonian                  GFN2-xTB          :
          :  restarted?                      false          :
          :  GBSA solvation                   true          :
          :  PC potential                    false          :
          :  electronic temp.          300.0000000     K    :
          :  accuracy                    1.0000000          :
          :  -> integral cutoff          0.2500000E+02      :
          :  -> integral neglect         0.1000000E-07      :
          :  -> SCF convergence          0.1000000E-05 Eh   :
          :  -> wf. convergence          0.1000000E-03 e    :
          :  Broyden damping             0.4000000          :
          :  net charge                          0          :
          :  unpaired electrons                  0          :
          ...................................................

 iter      E             dE          RMSdq      gap      omega  full diag
   1    -18.2030356 -0.182030E+02  0.464E+00    6.94       0.0  T
   2    -18.2188382 -0.158026E-01  0.278E+00    6.88       1.0  T
   3    -18.1949160  0.239222E-01  0.154E+00    6.88       1.0  T
   4    -18.2225427 -0.276268E-01  0.351E-01    6.76       1.0  T
   5    -18.2236930 -0.115027E-02  0.817E-02    6.78       1.0  T
   6    -18.2237005 -0.752381E-05  0.318E-02    6.79       1.0  T
   7    -18.2237025 -0.200846E-05  0.127E-02    6.79       2.0  T
   8    -18.2237030 -0.432124E-06  0.280E-03    6.79       8.9  T
   9    -18.2237030 -0.126221E-07  0.155E-03    6.79      16.1  T
  10    -18.2237030 -0.431432E-08  0.257E-04    6.79      97.3  T
  11    -18.2237030  0.164000E-09  0.178E-04    6.79     140.6  T

   *** convergence criteria satisfied after 11 iterations ***

         #    Occupation            Energy/Eh            Energy/eV
      -------------------------------------------------------------
         1        2.0000           -0.6228168             -16.9477
       ...           ...                  ...                  ...
        11        2.0000           -0.4635049             -12.6126
        12        2.0000           -0.4545780             -12.3697
        13        2.0000           -0.4351760             -11.8417
        14        2.0000           -0.4281081             -11.6494
        15        2.0000           -0.4252133             -11.5706
        16        2.0000           -0.3980442             -10.8313
        17        2.0000           -0.3932349             -10.7005 (HOMO)
        18                         -0.1437347              -3.9112 (LUMO)
        19                         -0.1388272              -3.7777
        20                          0.0696210               1.8945
        21                          0.1017732               2.7694
        22                          0.1073224               2.9204
       ...                                ...                  ...
        34                          1.4412164              39.2175
      -------------------------------------------------------------
                  HL-Gap            0.2495002 Eh            6.7892 eV
             Fermi-level           -0.2684848 Eh           -7.3058 eV

 SCC (total)                   0 d,  0 h,  0 min,  0.010 sec
 SCC setup                      ...        0 min,  0.001 sec (  9.243%)
 Dispersion                     ...        0 min,  0.000 sec (  0.879%)
 classical contributions        ...        0 min,  0.000 sec (  0.175%)
 integral evaluation            ...        0 min,  0.001 sec ( 10.599%)
 iterations                     ...        0 min,  0.005 sec ( 49.754%)
 molecular gradient             ...        0 min,  0.003 sec ( 27.736%)
 printout                       ...        0 min,  0.000 sec (  1.429%)

         :::::::::::::::::::::::::::::::::::::::::::::::::::::
         ::                     SUMMARY                     ::
         :::::::::::::::::::::::::::::::::::::::::::::::::::::
         :: total energy             -17.873577732112 Eh    ::
         :: total w/o Gsasa/hb       -17.874383026269 Eh    ::
         :: gradient norm              0.000108963017 Eh/a0 ::
         :: HOMO-LUMO gap              6.789246294905 eV    ::
         ::.................................................::
         :: SCC energy               -18.223674950550 Eh    ::
         :: -> isotropic ES            0.005406603533 Eh    ::
         :: -> anisotropic ES          0.003171949056 Eh    ::
         :: -> anisotropic XC          0.016579714444 Eh    ::
         :: -> dispersion             -0.009337573995 Eh    ::
         :: -> Gsolv                   0.000104672215 Eh    ::
         ::    -> Gelec               -0.000700621942 Eh    ::
         ::    -> Gsasa               -0.001296883471 Eh    ::
         ::    -> Ghb                 -0.000792371532 Eh    ::
         ::    -> Gshift               0.002894549160 Eh    ::
         :: repulsion energy           0.350097218439 Eh    ::
         :: add. restraining           0.000000000000 Eh    ::
         :: total charge              -0.000000000000 e     ::
         :::::::::::::::::::::::::::::::::::::::::::::::::::::

           -------------------------------------------------
          |                Property Printout                |
           -------------------------------------------------

    * Orbital Energies and Occupations

         #    Occupation            Energy/Eh            Energy/eV
      -------------------------------------------------------------
         1        2.0000           -0.6228168             -16.9477
       ...           ...                  ...                  ...
         5        2.0000           -0.5508157             -14.9885
         6        2.0000           -0.5218715             -14.2008
         7        2.0000           -0.5108541             -13.9010
         8        2.0000           -0.4937971             -13.4369
         9        2.0000           -0.4897409             -13.3265
        10        2.0000           -0.4682799             -12.7425
        11        2.0000           -0.4635049             -12.6126
        12        2.0000           -0.4545780             -12.3697
        13        2.0000           -0.4351760             -11.8417
        14        2.0000           -0.4281081             -11.6494
        15        2.0000           -0.4252133             -11.5706
        16        2.0000           -0.3980442             -10.8313
        17        2.0000           -0.3932349             -10.7005 (HOMO)
        18                         -0.1437347              -3.9112 (LUMO)
        19                         -0.1388272              -3.7777
        20                          0.0696210               1.8945
        21                          0.1017732               2.7694
        22                          0.1073224               2.9204
        23                          0.1402331               3.8159
        24                          0.1494312               4.0662
        25                          0.1606839               4.3724
        26                          0.1966419               5.3509
        27                          0.2067648               5.6264
        28                          0.2116533               5.7594
       ...                                ...                  ...
        34                          1.4412164              39.2175
      -------------------------------------------------------------
                  HL-Gap            0.2495002 Eh            6.7892 eV
             Fermi-level           -0.2684848 Eh           -7.3058 eV

     #   Z          covCN         q      C6AA      α(0)
     1   6 C        3.751    -0.109    22.649     6.787
     2   6 C        3.800    -0.056    21.575     6.613
     3   6 C        3.803    -0.056    21.584     6.614
     4   6 C        3.803    -0.048    21.433     6.591
     5   6 C        1.965    -0.029    31.839     9.112
     6   6 C        1.909    -0.138    35.001     9.555
     7   1 H        0.925     0.040     2.450     2.448
     8   1 H        0.925     0.034     2.531     2.488
     9   1 H        0.925     0.033     2.545     2.495
    10   1 H        0.924     0.032     2.557     2.501
    11   1 H        0.924     0.029     2.595     2.519
    12   1 H        0.924     0.034     2.528     2.486
    13   1 H        0.924     0.037     2.493     2.469
    14   1 H        0.924     0.058     2.224     2.332
    15   1 H        0.924     0.060     2.201     2.320
    16   1 H        0.928     0.079     1.988     2.205

 Mol. C6AA /au·bohr⁶  :       2086.886612
 Mol. C8AA /au·bohr⁸  :      46751.679062
 Mol. α(0) /au        :         69.534393


Wiberg/Mayer (AO) data.
largest (>0.10) Wiberg bond orders for each atom

 ---------------------------------------------------------------------------
     #   Z sym  total        # sym  WBO       # sym  WBO       # sym  WBO
 ---------------------------------------------------------------------------
     1   6 C    3.996 --     2 C    1.020     9 H    0.988     8 H    0.987
                             7 H    0.984
     2   6 C    3.998 --     1 C    1.020     3 C    1.009    11 H    0.978
                            10 H    0.978
     3   6 C    3.997 --     2 C    1.009     4 C    0.985    13 H    0.978
                            12 H    0.977
     4   6 C    3.997 --     5 C    1.056     3 C    0.985    15 H    0.953
                            14 H    0.953
     5   6 C    3.978 --     6 C    2.888     4 C    1.056
     6   6 C    3.972 --     5 C    2.888    16 H    0.970
     7   1 H    0.998 --     1 C    0.984
     8   1 H    0.999 --     1 C    0.987
     9   1 H    0.999 --     1 C    0.988
    10   1 H    0.999 --     2 C    0.978
    11   1 H    0.999 --     2 C    0.978
    12   1 H    0.999 --     3 C    0.977
    13   1 H    0.999 --     3 C    0.978
    14   1 H    0.997 --     4 C    0.953
    15   1 H    0.996 --     4 C    0.953
    16   1 H    0.993 --     6 C    0.970
 ---------------------------------------------------------------------------

Topologies differ in total number of bonds
Writing topology from bond orders to xtbtopo.mol

molecular dipole:
                 x           y           z       tot (Debye)
 q only:       -0.166       0.293      -0.046
   full:       -0.157       0.281      -0.035       0.823
molecular quadrupole (traceless):
                xx          xy          yy          xz          yz          zz
 q only:       -1.019       0.146       1.361       0.022      -0.248      -0.342
  q+dip:       -1.658      -2.276       3.009       0.511      -1.017      -1.351
   full:       -1.293      -0.801       1.962       0.221      -0.582      -0.668


           -------------------------------------------------
          | TOTAL ENERGY              -17.873577732112 Eh   |
          | GRADIENT NORM               0.000108963017 Eh/α |
          | HOMO-LUMO GAP               6.789246294905 eV   |
           -------------------------------------------------

------------------------------------------------------------------------
 * finished run on 2025/04/07 at 08:21:06.693     
------------------------------------------------------------------------
 total:
 * wall-time:     0 d,  0 h,  0 min,  0.042 sec
 *  cpu-time:     0 d,  0 h,  0 min,  0.019 sec
 * ratio c/w:     0.456 speedup
 SCF:
 * wall-time:     0 d,  0 h,  0 min,  0.010 sec
 *  cpu-time:     0 d,  0 h,  0 min,  0.010 sec
 * ratio c/w:     0.989 speedup

