
                                 *****************
                                 * O   R   C   A *
                                 *****************

                                            #,                                       
                                            ###                                      
                                            ####                                     
                                            #####                                    
                                            ######                                   
                                           ########,                                 
                                     ,,################,,,,,                         
                               ,,#################################,,                 
                          ,,##########################################,,             
                       ,#########################################, ''#####,          
                    ,#############################################,,   '####,        
                  ,##################################################,,,,####,       
                ,###########''''           ''''###############################       
              ,#####''   ,,,,##########,,,,          '''####'''          '####       
            ,##' ,,,,###########################,,,                        '##       
           ' ,,###''''                  '''############,,,                           
         ,,##''                                '''############,,,,        ,,,,,,###''
      ,#''                                            '''#######################'''  
     '                                                          ''''####''''         
             ,#######,   #######,   ,#######,      ##                                
            ,#'     '#,  ##    ##  ,#'     '#,    #''#        ,####,   ,####,        
            ##       ##  ##   ,#'  ##            #'  '#       #'       #'  '#        
            ##       ##  #######   ##           ,######,      #####,   #    #        
            '#,     ,#'  ##    ##  '#,     ,#' ,#      #,     #,   #   #,  ,#        
             '#######'   ##     ##  '#######'  #'      '#     '####' # '####'        



                #########################################################
                #                        -***-                          #
                #          Department of theory and spectroscopy        #
                #                                                       #
                #                      Frank Neese                      #
                #                                                       #
                #     Directorship, Architecture, Infrastructure        #
                #                    SHARK, DRIVERS                     #
                #        Core code/Algorithms in most modules           #
                #                                                       #
                #        Max Planck Institute fuer Kohlenforschung      #
                #                Kaiser Wilhelm Platz 1                 #
                #                 D-45470 Muelheim/Ruhr                 #
                #                      Germany                          #
                #                                                       #
                #                  All rights reserved                  #
                #                        -***-                          #
                #########################################################


                         Program Version 6.0.0  -   RELEASE  -


 With contributions from (in alphabetic order):
   Daniel Aravena         : Magnetic Suceptibility
   Michael Atanasov       : Ab Initio Ligand Field Theory (pilot matlab implementation)
   Alexander A. Auer      : GIAO ZORA, VPT2 properties, NMR spectrum
   Ute Becker             : All parallelization in ORCA, NUMFREQ, NUMCALC
   Giovanni Bistoni       : ED, misc. LED, open-shell LED, HFLD
   Martin Brehm           : Molecular dynamics
   Dmytro Bykov           : pre 5.0 version of the SCF Hessian
   Marcos Casanova-Páez   : Triplet and SCS-CIS(D). UHF-(DLPNO)-IP/EA/STEOM-CCSD. UHF-CVS-IP/STEOM-CCSD
   Vijay G. Chilkuri      : MRCI spin determinant printing, contributions to CSF-ICE
   Pauline Colinet        : FMM embedding
   Dipayan Datta          : RHF DLPNO-CCSD density
   Achintya Kumar Dutta   : EOM-CC, STEOM-CC
   Nicolas Foglia         : Exact transition moments, OPA infrastructure, MCD improvements
   Dmitry Ganyushin       : Spin-Orbit,Spin-Spin,Magnetic field MRCI
   Miquel Garcia          : C-PCM and meta-GGA Hessian, CCSD/C-PCM, Gaussian charge scheme
   Tiago L. C. Gouveia    : GS-ROHF, GS-ROCIS
   Yang Guo               : DLPNO-NEVPT2, F12-NEVPT2, CIM, IAO-localization
   Andreas Hansen         : Spin unrestricted coupled pair/coupled cluster methods
   Ingolf Harden          : AUTO-CI MPn and infrastructure 
   Benjamin Helmich-Paris : MC-RPA, TRAH-(SCF,CASSCF), AVAS, COSX integrals, SCF dyn. polar.
   Lee Huntington         : MR-EOM, pCC
   Robert Izsak           : Overlap fitted RIJCOSX, COSX-SCS-MP3, EOM
   Riya Kayal             : Wick's Theorem for AUTO-CI, AUTO-CI UHF-CCSDT
   Emily Kempfer          : AUTO-CI, RHF CISDT and CCSDT
   Christian Kollmar      : KDIIS, OOCD, Brueckner-CCSD(T), CCSD density, CASPT2, CASPT2-K, improved NEVPT2
   Axel Koslowski         : Symmetry handling
   Simone Kossmann        : Meta GGA functionals, TD-DFT gradient, OOMP2, (MP2 Hessian; deprecated post 5.0)
   Lucas Lang             : DCDCAS
   Marvin Lechner         : AUTO-CI (C++ implementation), FIC-MRCC
   Spencer Leger          : CASSCF response
   Dagmar Lenk            : GEPOL surface, SMD, ORCA-2-JSON
   Dimitrios Liakos       : Extrapolation schemes; Compound Job, initial MDCI parallelization
   Dimitrios Manganas     : Further ROCIS development; embedding schemes. LFT, Crystal Embedding
   Dimitrios Pantazis     : SARC Basis sets
   Anastasios Papadopoulos: AUTO-CI, single reference methods and gradients
   Taras Petrenko         : pre 6.0 DFT Hessian and TD-DFT gradient, (ASA, deprecated), ECA, 1-Electron XAS/XES, NRVS
   Peter Pinski           : DLPNO-MP2, DLPNO-MP2 Gradient
   Christoph Reimann      : Effective Core Potentials
   Marius Retegan         : Local ZFS, SOC
   Christoph Riplinger    : Optimizer, TS searches, QM/MM, DLPNO-CCSD(T), (RO)-DLPNO pert. Triples
   Michael Roemelt        : Original ROCIS implementation
   Masaaki Saitow         : Open-shell DLPNO-CCSD energy and density
   Barbara Sandhoefer     : DKH picture change effects
   Kantharuban Sivalingam : CASSCF convergence/infrastructure, NEVPT2 and variants, FIC-MRCI
   Bernardo de Souza      : ESD, SOC TD-DFT
   Georgi Stoychev        : AutoAux, RI-MP2 NMR, DLPNO-MP2 response, X2C
   Van Anh Tran           : RI-MP2 g-tensors
   Willem Van den Heuvel  : Paramagnetic NMR
   Zikuan Wang            : NOTCH, Electric field optimization 
   Frank Wennmohs         : Technical directorship and infrastructure
   Hang Xu                : AUTO-CI-Response properties 


 We gratefully acknowledge several colleagues who have allowed us to
 interface, adapt or use parts of their codes:
   Stefan Grimme, W. Hujo, H. Kruse, P. Pracht,  : VdW corrections, initial TS optimization,
                  C. Bannwarth, S. Ehlert,         DFT functionals, gCP, sTDA/sTD-DF
                  L. Wittmann, M. Mueller
   Ed Valeev, F. Pavosevic, A. Kumar             : LibInt (2-el integral package), F12 methods
   Garnet Chan, S. Sharma, J. Yang, R. Olivares  : DMRG
   Ulf Ekstrom                                   : XCFun DFT Library
   Mihaly Kallay                                 : mrcc  (arbitrary order and MRCC methods)
   Frank Weinhold                                : gennbo (NPA and NBO analysis)
   Simon Mueller                                 : openCOSMO-RS
   Christopher J. Cramer and Donald G. Truhlar   : smd solvation model
   Lars Goerigk                                  : TD-DFT with DH, B97 family of functionals
   V. Asgeirsson, H. Jonsson                     : NEB implementation
   FAccTs GmbH                                   : IRC, NEB, NEB-TS, DLPNO-Multilevel, CI-OPT
                                                   MM, QMMM, 2- and 3-layer-ONIOM, Crystal-QMMM,
                                                   LR-CPCM, SF, NACMEs, symmetry and pop. for TD-DFT,
                                                   nearIR, NL-DFT gradient (VV10), updates on ESD,
                                                   ML-optimized integration grids, MBIS, APM,
                                                   GOAT, DOCKER, SOLVATOR, interface openCOSMO-RS
   S Lehtola, MJT Oliveira, MAL Marques          : LibXC Library
   Liviu Ungur et al                             : ANISO software


 Your calculation uses the libint2 library for the computation of 2-el integrals
 For citations please refer to: http://libint.valeyev.net

 Your ORCA version has been built with support for libXC version: 6.2.2
 For citations please refer to: https://libxc.gitlab.io

 This ORCA versions uses:
   CBLAS   interface :  Fast vector & matrix operations
   LAPACKE interface :  Fast linear algebra routines
   SCALAPACK package :  Parallel linear algebra routines
   Shared memory     :  Shared parallel matrices
   BLAS/LAPACK       :  OpenBLAS 0.3.27  USE64BITINT DYNAMIC_ARCH NO_AFFINITY SkylakeX SINGLE_THREADED
        Core in use  :  SkylakeX
   Copyright (c) 2011-2014, The OpenBLAS Project


Your calculation utilizes the geometrical counterpoise correction gCP
Please cite in your paper:
H.Kruse, S. Grimme J.Chem.Phys., 136, (2012), 154101 
   

Your calculation utilizes the atom-pairwise dispersion correction
based on EEQ partial charges (D4)


================================================================================

----- Orbital basis set information -----
Your calculation utilizes the basis: def2-SV(P)
   F. Weigend and R. Ahlrichs, Phys. Chem. Chem. Phys. 7, 3297 (2005).

----- AuxJ basis set information -----
Your calculation utilizes the auxiliary basis: def2/J
   F. Weigend, Phys. Chem. Chem. Phys. 8, 1057 (2006).

================================================================================
                                        WARNINGS
                       Please study these warnings very carefully!
================================================================================


================================================================================
                                       INPUT FILE
================================================================================
NAME = sp.inp
|  1> ! pbe def2-sv(p) def2/J RI DEFGRID1 loosescf d4 GCP(DFT/SV(P)) printgap
|  2> %output
|  3>     printlevel normal
|  4> end
|  5> * xyz 0 1
|  6> C -0.1841159515 2.8081817539 0.0331130957
|  7> N -0.3409353732 1.3771040397 0.2399795408
|  8> C -1.4069373861 0.843863928 -0.5824849524
|  9> C -1.804852648 -0.5626113309 -0.174982999
| 10> F -0.9260374648 -1.5100387367 -0.5473692769
| 11> F -1.9920444234 -0.7146789589 1.1421066058
| 12> F -2.9733906171 -0.9148173464 -0.756866224
| 13> C 0.8846420489 0.6378205831 0.1597675302
| 14> C 1.1535916196 -0.2868148806 1.1611521817
| 15> C 2.326474642 -1.0195951163 1.133837715
| 16> C 3.2430075148 -0.828534759 0.1134124521
| 17> C 2.9819760021 0.0976951731 -0.8815440926
| 18> C 1.8070006866 0.8279011178 -0.8625096727
| 19> H 0.6777540866 3.142047864 0.6042306724
| 20> H -1.073717408 3.3081946782 0.4130576016
| 21> H -0.0476452531 3.084567063 -1.0192725931
| 22> H -2.2940873655 1.4692927225 -0.4478115206
| 23> H -1.1608914698 0.7965908419 -1.6587606959
| 24> H 0.4371358711 -0.4241431083 1.9561744138
| 25> H 2.5263544781 -1.7380452343 1.9140526892
| 26> H 4.1589433358 -1.3988700673 0.094639077
| 27> H 3.6936175268 0.2508004983 -1.6788598176
| 28> H 1.6106478598 1.5451682617 -1.6452187558
| 29> *
| 30> 
| 31>                          ****END OF INPUT****
================================================================================

                       ****************************
                       * Single Point Calculation *
                       ****************************

---------------------------------
CARTESIAN COORDINATES (ANGSTROEM)
---------------------------------
  C     -0.184116    2.808182    0.033113
  N     -0.340935    1.377104    0.239980
  C     -1.406937    0.843864   -0.582485
  C     -1.804853   -0.562611   -0.174983
  F     -0.926037   -1.510039   -0.547369
  F     -1.992044   -0.714679    1.142107
  F     -2.973391   -0.914817   -0.756866
  C      0.884642    0.637821    0.159768
  C      1.153592   -0.286815    1.161152
  C      2.326475   -1.019595    1.133838
  C      3.243008   -0.828535    0.113412
  C      2.981976    0.097695   -0.881544
  C      1.807001    0.827901   -0.862510
  H      0.677754    3.142048    0.604231
  H     -1.073717    3.308195    0.413058
  H     -0.047645    3.084567   -1.019273
  H     -2.294087    1.469293   -0.447812
  H     -1.160891    0.796591   -1.658761
  H      0.437136   -0.424143    1.956174
  H      2.526354   -1.738045    1.914053
  H      4.158943   -1.398870    0.094639
  H      3.693618    0.250800   -1.678860
  H      1.610648    1.545168   -1.645219

----------------------------
CARTESIAN COORDINATES (A.U.)
----------------------------
  NO LB      ZA    FRAG     MASS         X           Y           Z
   0 C     6.0000    0    12.011   -0.347929    5.306694    0.062575
   1 N     7.0000    0    14.007   -0.644274    2.602349    0.453496
   2 C     6.0000    0    12.011   -2.658726    1.594672   -1.100737
   3 C     6.0000    0    12.011   -3.410677   -1.063181   -0.330670
   4 F     9.0000    0    18.998   -1.749957   -2.853560   -1.034378
   5 F     9.0000    0    18.998   -3.764418   -1.350548    2.158269
   6 F     9.0000    0    18.998   -5.618894   -1.728754   -1.430270
   7 C     6.0000    0    12.011    1.671731    1.205306    0.301917
   8 C     6.0000    0    12.011    2.179972   -0.542002    2.194260
   9 C     6.0000    0    12.011    4.396400   -1.926756    2.142643
  10 C     6.0000    0    12.011    6.128396   -1.565704    0.214318
  11 C     6.0000    0    12.011    5.635118    0.184617   -1.665877
  12 C     6.0000    0    12.011    3.414736    1.564506   -1.629907
  13 H     1.0000    0     1.008    1.280770    5.937610    1.141830
  14 H     1.0000    0     1.008   -2.029032    6.251582    0.780566
  15 H     1.0000    0     1.008   -0.090036    5.828987   -1.926146
  16 H     1.0000    0     1.008   -4.335197    2.776561   -0.846241
  17 H     1.0000    0     1.008   -2.193767    1.505339   -3.134603
  18 H     1.0000    0     1.008    0.826067   -0.801514    3.696634
  19 H     1.0000    0     1.008    4.774118   -3.284430    3.617035
  20 H     1.0000    0     1.008    7.859264   -2.643481    0.178842
  21 H     1.0000    0     1.008    6.979926    0.473944   -3.172585
  22 H     1.0000    0     1.008    3.043683    2.919945   -3.109013

--------------------------------
INTERNAL COORDINATES (ANGSTROEM)
--------------------------------
 C      0   0   0     0.000000000000     0.00000000     0.00000000
 N      1   0   0     1.454430981934     0.00000000     0.00000000
 C      2   1   0     1.448155085206   111.15533114     0.00000000
 C      3   2   1     1.517421184634   112.44581358   192.75589656
 F      4   3   2     1.344844361051   114.03275184   285.09682743
 F      4   3   2     1.338988555341   113.95898261    47.65045050
 F      4   3   2     1.352079195210   110.64073959   166.76276646
 C      2   1   3     1.433532006412   114.03458262   130.63081259
 C      8   2   1     1.389264493382   117.93109701   132.55780823
 C      9   8   2     1.383245292115   120.16545667   180.39834375
 C     10   9   8     1.384848108718   120.17493659     0.45992114
 C     11  10   9     1.384188521691   119.81225658   359.93148506
 C     12  11  10     1.383520879080   120.22754329   359.72113716
 H      1   2   3     1.086490602105   108.24739572   184.79187399
 H      1   2   3     1.088926766793   108.30614757    66.89282256
 H      1   2   3     1.096598709009   113.44742843   306.10968711
 H      3   2   1     1.093770175207   108.45581543   310.27766999
 H      3   2   1     1.105053308055   113.89129074    71.78014254
 H      9   8   2     1.078994083031   119.16084152     0.42099127
 H     10   9   8     1.079285841147   119.69610579   180.18444507
 H     11  10   9     1.079153942539   120.10814341   179.83205582
 H     12  11  10     1.079623668513   120.09492041   179.95927295
 H     13  12  11     1.079657398010   119.67718514   180.24594633

---------------------------
INTERNAL COORDINATES (A.U.)
---------------------------
 C      0   0   0     0.000000000000     0.00000000     0.00000000
 N      1   0   0     2.748476236546     0.00000000     0.00000000
 C      2   1   0     2.736616510484   111.15533114     0.00000000
 C      3   2   1     2.867510468768   112.44581358   192.75589656
 F      4   3   2     2.541387535136   114.03275184   285.09682743
 F      4   3   2     2.530321666050   113.95898261    47.65045050
 F      4   3   2     2.555059390319   110.64073959   166.76276646
 C      2   1   3     2.708982896330   114.03458262   130.63081259
 C      8   2   1     2.625329420072   117.93109701   132.55780823
 C      9   8   2     2.613954778133   120.16545667   180.39834375
 C     10   9   8     2.616983662555   120.17493659     0.45992114
 C     11  10   9     2.615737223714   119.81225658   359.93148506
 C     12  11  10     2.614475562023   120.22754329   359.72113716
 H      1   2   3     2.053169685059   108.24739572   184.79187399
 H      1   2   3     2.057773369134   108.30614757    66.89282256
 H      1   2   3     2.072271238838   113.44742843   306.10968711
 H      3   2   1     2.066926084592   108.45581543   310.27766999
 H      3   2   1     2.088248115608   113.89129074    71.78014254
 H      9   8   2     2.039003317049   119.16084152     0.42099127
 H     10   9   8     2.039554659986   119.69610579   180.18444507
 H     11  10   9     2.039305407740   120.10814341   179.83205582
 H     12  11  10     2.040193061190   120.09492041   179.95927295
 H     13  12  11     2.040256800701   119.67718514   180.24594633

---------------------
BASIS SET INFORMATION
---------------------
There are 4 groups of distinct atoms

 Group   1 Type C   : 7s4p1d contracted to 3s2p1d pattern {511/31/1}
 Group   2 Type N   : 7s4p1d contracted to 3s2p1d pattern {511/31/1}
 Group   3 Type F   : 7s4p1d contracted to 3s2p1d pattern {511/31/1}
 Group   4 Type H   : 4s contracted to 2s pattern {31}

Atom   0C    basis set group =>   1
Atom   1N    basis set group =>   2
Atom   2C    basis set group =>   1
Atom   3C    basis set group =>   1
Atom   4F    basis set group =>   3
Atom   5F    basis set group =>   3
Atom   6F    basis set group =>   3
Atom   7C    basis set group =>   1
Atom   8C    basis set group =>   1
Atom   9C    basis set group =>   1
Atom  10C    basis set group =>   1
Atom  11C    basis set group =>   1
Atom  12C    basis set group =>   1
Atom  13H    basis set group =>   4
Atom  14H    basis set group =>   4
Atom  15H    basis set group =>   4
Atom  16H    basis set group =>   4
Atom  17H    basis set group =>   4
Atom  18H    basis set group =>   4
Atom  19H    basis set group =>   4
Atom  20H    basis set group =>   4
Atom  21H    basis set group =>   4
Atom  22H    basis set group =>   4
---------------------------------
AUXILIARY/J BASIS SET INFORMATION
---------------------------------
There are 4 groups of distinct atoms

 Group   1 Type C   : 12s5p4d2f1g contracted to 6s4p3d1f1g pattern {711111/2111/211/2/1}
 Group   2 Type N   : 12s5p4d2f1g contracted to 6s4p3d1f1g pattern {711111/2111/211/2/1}
 Group   3 Type F   : 12s5p4d2f1g contracted to 6s4p3d1f1g pattern {711111/2111/211/2/1}
 Group   4 Type H   : 5s2p1d contracted to 3s1p1d pattern {311/2/1}

Atom   0C    basis set group =>   1
Atom   1N    basis set group =>   2
Atom   2C    basis set group =>   1
Atom   3C    basis set group =>   1
Atom   4F    basis set group =>   3
Atom   5F    basis set group =>   3
Atom   6F    basis set group =>   3
Atom   7C    basis set group =>   1
Atom   8C    basis set group =>   1
Atom   9C    basis set group =>   1
Atom  10C    basis set group =>   1
Atom  11C    basis set group =>   1
Atom  12C    basis set group =>   1
Atom  13H    basis set group =>   4
Atom  14H    basis set group =>   4
Atom  15H    basis set group =>   4
Atom  16H    basis set group =>   4
Atom  17H    basis set group =>   4
Atom  18H    basis set group =>   4
Atom  19H    basis set group =>   4
Atom  20H    basis set group =>   4
Atom  21H    basis set group =>   4
Atom  22H    basis set group =>   4
------------------------------------------------------------------------------
                             ORCA STARTUP CALCULATIONS
                           -- RI-GTO INTEGRALS CHOSEN --
------------------------------------------------------------------------------
------------------------------------------------------------------------------
                   ___                                                        
                  /   \      - P O W E R E D   B Y -                         
                 /     \                                                     
                 |  |  |   _    _      __       _____    __    __             
                 |  |  |  | |  | |    /  \     |  _  \  |  |  /  |          
                  \  \/   | |  | |   /    \    | | | |  |  | /  /          
                 / \  \   | |__| |  /  /\  \   | |_| |  |  |/  /          
                |  |  |   |  __  | /  /__\  \  |    /   |      \           
                |  |  |   | |  | | |   __   |  |    \   |  |\   \          
                \     /   | |  | | |  |  |  |  | |\  \  |  | \   \       
                 \___/    |_|  |_| |__|  |__|  |_| \__\ |__|  \__/        
                                                                              
                      - O R C A' S   B I G   F R I E N D -                    
                                      &                                       
                       - I N T E G R A L  F E E D E R -                       
                                                                              
 v1 FN, 2020, v2 2021, v3 2022-2024                                           
------------------------------------------------------------------------------


----------------------
SHARK INTEGRAL PACKAGE
----------------------

Number of atoms                             ...     23
Number of basis functions                   ...    202
Number of shells                            ...     98
Maximum angular momentum                    ...      2
Integral batch strategy                     ... SHARK/LIBINT Hybrid
RI-J (if used) integral strategy            ... SPLIT-RIJ (Revised 2003 algorithm where possible)
Printlevel                                  ...      1
Contraction scheme used                     ... SEGMENTED contraction
Prescreening option                         ... SCHWARTZ
   Thresh                                   ... 1.000e-09
   Tcut                                     ... 1.000e-10
   Tpresel                                  ... 1.000e-10 
Coulomb Range Separation                    ... NOT USED
Exchange Range Separation                   ... NOT USED
Multipole approximations                    ... NOT USED
Finite Nucleus Model                        ... NOT USED
CABS basis                                  ... NOT available
Auxiliary Coulomb fitting basis             ... AVAILABLE
   # of basis functions in Aux-J            ...    747
   # of shells in Aux-J                     ...    245
   Maximum angular momentum in Aux-J        ...      4
Auxiliary J/K fitting basis                 ... NOT available
Auxiliary Correlation fitting basis         ... NOT available
Auxiliary 'external' fitting basis          ... NOT available

Checking pre-screening integrals            ... done (  0.0 sec) Dimension = 98
Check shell pair data                       ... done (  0.0 sec)
Shell pair information
Shell pair cut-off parameter TPreSel        ...   1.0e-10
Total number of shell pairs                 ...      4851
Shell pairs after pre-screening             ...      4267
Total number of primitive shell pairs       ...     19505
Primitive shell pairs kept                  ...     11317
          la=0 lb=0:   1522 shell pairs
          la=1 lb=0:   1398 shell pairs
          la=1 lb=1:    339 shell pairs
          la=2 lb=0:    633 shell pairs
          la=2 lb=1:    305 shell pairs
          la=2 lb=2:     70 shell pairs

Calculating one electron integrals          ... done (  0.0 sec)
Calculating RI/J V-Matrix + Cholesky decomp.... done (  0.1 sec)
Calculating Nuclear repulsion               ... done (  0.0 sec) ENN=    851.357923019143 Eh

Diagonalization of the overlap matrix:
Smallest eigenvalue                        ... 2.563e-04
Time for diagonalization                   ...    0.004 sec
Threshold for overlap eigenvalues          ... 1.000e-07
Number of eigenvalues below threshold      ... 0
Time for construction of square roots      ...    0.019 sec
Total time needed                          ...    0.035 sec

-------------------
DFT GRID GENERATION
-------------------

General Integration Accuracy     IntAcc      ... 4.159
Radial Grid Type                 RadialGrid  ... OptM3 with GC (2021)
Angular Grid (max. ang.)         AngularGrid ... 3 (Lebedev-194)
Angular grid pruning method      GridPruning ... 4 (adaptive)
Weight generation scheme         WeightScheme... mBecke (2022)
Basis function cutoff            BFCut       ... 1.0000e-10
Integration weight cutoff        WCut        ... 1.0000e-14
Partially contracted basis set               ... off
Rotationally invariant grid construction     ... off
Angular grids for H and He will be reduced by one unit

Total number of grid points                  ...    56396
Total number of batches                      ...      894
Average number of points per batch           ...       63
Average number of grid points per atom       ...     2452
Initializing property integral containers    ... done (  0.0 sec)

SHARK setup successfully completed in   1.1 seconds

Maximum memory used throughout the entire STARTUP-calculation: 28.9 MB
-------------------------------------------------------------------------------
                                 ORCA GUESS
                   Start orbitals & Density for SCF / CASSCF
-------------------------------------------------------------------------------

------------
SCF SETTINGS
------------
Hamiltonian:
 Density Functional     Method          .... DFT(GTOs)
 Exchange Functional    Exchange        .... PBE
   PBE kappa parameter   XKappa         ....  0.804000
   PBE mue parameter    XMuePBE         ....  0.219520
 Correlation Functional Correlation     .... PBE
   PBE beta parameter  CBetaPBE         ....  0.066725
 LDA part of GGA corr.  LDAOpt          .... PW91-LDA
 Gradients option       PostSCFGGA      .... off
   NL short-range parameter             ....  6.400000
 RI-approximation to the Coulomb term is turned on
   Number of AuxJ basis functions       .... 747


General Settings:
 Integral files         IntName         .... sp
 Hartree-Fock type      HFTyp           .... RHF
 Total Charge           Charge          ....    0
 Multiplicity           Mult            ....    1
 Number of Electrons    NEL             ....   98
 Basis Dimension        Dim             ....  202
 Nuclear Repulsion      ENuc            ....    851.3579230191 Eh

Convergence Acceleration:
 AO-DIIS                CNVDIIS         .... on
   Start iteration      DIISMaxIt       ....    12
   Startup error        DIISStart       ....  0.200000
   # of expansion vecs  DIISMaxEq       ....     5
   Bias factor          DIISBfac        ....   1.050
   Max. coefficient     DIISMaxC        ....  10.000
 MO-DIIS                CNVKDIIS        .... off
 Trust-Rad. Augm. Hess. CNVTRAH         .... auto
   Auto Start mean grad. ratio tolernc. ....  1.125000
   Auto Start start iteration           ....    50
   Auto Start num. interpolation iter.  ....    10
   Max. Number of Micro iterations      ....    24
   Max. Number of Macro iterations      .... Maxiter - #DIIS iter
   Number of Davidson start vectors     ....     2
   Converg. threshold    (grad. norm)   ....   1.000e-04
   Grad. Scal. Fac. for Micro threshold ....   0.100
   Minimum threshold for Micro iter.    ....   1.000e-02
   NR start threshold (gradient norm)   ....   1.000e-04
   Initial trust radius                 ....   0.400
   Minimum AH scaling param. (alpha)    ....   1.000
   Maximum AH scaling param. (alpha)    .... 1000.000
   Quad. conv. algorithm                .... NR
   White noise on init. David. guess    .... on
   Maximum white noise                  ....   0.010
   Pseudo random numbers                .... off
   Inactive MOs                         .... canonical
   Orbital update algorithm             .... Taylor
   Preconditioner                       .... Diag
   Full preconditioner red. dimension   ....   250
 SOSCF                  CNVSOSCF        .... on
   Start iteration      SOSCFMaxIt      ....   150
   Startup grad/error   SOSCFStart      ....  0.003300
   Hessian update       SOSCFHessUp     .... L-BFGS
 Level Shifting         CNVShift        .... on
   Level shift para.    LevelShift      ....    0.2500
   Turn off err/grad.   ShiftErr        ....    0.0010
 Zerner damping         CNVZerner       .... off
 Static damping         CNVDamp         .... on
   Fraction old density DampFac         ....    0.7000
   Max. Damping (<1)    DampMax         ....    0.9800
   Min. Damping (>=0)   DampMin         ....    0.0000
   Turn off err/grad.   DampErr         ....    0.1000

SCF Procedure:
 Maximum # iterations   MaxIter         ....   125
 SCF integral mode      SCFMode         .... Direct
   Integral package                     .... SHARK and LIBINT hybrid scheme
 Reset frequency        DirectResetFreq ....    20
 Integral Threshold     Thresh          ....  1.000e-09 Eh
 Primitive CutOff       TCut            ....  1.000e-10 Eh

Convergence Tolerance:
 Convergence Check Mode ConvCheckMode   .... Total+1el-Energy
 Convergence forced     ConvForced      .... 0
 Energy Change          TolE            ....  1.000e-05 Eh
 1-El. energy change                    ....  1.000e-02 Eh
 Orbital Gradient       TolG            ....  1.000e-04
 Orbital Rotation angle TolX            ....  1.000e-04
 DIIS Error             TolErr          ....  5.000e-04

------------------------------
INITIAL GUESS: MODEL POTENTIAL
------------------------------
Loading Hartree-Fock densities                     ... done
Calculating cut-offs                               ... done
Initializing the effective Hamiltonian             ... done
Setting up the integral package (SHARK)            ... done
Starting the Coulomb interaction                   ... done (   0.3 sec)
Making the grid                                    ... done (   0.3 sec)
Mapping shells                                     ... done
Starting the XC term evaluation                    ... done (   0.3 sec)
  promolecular density results
     # of electrons  =     98.004993409
     EX              =    -85.575887876
     EC              =     -3.325502455
     EX+EC           =    -88.901390331
Transforming the Hamiltonian                       ... done (   0.0 sec)
Diagonalizing the Hamiltonian                      ... done (   0.0 sec)
Back transforming the eigenvectors                 ... done (   0.0 sec)
Now organizing SCF variables                       ... done
                      ------------------
                      INITIAL GUESS DONE (   1.0 sec)
                      ------------------
             **** ENERGY FILE WAS UPDATED (sp.en.tmp) ****
Finished Guess after   1.2 sec
Maximum memory used throughout the entire GUESS-calculation: 22.6 MB

-------------------------------------------------------------------------------------------
                                      ORCA LEAN-SCF
                              memory conserving SCF solver
-------------------------------------------------------------------------------------------

----------------------------------------D-I-I-S--------------------------------------------
Iteration    Energy (Eh)           Delta-E    RMSDP     MaxDP     DIISErr   Damp  Time(sec)
-------------------------------------------------------------------------------------------
               ***  Starting incremental Fock matrix formation  ***
    1    -701.6775486866690699     0.00e+00  3.27e-03  1.01e-01  1.50e-01  0.700   1.5
    2    -701.7915093475644426    -1.14e-01  2.22e-03  4.85e-02  6.22e-02  0.700   1.5
                               ***Turning on AO-DIIS***
    3    -701.8316285841392528    -4.01e-02  8.92e-04  1.50e-02  1.93e-02  0.700   1.4
    4    -701.8559824203071003    -2.44e-02  1.49e-03  2.44e-02  8.72e-03  0.000   1.3
    5    -701.9111010640867789    -5.51e-02  3.47e-04  6.22e-03  4.37e-03  0.000   1.4
                              *** Initializing SOSCF ***
---------------------------------------S-O-S-C-F--------------------------------------
Iteration    Energy (Eh)           Delta-E    RMSDP     MaxDP     MaxGrad    Time(sec)
--------------------------------------------------------------------------------------
    6    -701.9114589205446464    -3.58e-04  1.40e-04  2.68e-03  1.12e-03     1.3
               *** Restarting incremental Fock matrix formation ***
    7    -701.9114795834350389    -2.07e-05  8.28e-05  1.60e-03  1.86e-04     1.5
    8    -701.9114759736023643     3.61e-06  4.25e-05  1.08e-03  3.44e-04     1.3
                 **** Energy Check signals convergence ****

               *****************************************************
               *                     SUCCESS                       *
               *           SCF CONVERGED AFTER   8 CYCLES          *
               *****************************************************

             **** ENERGY FILE WAS UPDATED (sp.en.tmp) ****

----------------
TOTAL SCF ENERGY
----------------

Total Energy       :       -701.91147597360236 Eh          -19099.98229 eV

Components:
Nuclear Repulsion  :        851.35792301914262 Eh           23166.62685 eV
Electronic Energy  :      -1553.26939899274498 Eh          -42266.60914 eV
One Electron Energy:      -2653.33734216688890 Eh          -72200.97971 eV
Two Electron Energy:       1100.06794317414392 Eh           29934.37057 eV

Virial components:
Potential Energy   :      -1398.81589252988033 Eh          -38063.71556 eV
Kinetic Energy     :        696.90441655627797 Eh           18963.73327 eV
Virial Ratio       :          2.00718471471607

DFT components:
N(Alpha)           :       49.000133572595 electrons
N(Beta)            :       49.000133572595 electrons
N(Total)           :       98.000267145190 electrons
E(X)               :      -86.751553724934 Eh       
E(C)               :       -3.331781754113 Eh       
E(XC)              :      -90.083335479047 Eh       

---------------
SCF CONVERGENCE
---------------

  Last Energy change         ...   -3.6098e-06  Tolerance :   1.0000e-05
  Last MAX-Density change    ...    1.0799e-03  Tolerance :   1.0000e-03
  Last RMS-Density change    ...    4.2521e-05  Tolerance :   1.0000e-04
  Last DIIS Error            ...    1.1188e-03  Tolerance :   5.0000e-04
  Last Orbital Gradient      ...    3.4370e-04  Tolerance :   1.0000e-04
  Last Orbital Rotation      ...    4.7383e-04  Tolerance :   1.0000e-04


----------------
ORBITAL ENERGIES
----------------

  NO   OCC          E(Eh)            E(eV) 
   0   2.0000     -24.281886      -660.7437 
   1   2.0000     -24.278822      -660.6603 
   2   2.0000     -24.276578      -660.5993 
   3   2.0000     -14.011091      -381.2612 
   4   2.0000     -10.119633      -275.3692 
   5   2.0000      -9.943324      -270.5716 
   6   2.0000      -9.926634      -270.1174 
   7   2.0000      -9.917346      -269.8647 
   8   2.0000      -9.895442      -269.2687 
   9   2.0000      -9.894605      -269.2459 
  10   2.0000      -9.893735      -269.2222 
  11   2.0000      -9.893394      -269.2129 
  12   2.0000      -9.889292      -269.1013 
  13   2.0000      -1.184527       -32.2326 
  14   2.0000      -1.092116       -29.7180 
  15   2.0000      -1.087261       -29.5859 
  16   2.0000      -0.867296       -23.6003 
  17   2.0000      -0.772837       -21.0300 
  18   2.0000      -0.699155       -19.0250 
  19   2.0000      -0.674938       -18.3660 
  20   2.0000      -0.669671       -18.2227 
  21   2.0000      -0.607632       -16.5345 
  22   2.0000      -0.585332       -15.9277 
  23   2.0000      -0.547643       -14.9021 
  24   2.0000      -0.533635       -14.5209 
  25   2.0000      -0.521200       -14.1826 
  26   2.0000      -0.516483       -14.0542 
  27   2.0000      -0.496527       -13.5112 
  28   2.0000      -0.462504       -12.5854 
  29   2.0000      -0.435130       -11.8405 
  30   2.0000      -0.432152       -11.7594 
  31   2.0000      -0.415786       -11.3141 
  32   2.0000      -0.397897       -10.8273 
  33   2.0000      -0.392546       -10.6817 
  34   2.0000      -0.391402       -10.6506 
  35   2.0000      -0.382210       -10.4005 
  36   2.0000      -0.379313       -10.3216 
  37   2.0000      -0.371818       -10.1177 
  38   2.0000      -0.355367        -9.6700 
  39   2.0000      -0.345848        -9.4110 
  40   2.0000      -0.341532        -9.2936 
  41   2.0000      -0.333211        -9.0671 
  42   2.0000      -0.327804        -8.9200 
  43   2.0000      -0.319112        -8.6835 
  44   2.0000      -0.311334        -8.4718 
  45   2.0000      -0.305902        -8.3240 
  46   2.0000      -0.232189        -6.3182 
  47   2.0000      -0.231266        -6.2931 
  48   2.0000      -0.192025        -5.2253 
  49   0.0000      -0.038758        -1.0547 
  50   0.0000      -0.036296        -0.9877 
  51   0.0000       0.027903         0.7593 
  52   0.0000       0.045130         1.2281 
  53   0.0000       0.063654         1.7321 
  54   0.0000       0.075042         2.0420 
  55   0.0000       0.081753         2.2246 
  56   0.0000       0.086855         2.3634 
  57   0.0000       0.094691         2.5767 
  58   0.0000       0.102771         2.7966 
  59   0.0000       0.111670         3.0387 
*Only the first 10 virtual orbitals were printed.

                    ********************************
                    * MULLIKEN POPULATION ANALYSIS *
                    ********************************

-----------------------
MULLIKEN ATOMIC CHARGES
-----------------------
   0 C :   -0.163141
   1 N :   -0.287984
   2 C :   -0.084167
   3 C :    0.392507
   4 F :   -0.135689
   5 F :   -0.133302
   6 F :   -0.150763
   7 C :    0.106022
   8 C :   -0.060742
   9 C :   -0.059320
  10 C :   -0.032511
  11 C :   -0.058171
  12 C :   -0.097953
  13 H :    0.123964
  14 H :    0.110525
  15 H :    0.087712
  16 H :    0.114096
  17 H :    0.094345
  18 H :    0.041295
  19 H :    0.054364
  20 H :    0.053785
  21 H :    0.051861
  22 H :    0.033266
Sum of atomic charges:   -0.0000000

--------------------------------
MULLIKEN REDUCED ORBITAL CHARGES
--------------------------------
  0 C s       :     3.088217  s :     3.088217
      pz      :     1.067734  p :     3.031323
      px      :     1.094090
      py      :     0.869499
      dz2     :     0.008796  d :     0.043601
      dxz     :     0.004903
      dyz     :     0.011423
      dx2y2   :     0.009554
      dxy     :     0.008924

  1 N s       :     3.465921  s :     3.465921
      pz      :     1.595945  p :     3.793693
      px      :     1.116099
      py      :     1.081649
      dz2     :     0.003789  d :     0.028369
      dxz     :     0.005349
      dyz     :     0.005213
      dx2y2   :     0.007067
      dxy     :     0.006952

  2 C s       :     3.025407  s :     3.025407
      pz      :     1.024451  p :     3.009576
      px      :     0.964264
      py      :     1.020862
      dz2     :     0.017400  d :     0.049183
      dxz     :     0.007618
      dyz     :     0.004737
      dx2y2   :     0.008561
      dxy     :     0.010867

  3 C s       :     2.985837  s :     2.985837
      pz      :     0.750765  p :     2.445693
      px      :     0.742923
      py      :     0.952005
      dz2     :     0.043379  d :     0.175962
      dxz     :     0.037766
      dyz     :     0.028304
      dx2y2   :     0.031974
      dxy     :     0.034539

  4 F s       :     3.897071  s :     3.897071
      pz      :     1.854006  p :     5.230709
      px      :     1.708774
      py      :     1.667929
      dz2     :     0.001056  d :     0.007910
      dxz     :     0.001082
      dyz     :     0.001216
      dx2y2   :     0.001706
      dxy     :     0.002851

  5 F s       :     3.894034  s :     3.894034
      pz      :     1.469447  p :     5.231296
      px      :     1.873035
      py      :     1.888813
      dz2     :     0.004023  d :     0.007972
      dxz     :     0.001830
      dyz     :     0.001860
      dx2y2   :     0.000124
      dxy     :     0.000134

  6 F s       :     3.894640  s :     3.894640
      pz      :     1.815366  p :     5.248504
      px      :     1.570249
      py      :     1.862889
      dz2     :     0.001018  d :     0.007620
      dxz     :     0.002312
      dyz     :     0.000513
      dx2y2   :     0.002024
      dxy     :     0.001753

  7 C s       :     2.961775  s :     2.961775
      pz      :     0.957672  p :     2.875748
      px      :     0.934920
      py      :     0.983156
      dz2     :     0.010865  d :     0.056454
      dxz     :     0.015122
      dyz     :     0.009058
      dx2y2   :     0.010251
      dxy     :     0.011158

  8 C s       :     3.292979  s :     3.292979
      pz      :     0.904649  p :     2.734230
      px      :     0.836077
      py      :     0.993504
      dz2     :     0.005506  d :     0.033534
      dxz     :     0.010046
      dyz     :     0.005107
      dx2y2   :     0.007326
      dxy     :     0.005549

  9 C s       :     3.194728  s :     3.194728
      pz      :     0.915937  p :     2.829511
      px      :     0.983925
      py      :     0.929650
      dz2     :     0.005907  d :     0.035080
      dxz     :     0.007552
      dyz     :     0.008083
      dx2y2   :     0.007162
      dxy     :     0.006376

 10 C s       :     3.176485  s :     3.176485
      pz      :     0.990192  p :     2.821040
      px      :     0.883276
      py      :     0.947573
      dz2     :     0.009301  d :     0.034986
      dxz     :     0.006566
      dyz     :     0.005996
      dx2y2   :     0.005095
      dxy     :     0.008028

 11 C s       :     3.189721  s :     3.189721
      pz      :     0.915258  p :     2.833170
      px      :     0.934095
      py      :     0.983816
      dz2     :     0.005950  d :     0.035281
      dxz     :     0.010479
      dyz     :     0.004970
      dx2y2   :     0.007667
      dxy     :     0.006216

 12 C s       :     3.282398  s :     3.282398
      pz      :     0.907669  p :     2.781940
      px      :     0.976661
      py      :     0.897610
      dz2     :     0.005438  d :     0.033615
      dxz     :     0.007663
      dyz     :     0.007642
      dx2y2   :     0.006835
      dxy     :     0.006037

 13 H s       :     0.876036  s :     0.876036

 14 H s       :     0.889475  s :     0.889475

 15 H s       :     0.912288  s :     0.912288

 16 H s       :     0.885904  s :     0.885904

 17 H s       :     0.905655  s :     0.905655

 18 H s       :     0.958705  s :     0.958705

 19 H s       :     0.945636  s :     0.945636

 20 H s       :     0.946215  s :     0.946215

 21 H s       :     0.948139  s :     0.948139

 22 H s       :     0.966734  s :     0.966734


------------------------
MULLIKEN OVERLAP CHARGES
------------------------
B(  0-C ,  1-N ) :   0.7529 B(  0-C ,  2-C ) :  -0.1042 B(  0-C ,  7-C ) :  -0.1397 
B(  0-C , 13-H ) :   0.7616 B(  0-C , 14-H ) :   0.7573 B(  0-C , 15-H ) :   0.7196 
B(  1-N ,  2-C ) :   0.6527 B(  1-N ,  3-C ) :  -0.0762 B(  1-N ,  7-C ) :   0.6029 
B(  1-N ,  8-C ) :  -0.1800 B(  1-N , 12-C ) :  -0.2221 B(  1-N , 13-H ) :  -0.0547 
B(  1-N , 14-H ) :  -0.0671 B(  1-N , 15-H ) :  -0.0680 B(  1-N , 17-H ) :  -0.0658 
B(  2-C ,  3-C ) :   0.5533 B(  2-C ,  4-F ) :  -0.1484 B(  2-C ,  5-F ) :  -0.1468 
B(  2-C ,  6-F ) :  -0.1239 B(  2-C ,  7-C ) :  -0.1423 B(  2-C , 16-H ) :   0.5975 
B(  2-C , 17-H ) :   0.5882 B(  3-C ,  4-F ) :   0.7239 B(  3-C ,  5-F ) :   0.7435 
B(  3-C ,  6-F ) :   0.7206 B(  4-F ,  5-F ) :  -0.0970 B(  4-F ,  6-F ) :  -0.0978 
B(  5-F ,  6-F ) :  -0.0947 B(  7-C ,  8-C ) :   0.1931 B(  7-C ,  9-C ) :   0.4872 
B(  7-C , 10-C ) :  -0.5081 B(  7-C , 11-C ) :   0.5074 B(  7-C , 12-C ) :   0.0750 
B(  7-C , 18-H ) :  -0.1803 B(  7-C , 22-H ) :  -0.1940 B(  8-C , 10-C ) :   0.4312 
B(  8-C , 11-C ) :  -0.4552 B(  8-C , 12-C ) :   0.2875 B(  8-C , 18-H ) :   0.8605 
B(  8-C , 19-H ) :  -0.1705 B(  9-C , 10-C ) :   0.1652 B(  9-C , 11-C ) :   0.4320 
B(  9-C , 12-C ) :  -0.4548 B(  9-C , 18-H ) :  -0.1759 B(  9-C , 19-H ) :   0.8821 
B(  9-C , 20-H ) :  -0.1764 B( 10-C , 11-C ) :   0.2013 B( 10-C , 12-C ) :   0.4050 
B( 10-C , 19-H ) :  -0.1858 B( 10-C , 20-H ) :   0.8846 B( 10-C , 21-H ) :  -0.1836 
B( 11-C , 12-C ) :   0.1163 B( 11-C , 20-H ) :  -0.1773 B( 11-C , 21-H ) :   0.8756 
B( 11-C , 22-H ) :  -0.1831 B( 12-C , 21-H ) :  -0.1676 B( 12-C , 22-H ) :   0.8901 
B( 13-H , 15-H ) :  -0.0670 B( 14-H , 15-H ) :  -0.0819 B( 16-H , 17-H ) :  -0.0601 



                     *******************************
                     * LOEWDIN POPULATION ANALYSIS *
                     *******************************

----------------------
LOEWDIN ATOMIC CHARGES
----------------------
   0 C :   -0.251177
   1 N :   -0.118014
   2 C :   -0.181766
   3 C :    0.110398
   4 F :   -0.043146
   5 F :   -0.039030
   6 F :   -0.058678
   7 C :   -0.013792
   8 C :   -0.120312
   9 C :   -0.118053
  10 C :   -0.124272
  11 C :   -0.119528
  12 C :   -0.133477
  13 H :    0.125462
  14 H :    0.117678
  15 H :    0.094797
  16 H :    0.136082
  17 H :    0.113677
  18 H :    0.126904
  19 H :    0.125186
  20 H :    0.124035
  21 H :    0.123690
  22 H :    0.123336

-------------------------------
LOEWDIN REDUCED ORBITAL CHARGES
-------------------------------
  0 C s       :     2.948230  s :     2.948230
      pz      :     1.127299  p :     3.203056
      px      :     1.138186
      py      :     0.937571
      dz2     :     0.021403  d :     0.099891
      dxz     :     0.011673
      dyz     :     0.024787
      dx2y2   :     0.022669
      dxy     :     0.019359

  1 N s       :     3.118209  s :     3.118209
      pz      :     1.606158  p :     3.935593
      px      :     1.183573
      py      :     1.145863
      dz2     :     0.007251  d :     0.064212
      dxz     :     0.011186
      dyz     :     0.009238
      dx2y2   :     0.018695
      dxy     :     0.017842

  2 C s       :     2.923674  s :     2.923674
      pz      :     1.068435  p :     3.140593
      px      :     1.025447
      py      :     1.046710
      dz2     :     0.041394  d :     0.117499
      dxz     :     0.018244
      dyz     :     0.011420
      dx2y2   :     0.020322
      dxy     :     0.026119

  3 C s       :     2.872482  s :     2.872482
      pz      :     0.825380  p :     2.643197
      px      :     0.821965
      py      :     0.995853
      dz2     :     0.097980  d :     0.373923
      dxz     :     0.076978
      dyz     :     0.054739
      dx2y2   :     0.069107
      dxy     :     0.075119

  4 F s       :     3.736913  s :     3.736913
      pz      :     1.860443  p :     5.293221
      px      :     1.735671
      py      :     1.697107
      dz2     :     0.001788  d :     0.013012
      dxz     :     0.001690
      dyz     :     0.001815
      dx2y2   :     0.002300
      dxy     :     0.005418

  5 F s       :     3.731836  s :     3.731836
      pz      :     1.531409  p :     5.293994
      px      :     1.873467
      py      :     1.889118
      dz2     :     0.007748  d :     0.013200
      dxz     :     0.002486
      dyz     :     0.002647
      dx2y2   :     0.000149
      dxy     :     0.000170

  6 F s       :     3.737795  s :     3.737795
      pz      :     1.827435  p :     5.308363
      px      :     1.614128
      py      :     1.866801
      dz2     :     0.001459  d :     0.012520
      dxz     :     0.004070
      dyz     :     0.000771
      dx2y2   :     0.003476
      dxy     :     0.002744

  7 C s       :     2.841894  s :     2.841894
      pz      :     1.065516  p :     3.028782
      px      :     0.964143
      py      :     0.999122
      dz2     :     0.027382  d :     0.143116
      dxz     :     0.039014
      dyz     :     0.024371
      dx2y2   :     0.024053
      dxy     :     0.028295

  8 C s       :     2.901157  s :     2.901157
      pz      :     1.040536  p :     3.129255
      px      :     1.059538
      py      :     1.029181
      dz2     :     0.014722  d :     0.089900
      dxz     :     0.024727
      dyz     :     0.015034
      dx2y2   :     0.018230
      dxy     :     0.017187

  9 C s       :     2.891092  s :     2.891092
      pz      :     1.044707  p :     3.134612
      px      :     1.068086
      py      :     1.021819
      dz2     :     0.015415  d :     0.092349
      dxz     :     0.022534
      dyz     :     0.017978
      dx2y2   :     0.018664
      dxy     :     0.017759

 10 C s       :     2.890966  s :     2.890966
      pz      :     1.061427  p :     3.141194
      px      :     1.050088
      py      :     1.029680
      dz2     :     0.023510  d :     0.092112
      dxz     :     0.019600
      dyz     :     0.017843
      dx2y2   :     0.012666
      dxy     :     0.018492

 11 C s       :     2.889948  s :     2.889948
      pz      :     1.045558  p :     3.136516
      px      :     1.055381
      py      :     1.035578
      dz2     :     0.015504  d :     0.093064
      dxz     :     0.025398
      dyz     :     0.014543
      dx2y2   :     0.019186
      dxy     :     0.018432

 12 C s       :     2.893360  s :     2.893360
      pz      :     1.041915  p :     3.149597
      px      :     1.070838
      py      :     1.036844
      dz2     :     0.014768  d :     0.090520
      dxz     :     0.023053
      dyz     :     0.017284
      dx2y2   :     0.018331
      dxy     :     0.017085

 13 H s       :     0.874538  s :     0.874538

 14 H s       :     0.882322  s :     0.882322

 15 H s       :     0.905203  s :     0.905203

 16 H s       :     0.863918  s :     0.863918

 17 H s       :     0.886323  s :     0.886323

 18 H s       :     0.873096  s :     0.873096

 19 H s       :     0.874814  s :     0.874814

 20 H s       :     0.875965  s :     0.875965

 21 H s       :     0.876310  s :     0.876310

 22 H s       :     0.876664  s :     0.876664


---------------------------------
LOEWDIN BOND ORDERS (THRESH 0.050000)
---------------------------------
B(  0-C ,  1-N ) :   1.1122 B(  0-C ,  2-C ) :   0.0695 B(  0-C ,  7-C ) :   0.0648 
B(  0-C , 13-H ) :   0.9388 B(  0-C , 14-H ) :   0.9377 B(  0-C , 15-H ) :   0.9289 
B(  1-N ,  2-C ) :   1.1021 B(  1-N ,  3-C ) :   0.0575 B(  1-N ,  7-C ) :   1.0913 
B(  1-N ,  8-C ) :   0.0809 B(  1-N , 12-C ) :   0.0727 B(  2-C ,  3-C ) :   1.0609 
B(  2-C ,  4-F ) :   0.0603 B(  2-C ,  5-F ) :   0.0616 B(  2-C ,  6-F ) :   0.0716 
B(  2-C ,  7-C ) :   0.0640 B(  2-C , 16-H ) :   0.8859 B(  2-C , 17-H ) :   0.8763 
B(  3-C ,  4-F ) :   1.3170 B(  3-C ,  5-F ) :   1.3294 B(  3-C ,  6-F ) :   1.3053 
B(  4-F ,  5-F ) :   0.0781 B(  4-F ,  6-F ) :   0.0785 B(  5-F ,  6-F ) :   0.0778 
B(  7-C ,  8-C ) :   1.4360 B(  7-C ,  9-C ) :   0.0893 B(  7-C , 10-C ) :   0.1130 
B(  7-C , 11-C ) :   0.0898 B(  7-C , 12-C ) :   1.4323 B(  8-C ,  9-C ) :   1.5064 
B(  8-C , 10-C ) :   0.0869 B(  8-C , 11-C ) :   0.1189 B(  8-C , 12-C ) :   0.0854 
B(  8-C , 18-H ) :   0.8795 B(  9-C , 10-C ) :   1.4985 B(  9-C , 11-C ) :   0.0867 
B(  9-C , 12-C ) :   0.1177 B(  9-C , 19-H ) :   0.8876 B( 10-C , 11-C ) :   1.5017 
B( 10-C , 12-C ) :   0.0866 B( 10-C , 20-H ) :   0.8892 B( 11-C , 12-C ) :   1.5045 
B( 11-C , 21-H ) :   0.8873 B( 12-C , 22-H ) :   0.8807 

------------------------------------------
LOEWDIN REDUCED ORBITAL POPULATIONS PER MO
-------------------------------------------
THRESHOLD FOR PRINTING IS 0.1%%
                      0         1         2         3         4         5   
                 -24.28189 -24.27882 -24.27658 -14.01109 -10.11963  -9.94332
                   2.00000   2.00000   2.00000   2.00000   2.00000   2.00000
                  --------  --------  --------  --------  --------  --------
 1 N  s               0.0       0.0       0.0      99.8       0.0       0.0
 2 C  s               0.0       0.0       0.0       0.0       0.0      99.6
 3 C  s               0.0       0.0       0.0       0.0      99.5       0.0
 4 F  s               0.0      99.9       0.0       0.0       0.0       0.0
 5 F  s              99.9       0.0       0.0       0.0       0.0       0.0
 5 F  pz              0.0       0.0       0.0       0.0       0.1       0.0
 6 F  s               0.0       0.0      99.9       0.0       0.0       0.0

                      6         7         8         9        10        11   
                  -9.92663  -9.91735  -9.89544  -9.89461  -9.89374  -9.89339
                   2.00000   2.00000   2.00000   2.00000   2.00000   2.00000
                  --------  --------  --------  --------  --------  --------
 0 C  s               0.0      99.7       0.0       0.0       0.0       0.0
 1 N  py              0.0       0.1       0.0       0.0       0.0       0.0
 7 C  s              99.5       0.0       0.0       0.0       0.0       0.0
 9 C  s               0.0       0.0       0.0       0.1      84.9      14.5
10 C  s               0.0       0.0       0.4       0.0      14.4      84.8
11 C  s               0.0       0.0      97.0       2.2       0.1       0.3
11 C  px              0.0       0.0       0.0       0.1       0.0       0.0
12 C  s               0.0       0.0       2.2      97.3       0.1       0.0
12 C  px              0.1       0.0       0.1       0.0       0.0       0.0

                     12        13        14        15        16        17   
                  -9.88929  -1.18453  -1.09212  -1.08726  -0.86730  -0.77284
                   2.00000   2.00000   2.00000   2.00000   2.00000   2.00000
                  --------  --------  --------  --------  --------  --------
 0 C  s               0.0       0.0       0.0       0.0       7.6       0.8
 0 C  px              0.0       0.0       0.0       0.0       0.0       0.1
 0 C  py              0.0       0.0       0.0       0.0       5.2       0.2
 0 C  dx2y2           0.0       0.0       0.0       0.0       0.2       0.0
 1 N  s               0.0       0.0       0.0       0.0      37.3       1.5
 1 N  pz              0.0       0.0       0.0       0.0       1.6       0.2
 1 N  px              0.0       0.0       0.0       0.0       0.1       1.3
 1 N  py              0.0       0.0       0.0       0.0       0.0       0.4
 2 C  s               0.0       0.9       0.0       0.0       9.9       2.0
 2 C  pz              0.0       0.2       0.1       0.0       1.6       0.1
 2 C  px              0.0       0.1       0.0       0.2       3.2       0.0
 2 C  py              0.0       1.8       0.0       0.0       0.6       0.1
 2 C  dxz             0.0       0.0       0.0       0.0       0.2       0.0
 3 C  s               0.0      20.9       0.0       0.0       0.5       0.2
 3 C  pz              0.0       0.4      14.7       1.8       0.1       0.0
 3 C  px              0.0       0.3       1.1      14.9       0.3       0.0
 3 C  py              0.0       3.5       2.0       0.7       1.8       0.4
 3 C  dz2             0.0       0.1       1.8       0.0       0.0       0.0
 3 C  dxz             0.0       0.0       0.0       0.9       0.0       0.0
 3 C  dyz             0.0       0.0       0.3       0.0       0.0       0.0
 3 C  dx2y2           0.0       0.1       0.0       0.4       0.0       0.0
 3 C  dxy             0.0       0.1       0.3       1.0       0.0       0.0
 4 F  s               0.0      21.4      26.0      26.1       0.2       0.0
 4 F  pz              0.0       0.2       0.0       0.1       0.0       0.0
 4 F  px              0.0       1.0       0.3       0.1       0.0       0.0
 4 F  py              0.0       0.8       0.3       0.3       0.0       0.0
 5 F  s               0.0      23.3      47.4       2.6       0.2       0.0
 5 F  pz              0.0       2.1       0.9       0.0       0.0       0.0
 5 F  px              0.0       0.0       0.0       0.1       0.0       0.0
 6 F  s               0.0      20.0       4.5      49.4       0.0       0.0
 6 F  pz              0.0       0.4       0.0       0.2       0.0       0.0
 6 F  px              0.0       1.5       0.2       0.6       0.0       0.0
 6 F  py              0.0       0.1       0.0       0.2       0.0       0.0
 7 C  s               0.0       0.0       0.0       0.0      10.3       7.1
 7 C  px              0.0       0.0       0.0       0.0       3.5       4.1
 7 C  py              0.1       0.0       0.0       0.0       1.3       1.5
 7 C  dxy             0.0       0.0       0.0       0.0       0.3       0.0
 8 C  s              99.5       0.0       0.0       0.0       1.5      10.3
 8 C  pz              0.0       0.0       0.0       0.0       0.6       1.1
 8 C  px              0.0       0.0       0.0       0.0       0.1       1.5
 8 C  py              0.0       0.0       0.0       0.0       0.6       0.0
 9 C  s               0.1       0.0       0.0       0.0       0.2      11.9
 9 C  pz              0.0       0.0       0.0       0.0       0.0       1.4
 9 C  px              0.1       0.0       0.0       0.0       0.1       0.0
 9 C  py              0.0       0.0       0.0       0.0       0.1       1.1
10 C  s               0.0       0.0       0.0       0.0       0.1      12.5
10 C  px              0.0       0.0       0.0       0.0       0.1       1.9
10 C  py              0.0       0.0       0.0       0.0       0.0       0.8
11 C  s               0.0       0.0       0.0       0.0       0.3      12.3
11 C  pz              0.0       0.0       0.0       0.0       0.0       1.5
11 C  px              0.0       0.0       0.0       0.0       0.2       1.0
12 C  s               0.0       0.0       0.0       0.0       1.7      10.6
12 C  pz              0.0       0.0       0.0       0.0       0.6       1.0
12 C  px              0.0       0.0       0.0       0.0       0.7       0.4
12 C  py              0.0       0.0       0.0       0.0       0.0       1.3
13 H  s               0.0       0.0       0.0       0.0       1.1       0.1
14 H  s               0.0       0.0       0.0       0.0       1.0       0.2
15 H  s               0.0       0.0       0.0       0.0       1.0       0.1
16 H  s               0.0       0.2       0.0       0.0       1.4       0.4
17 H  s               0.0       0.2       0.0       0.0       1.3       0.3
18 H  s               0.1       0.0       0.0       0.0       0.3       1.2
19 H  s               0.0       0.0       0.0       0.0       0.0       1.5
20 H  s               0.0       0.0       0.0       0.0       0.0       1.6
21 H  s               0.0       0.0       0.0       0.0       0.0       1.6
22 H  s               0.0       0.0       0.0       0.0       0.3       1.3

                     18        19        20        21        22        23   
                  -0.69915  -0.67494  -0.66967  -0.60763  -0.58533  -0.54764
                   2.00000   2.00000   2.00000   2.00000   2.00000   2.00000
                  --------  --------  --------  --------  --------  --------
 0 C  s               4.6       3.2       9.1      15.9       1.1       0.7
 0 C  pz              0.1       0.0       0.0       0.0       0.2       0.2
 0 C  px              0.3       0.0       0.2       0.1       0.5       0.2
 0 C  py              0.2       0.0       0.1       2.1       0.6       0.3
 1 N  s               1.1       0.0       0.6       3.7       1.8       0.0
 1 N  pz              0.6       0.2       0.0       0.3       0.6       1.3
 1 N  px              6.9       0.5       1.1       0.1       4.8       0.3
 1 N  py              2.7       3.0       6.4       6.8       0.8       0.0
 2 C  s              21.1       0.0       0.3       0.1       5.3       0.0
 2 C  pz              0.0       0.0       0.0       0.3       0.9       0.4
 2 C  px              1.2       0.0       0.0       2.7       1.0       0.1
 2 C  py              2.3       0.3       1.5       1.2       1.4       0.0
 2 C  dxz             0.0       0.0       0.0       0.1       0.0       0.0
 2 C  dx2y2           0.1       0.0       0.0       0.2       0.0       0.0
 3 C  s               7.6       0.0       0.7       5.6       4.6       0.0
 3 C  pz              0.9       0.0       0.1       0.1       0.5       0.1
 3 C  px              0.8       0.0       0.1       0.1       0.0       0.1
 3 C  py             10.4       0.0       0.6       0.1       3.3       0.1
 3 C  dx2y2           0.1       0.0       0.0       0.0       0.0       0.0
 4 F  s               1.5       0.0       0.2       1.8       3.3       0.0
 4 F  pz              0.0       0.0       0.0       0.3       1.9       0.1
 4 F  px              0.2       0.0       0.0       2.6       6.5       0.1
 4 F  py              1.8       0.0       0.3       2.3       3.5       0.0
 5 F  s               1.5       0.0       0.2       1.8       3.3       0.1
 5 F  pz              1.5       0.0       0.2       5.5      11.9       0.1
 5 F  px              0.1       0.0       0.0       0.0       0.2       0.2
 5 F  py              0.6       0.0       0.0       0.0       0.1       0.1
 6 F  s               1.9       0.0       0.2       2.9       1.7       0.1
 6 F  pz              0.1       0.0       0.0       1.3       2.5       0.0
 6 F  px              1.4       0.0       0.2       5.6       5.6       0.3
 6 F  py              1.0       0.0       0.1       0.6       0.0       0.0
 7 C  s               2.8       3.4       8.1       0.0       0.5       0.0
 7 C  pz              0.0       5.6       1.8       0.0       0.2      11.5
 7 C  px              0.0       0.5       0.7       4.2       3.3       0.8
 7 C  py              0.8       2.5       0.0       0.3       1.3       3.8
 7 C  dxz             0.0       0.1       0.1       0.0       0.0       0.1
 7 C  dyz             0.0       0.1       0.0       0.0       0.0       0.0
 8 C  s               0.0      17.2       0.1       1.6       1.4       6.6
 8 C  pz              0.1       0.1       1.1       0.0       0.0       0.1
 8 C  px              0.6       0.0       2.5       0.3       0.4       4.2
 8 C  py              0.7       0.0       3.1       0.0       0.5       1.1
 8 C  dxy             0.0       0.1       0.0       0.0       0.0       0.0
 9 C  s               1.6       5.0      12.2       0.1       0.1       6.3
 9 C  pz              0.2       0.9       0.3       0.4       0.5       0.0
 9 C  px              0.3       4.3       1.0       1.8       2.3       4.1
 9 C  py              0.0       0.4       0.1       0.2       0.1       1.8
 9 C  dxz             0.0       0.0       0.1       0.0       0.0       0.0
 9 C  dxy             0.0       0.1       0.0       0.0       0.0       0.0
10 C  s               3.0       3.1       9.8       3.1       3.6       0.2
10 C  pz              0.0       4.6       1.7       0.2       0.1       9.5
10 C  px              0.1       0.4       0.3       0.3       0.5       0.7
10 C  py              0.0       1.5       0.5       0.0       0.1       3.3
10 C  dxz             0.0       0.1       0.1       0.0       0.0       0.1
10 C  dyz             0.0       0.1       0.0       0.0       0.0       0.0
11 C  s               0.9      16.8       0.1       0.5       0.0       7.6
11 C  pz              0.2       0.0       1.2       0.2       0.4       0.3
11 C  px              0.2       0.1       2.6       1.1       1.5       2.8
11 C  py              0.4       0.0       3.4       1.1       1.6       0.5
11 C  dxy             0.0       0.1       0.0       0.0       0.0       0.0
12 C  s               0.5       6.1      11.6       1.5       1.9       4.8
12 C  pz              0.2       1.0       0.3       0.0       0.1       0.1
12 C  px              1.0       4.1       0.6       0.1       0.1       5.7
12 C  py              0.2       0.2       0.0       0.1       0.0       2.2
12 C  dxy             0.0       0.2       0.0       0.0       0.0       0.0
13 H  s               1.3       0.6       1.7       5.4       0.2       0.2
14 H  s               0.7       0.8       2.4       5.2       0.9       0.6
15 H  s               0.8       0.8       1.7       4.9       0.7       0.0
16 H  s               4.6       0.0       0.0       0.0       3.7       0.0
17 H  s               4.1       0.0       0.1       0.0       2.5       0.2
18 H  s               0.0       3.8       0.0       0.2       0.4       3.9
19 H  s               0.3       1.1       2.7       0.0       0.0       3.6
20 H  s               0.5       0.7       2.2       1.2       1.6       0.1
21 H  s               0.2       3.7       0.0       0.2       0.0       4.4
22 H  s               0.2       1.6       2.4       0.6       0.6       3.3

                     24        25        26        27        28        29   
                  -0.53363  -0.52120  -0.51648  -0.49653  -0.46250  -0.43513
                   2.00000   2.00000   2.00000   2.00000   2.00000   2.00000
                  --------  --------  --------  --------  --------  --------
 0 C  s               1.6       0.0       1.0       0.1       0.1       0.0
 0 C  pz              0.0       0.0       0.0       0.4       3.0       0.6
 0 C  px              1.2       0.0       0.1       2.6       0.3       5.9
 0 C  py              1.9       0.0       1.8       0.0       1.8       0.9
 1 N  s               1.8       0.0       0.9       0.2       2.2       0.0
 1 N  pz              0.6       0.2       0.0       1.6       2.1       1.9
 1 N  px              6.0       0.0       0.0       5.9       0.7       9.1
 1 N  py              0.1       0.0       0.4       0.4       1.1       0.3
 2 C  s               0.1       0.0       0.0       1.1       1.8       0.3
 2 C  pz              2.4       1.5       0.5       0.4       8.6      14.0
 2 C  px              2.0       2.1       0.2       0.2       0.0       0.5
 2 C  py              4.4       0.3       1.6       8.8       2.5       0.8
 2 C  dyz             0.0       0.0       0.1       0.1       0.0       0.0
 2 C  dxy             0.0       0.0       0.0       0.0       0.1       0.0
 3 C  s               0.1       0.0       0.1       0.4       0.4       0.0
 3 C  pz              5.0       7.2       4.9       0.2       0.8       0.6
 3 C  px              0.0       7.1      11.6       0.1       0.3       0.0
 3 C  py              3.5       3.4       1.4       6.8       2.5       0.0
 3 C  dyz             0.0       0.0       0.0       0.0       0.2       0.2
 4 F  s               0.1       5.4       0.4       0.3       0.0       0.0
 4 F  pz              2.8       0.3       4.5       1.4       1.5       0.0
 4 F  px              0.6      13.2       0.9       4.3       0.2       0.6
 4 F  py              0.2      18.1       4.8       0.0       1.8       0.0
 4 F  dxy             0.0       0.1       0.0       0.0       0.0       0.0
 5 F  s               1.9       2.9       1.1       0.0       0.1       0.0
 5 F  pz             10.0      17.5       5.1       0.3       1.9       2.5
 5 F  px              0.4       1.2       8.2       0.0       0.0       0.3
 5 F  py              0.3       3.1       1.1       4.0       4.3       0.9
 6 F  s               0.2       0.2       5.6       0.0       0.0       0.0
 6 F  pz              0.8       5.5       5.8       0.3       0.8       0.0
 6 F  px              0.9       0.3      27.9       0.0       0.2       1.5
 6 F  py              2.0       2.4       1.4       3.5       1.6       0.0
 7 C  s               3.7       0.4       0.1       0.6       0.5       0.1
 7 C  pz              0.1       0.0       0.3       0.0       0.0       0.7
 7 C  px              0.0       0.2       0.1       5.1       0.5       0.4
 7 C  py              0.0       0.0       0.1       2.8       0.0       2.2
 7 C  dz2             0.0       0.0       0.0       0.0       0.1       0.1
 7 C  dxy             0.0       0.0       0.0       0.0       0.1       0.2
 8 C  s               0.6       0.1       0.3       0.1       1.4       0.3
 8 C  pz              2.2       0.7       0.4       4.6       1.8       0.0
 8 C  px              1.0       0.0       0.1       0.3       3.4       5.3
 8 C  py              3.4       0.3       0.1       1.7       0.0       1.7
 9 C  s               2.0       0.2       0.0       2.0       0.3       0.5
 9 C  pz              2.5       0.4       0.3       4.2       1.3       0.1
 9 C  px              2.7       0.3       0.6       0.0       0.0       3.1
 9 C  py              0.0       0.0       0.0       2.2       1.0       1.0
10 C  s               3.8       0.2       0.3       0.3       1.1       1.1
10 C  pz              0.1       0.0       0.2       0.1       0.4       1.5
10 C  px              1.0       0.0       0.0       0.5       8.3       4.1
10 C  py              0.2       0.0       0.2       0.4       2.0       5.2
11 C  s               1.0       0.3       0.5       1.2       0.1       1.2
11 C  pz              2.3       0.4       0.3       4.6       1.4       0.3
11 C  px              0.9       0.0       0.0       0.7       4.3       0.5
11 C  py              3.1       0.2       0.1       1.3       0.2       0.7
12 C  s               1.3       0.0       0.0       0.4       0.2       2.2
12 C  pz              2.9       0.6       0.2       5.6       1.5       1.6
12 C  px              3.2       0.4       0.6       1.0       2.2       0.0
12 C  py              0.0       0.0       0.0       1.8       3.0       0.7
13 H  s               2.0       0.0       0.8       0.8       0.1       0.4
14 H  s               0.4       0.0       0.5       0.2       0.0       3.2
15 H  s               0.8       0.0       0.7       0.0       2.3       0.2
16 H  s               0.0       0.8       0.2       1.8       1.5       0.5
17 H  s               0.8       0.6       0.1       0.7       6.2       7.5
18 H  s               0.4       0.4       0.2       1.4       3.2       1.6
19 H  s               1.4       0.2       0.0       4.1       0.4       0.0
20 H  s               2.4       0.1       0.2       0.0       5.8       6.0
21 H  s               0.8       0.3       0.4       3.1       1.4       0.4
22 H  s               1.0       0.1       0.0       2.4       2.8       3.0

                     30        31        32        33        34        35   
                  -0.43215  -0.41579  -0.39790  -0.39255  -0.39140  -0.38221
                   2.00000   2.00000   2.00000   2.00000   2.00000   2.00000
                  --------  --------  --------  --------  --------  --------
 0 C  s               1.0       0.1       0.0       0.0       0.0       0.1
 0 C  pz              6.4       2.4       0.7       0.2       0.0       1.3
 0 C  px              0.2       0.4       1.3       1.3       0.5       6.3
 0 C  py             12.7       3.3       1.1       1.3       0.3       4.4
 0 C  dz2             0.2       0.0       0.0       0.0       0.0       0.0
 0 C  dx2y2           0.1       0.1       0.0       0.0       0.0       0.1
 1 N  s               0.1       0.0       0.1       0.0       0.0       0.0
 1 N  pz              4.5       3.0       0.0       0.0       0.1       0.6
 1 N  px              2.2       1.4       0.2       0.0       0.0       0.0
 1 N  py             15.1       3.5       0.3       2.1       0.3       5.9
 1 N  dx2y2           0.0       0.0       0.0       0.0       0.0       0.1
 2 C  s               0.2       0.9       0.0       0.1       0.0       0.6
 2 C  pz              0.9       1.4       1.8       1.0       0.4       6.6
 2 C  px             17.1       1.1       0.5       0.6       0.2       2.9
 2 C  py              1.7       0.2       0.2       0.1       0.0       0.2
 2 C  dxz             0.1       0.0       0.0       0.0       0.0       0.0
 2 C  dxy             0.1       0.2       0.0       0.0       0.0       0.2
 3 C  s               0.0       0.2       0.0       0.0       0.0       0.0
 3 C  pz              0.0       0.0       0.0       0.3       0.9       1.0
 3 C  px              0.6       0.0       0.3       0.3       0.5       0.6
 3 C  py              0.1       0.5       0.0       0.1       0.0       0.1
 3 C  dz2             0.0       0.0       0.0       0.5       0.3       1.0
 3 C  dxz             0.0       0.0       0.2       0.8       1.3       0.1
 3 C  dyz             0.0       0.1       0.1       0.1       0.5       0.0
 3 C  dx2y2           0.1       0.1       0.0       0.8       0.2       0.1
 3 C  dxy             0.4       0.0       0.0       0.1       0.1       0.0
 4 F  pz              1.6       0.9       1.5       0.8      26.3       3.0
 4 F  px              1.2       0.5       1.7       6.2       5.8       3.4
 4 F  py              0.1       1.6       0.5      21.3       0.3       0.0
 5 F  pz              0.0       0.0       0.0       0.2       3.6       3.3
 5 F  px              1.3       0.1       3.8      20.0      10.9       5.9
 5 F  py              0.1       3.6       1.1       2.7      11.6       0.3
 6 F  pz              2.2       0.1       0.0      17.5       0.5       7.6
 6 F  px              1.5       0.2       0.8       8.9       1.7       3.6
 6 F  py              0.4       1.0       1.8       4.2      17.4       1.0
 7 C  s               0.0       0.4       3.3       0.0       0.2       0.2
 7 C  pz              1.0       6.4       1.7       0.3       1.9       0.6
 7 C  px              1.9       2.7       1.6       0.1       0.0       0.9
 7 C  py              2.9       0.3       0.0       1.0       0.1       2.4
 7 C  dx2y2           0.1       0.0       0.0       0.0       0.0       0.1
 8 C  s               0.1       1.2       0.8       0.1       0.5       0.0
 8 C  pz              0.7       2.9       1.2       0.5       0.1       2.4
 8 C  px              0.0       0.7       2.2       0.1       0.2       0.3
 8 C  py              0.3       4.0       0.0       0.2       0.9       1.4
 8 C  dxz             0.0       0.1       0.2       0.0       0.0       0.0
 8 C  dyz             0.0       0.0       0.1       0.0       0.0       0.0
 9 C  s               0.1       0.8       0.7       0.0       0.1       0.0
 9 C  pz              0.2       0.3       9.6       0.3       1.2       0.0
 9 C  px              0.0       7.6       0.4       0.1       0.0       1.1
 9 C  py              0.0       1.6       3.9       0.0       1.5       1.1
 9 C  dxz             0.0       0.0       0.2       0.0       0.0       0.0
10 C  s               0.1       0.5       1.5       0.0       0.1       0.2
10 C  pz              0.0       6.4       1.2       0.3       0.6       1.1
10 C  px              0.9       3.5       2.7       0.2       0.0       0.8
10 C  py              0.1       0.5       0.0       0.8       0.1       2.5
11 C  s               0.0       0.4       0.7       0.0       0.2       0.0
11 C  pz              0.0       2.1       2.8       0.6       0.1       3.2
11 C  px              0.2       2.6       5.9       0.0       0.0       0.0
11 C  py              0.0       4.8       0.1       0.3       0.3       1.4
11 C  dxz             0.0       0.0       0.2       0.0       0.0       0.0
12 C  s               0.1       0.2       0.4       0.0       0.0       0.1
12 C  pz              0.3       0.5       7.4       0.5       1.6       0.1
12 C  px              0.0       8.5       2.3       0.1       0.4       0.5
12 C  py              0.7       1.4       1.5       0.0       1.2       1.6
12 C  dxz             0.0       0.0       0.3       0.0       0.0       0.0
13 H  s               0.1       2.0       0.0       0.6       0.1       5.5
14 H  s               1.5       0.6       1.6       0.1       0.3       0.1
15 H  s               7.1       0.2       0.3       0.4       0.0       0.0
16 H  s               8.0       1.7       0.8       0.4       0.1       3.9
17 H  s               0.0       1.2       1.0       0.2       0.8       3.1
18 H  s               0.3       1.8       3.6       0.1       0.1       0.4
19 H  s               0.0       1.5       8.8       0.1       1.7       0.6
20 H  s               0.5       1.7       0.1       0.5       0.1       0.9
21 H  s               0.0       0.3       6.5       0.1       0.0       1.4
22 H  s               0.0       0.8       5.5       0.1       1.6       1.1

                     36        37        38        39        40        41   
                  -0.37931  -0.37182  -0.35537  -0.34585  -0.34153  -0.33321
                   2.00000   2.00000   2.00000   2.00000   2.00000   2.00000
                  --------  --------  --------  --------  --------  --------
 0 C  pz             12.6      21.6       0.0       0.0       1.1       0.3
 0 C  px              0.4       0.5      24.9       2.4       0.5       1.8
 0 C  py              0.3       0.8       1.6       0.1       0.0       0.1
 0 C  dz2             0.1       0.2       0.0       0.0       0.0       0.0
 0 C  dxz             0.0       0.0       0.2       0.0       0.0       0.0
 0 C  dxy             0.0       0.0       0.4       0.1       0.0       0.0
 1 N  s               0.0       0.0       0.0       0.2       0.0       0.0
 1 N  pz              0.4       0.7       0.6       0.2       0.2       0.1
 1 N  px              0.1       0.7       3.1       1.5       0.0       0.1
 1 N  py              0.0       0.1       1.0       0.5       0.0       0.1
 1 N  dyz             0.1       0.1       0.0       0.0       0.0       0.0
 1 N  dxy             0.0       0.0       0.4       0.1       0.0       0.0
 2 C  s               0.1       0.2       0.6       0.1       0.0       0.1
 2 C  pz              2.0       0.2       1.0       1.8       2.8       0.0
 2 C  px              2.5       1.5       1.5       0.8       4.1       0.5
 2 C  py              1.1       1.2       0.2       0.5       1.0       1.3
 2 C  dz2             0.1       0.1       0.0       0.0       0.1       0.0
 2 C  dxy             0.0       0.0       0.0       0.1       0.1       0.0
 3 C  pz              0.1       0.1       0.2       0.4       0.2       0.0
 3 C  px              0.1       0.3       0.2       0.3       0.2       0.1
 3 C  py              0.1       0.2       0.1       0.1       0.1       0.4
 3 C  dz2             0.0       0.0       0.2       0.1       0.2       0.0
 3 C  dxz             0.1       0.1       0.1       0.1       0.0       0.0
 3 C  dyz             0.0       0.1       0.0       0.3       0.1       0.0
 3 C  dx2y2           0.0       0.0       0.0       0.2       0.0       0.0
 3 C  dxy             0.2       0.2       0.3       0.1       0.2       0.1
 4 F  pz              1.9       0.0       1.1       2.2      15.5       7.3
 4 F  px              0.8       1.5       1.8       4.3      15.9       0.8
 4 F  py              0.0       1.0       0.1       1.6      10.5       0.5
 5 F  pz              0.6       0.1       1.6       3.9       1.9       0.6
[...]
 8 C  s               0.0       0.0       0.0       1.1       0.2       0.0
 8 C  pz              0.7       0.0       0.0       0.0       0.0       0.0
 8 C  px              0.6       0.0       0.0       0.0       0.0       0.0
 8 C  py              1.2       0.0       0.0       0.0       0.0       0.0
 8 C  dz2             3.4       0.0       0.0       1.3       0.1       0.0
 8 C  dxz             0.0       0.0       0.0       4.7       0.6       0.0
 8 C  dyz             2.1       0.0       0.0       1.1       0.2       0.0
 8 C  dx2y2           2.0       0.0       0.0       0.5       0.1       0.0
 8 C  dxy             2.1       0.1       0.0       4.5       0.6       0.0
 9 C  s               0.2       0.0       0.0       1.0       0.1       0.0
 9 C  pz              0.1       0.0       0.0       0.1       0.0       0.0
 9 C  px              1.0       0.0       0.0       0.0       0.0       0.0
 9 C  py              0.2       0.0       0.0       0.0       0.0       0.0
 9 C  dz2             1.4       0.0       0.0       0.7       0.1       0.0
 9 C  dxz             0.3       0.0       0.0       3.9       0.5       0.0
 9 C  dyz             0.2       0.0       0.0       2.0       0.2       0.0
 9 C  dx2y2           0.1       0.0       0.0       3.8       0.5       0.0
 9 C  dxy             1.9       0.0       0.0       0.3       0.0       0.0
10 C  s               0.0       0.0       0.0       1.2       0.1       0.0
10 C  pz              0.4       0.0       0.0       0.0       0.0       0.0
10 C  py              0.1       0.0       0.0       0.0       0.0       0.0
10 C  dz2             0.0       0.0       0.0       3.7       0.4       0.0
10 C  dxz             1.0       0.0       0.0       1.0       0.1       0.0
10 C  dyz             0.6       0.0       0.0       3.0       0.4       0.0
10 C  dx2y2           0.7       0.0       0.0       0.5       0.1       0.0
10 C  dxy             0.1       0.0       0.0       1.8       0.2       0.0
11 C  s               0.1       0.0       0.0       1.0       0.1       0.0
11 C  pz              0.1       0.0       0.0       0.1       0.0       0.0
11 C  px              0.5       0.0       0.0       0.0       0.0       0.0
11 C  py              0.5       0.0       0.0       0.0       0.0       0.0
11 C  dz2             0.9       0.0       0.0       0.9       0.1       0.0
11 C  dxz             0.0       0.0       0.0       4.2       0.5       0.0
11 C  dyz             0.8       0.0       0.0       1.1       0.1       0.0
11 C  dx2y2           0.6       0.0       0.0       0.5       0.1       0.0
11 C  dxy             0.4       0.0       0.0       3.8       0.4       0.0
12 C  s               0.2       0.0       0.0       1.1       0.1       0.0
12 C  pz              0.8       0.0       0.0       0.1       0.0       0.0
12 C  px              1.4       0.0       0.0       0.0       0.0       0.0
12 C  dz2             3.3       0.0       0.0       0.9       0.1       0.0
12 C  dxz             2.1       0.1       0.0       3.8       0.4       0.0
12 C  dyz             0.6       0.0       0.0       2.3       0.3       0.0
12 C  dx2y2           0.1       0.0       0.0       4.2       0.5       0.0
12 C  dxy             2.6       0.0       0.0       0.4       0.1       0.0
18 H  s               0.0       0.0       0.0       0.5       0.0       0.0
19 H  s               0.0       0.0       0.0       0.4       0.1       0.0
20 H  s               0.0       0.0       0.0       0.4       0.0       0.0
21 H  s               0.0       0.0       0.0       0.4       0.1       0.0
22 H  s               0.0       0.0       0.0       0.5       0.1       0.0

                    198       199       200       201   
                   3.45358   3.55301   3.74461   3.77661
                   0.00000   0.00000   0.00000   0.00000
                  --------  --------  --------  --------
 1 N  dz2             0.2       0.0       0.0       0.0
 1 N  dxz             0.3       0.0       0.0       0.0
 1 N  dxy             0.0       0.0       0.0       0.1
 2 C  py              0.1       0.1       0.0       0.0
 2 C  dz2             0.2       0.1       0.0       0.0
 2 C  dxz             0.2       0.0       0.1       0.1
 2 C  dyz             0.2       0.1       0.1       0.1
 2 C  dx2y2           0.0       0.2       0.0       0.0
 2 C  dxy             0.6       0.1       0.0       0.1
 3 C  s               0.0       5.4       0.0       0.1
 3 C  pz              0.4       0.1       2.8       1.4
 3 C  px              0.4       0.2       1.0       2.8
 3 C  py              0.0       1.4       0.5       0.1
 3 C  dz2             0.1       0.8       7.5       1.3
 3 C  dxz             3.8       0.1       0.1       5.0
 3 C  dyz             8.4       1.2       0.7       0.0
 3 C  dx2y2           0.0       2.9       0.0       1.9
 3 C  dxy             2.8       1.2       2.3       2.9
 4 F  s               0.1       0.9       2.6       1.6
 4 F  pz              0.4       0.0       0.3       0.0
 4 F  px              0.0       0.1       0.7       0.5
 4 F  py              0.0       0.9       0.8       0.4
 4 F  dz2             8.0       4.0       4.2       2.9
 4 F  dxz             9.9       0.1       5.1       0.8
 4 F  dyz            14.9       2.5       6.2       0.3
 4 F  dx2y2           1.2       4.5       0.2       0.0
 4 F  dxy             1.3      15.6      19.0      10.6
 5 F  s               0.2       0.8       2.8       1.5
 5 F  pz              0.0       0.5       1.9       0.8
 5 F  px              0.2       0.1       0.1       0.0
 5 F  py              0.1       0.3       0.0       0.0
 5 F  dz2             0.1      12.9      33.0      12.5
 5 F  dxz            14.2       2.3       4.6       0.0
 5 F  dyz            12.0       9.0       0.6       0.9
 5 F  dx2y2           1.9       0.1       0.0       0.1
 5 F  dxy             0.3       0.1       0.1       0.0
 6 F  s               0.2       1.1       0.0       4.3
 6 F  pz              0.0       0.0       0.1       0.5
 6 F  px              0.0       0.6       0.0       1.9
 6 F  py              0.1       0.4       0.0       0.1
 6 F  dz2             0.5       2.7       0.6       2.0
 6 F  dxz             0.8       5.1       0.5      19.4
 6 F  dyz             0.3       3.3       0.4       1.4
 6 F  dx2y2           5.8       6.7       0.6      15.6
 6 F  dxy             8.8      11.8       0.0       5.7


                      *****************************
                      * MAYER POPULATION ANALYSIS *
                      *****************************

  NA   - Mulliken gross atomic population
  ZA   - Total nuclear charge
  QA   - Mulliken gross atomic charge
  VA   - Mayer's total valence
  BVA  - Mayer's bonded valence
  FA   - Mayer's free valence

  ATOM       NA         ZA         QA         VA         BVA        FA
  0 C      6.1631     6.0000    -0.1631     3.9211     3.9211    -0.0000
  1 N      7.2880     7.0000    -0.2880     3.1412     3.1412     0.0000
  2 C      6.0842     6.0000    -0.0842     3.8803     3.8803     0.0000
  3 C      5.6075     6.0000     0.3925     4.5839     4.5839     0.0000
  4 F      9.1357     9.0000    -0.1357     1.2245     1.2245    -0.0000
  5 F      9.1333     9.0000    -0.1333     1.2307     1.2307    -0.0000
  6 F      9.1508     9.0000    -0.1508     1.2104     1.2104     0.0000
  7 C      5.8940     6.0000     0.1060     3.9703     3.9703     0.0000
  8 C      6.0607     6.0000    -0.0607     3.8622     3.8622    -0.0000
  9 C      6.0593     6.0000    -0.0593     3.7940     3.7940    -0.0000
 10 C      6.0325     6.0000    -0.0325     3.7970     3.7970    -0.0000
 11 C      6.0582     6.0000    -0.0582     3.8213     3.8213    -0.0000
 12 C      6.0980     6.0000    -0.0980     3.8061     3.8061    -0.0000
 13 H      0.8760     1.0000     0.1240     0.9615     0.9615    -0.0000
 14 H      0.8895     1.0000     0.1105     0.9585     0.9585    -0.0000
 15 H      0.9123     1.0000     0.0877     0.9520     0.9520     0.0000
 16 H      0.8859     1.0000     0.1141     0.9705     0.9705    -0.0000
 17 H      0.9057     1.0000     0.0943     0.9723     0.9723     0.0000
 18 H      0.9587     1.0000     0.0413     0.9877     0.9877    -0.0000
 19 H      0.9456     1.0000     0.0544     0.9498     0.9498    -0.0000
 20 H      0.9462     1.0000     0.0538     0.9494     0.9494    -0.0000
 21 H      0.9481     1.0000     0.0519     0.9496     0.9496    -0.0000
 22 H      0.9667     1.0000     0.0333     0.9639     0.9639     0.0000

  Mayer bond orders larger than 0.100000
B(  0-C ,  1-N ) :   1.0353 B(  0-C , 13-H ) :   0.9552 B(  0-C , 14-H ) :   0.9520 
B(  0-C , 15-H ) :   0.9267 B(  1-N ,  2-C ) :   1.0354 B(  1-N ,  7-C ) :   0.9848 
B(  2-C ,  3-C ) :   1.0437 B(  2-C , 16-H ) :   0.8986 B(  2-C , 17-H ) :   0.8777 
B(  3-C ,  4-F ) :   1.1516 B(  3-C ,  5-F ) :   1.1623 B(  3-C ,  6-F ) :   1.1458 
B(  7-C ,  8-C ) :   1.4281 B(  7-C , 12-C ) :   1.3713 B(  8-C ,  9-C ) :   1.3417 
B(  8-C , 18-H ) :   0.9576 B(  9-C , 10-C ) :   1.3719 B(  9-C , 19-H ) :   0.9619 
B( 10-C , 11-C ) :   1.3815 B( 10-C , 20-H ) :   0.9662 B( 11-C , 12-C ) :   1.3507 
B( 11-C , 21-H ) :   0.9598 B( 12-C , 22-H ) :   0.9624 

-------
TIMINGS
-------

Total SCF time: 0 days 0 hours 0 min 11 sec 

Total time                  ....      11.760 sec
Sum of individual times     ....      11.290 sec  ( 96.0%)

SCF preparation             ....       0.227 sec  (  1.9%)
Fock matrix formation       ....      10.116 sec  ( 86.0%)
  Startup                   ....       0.067 sec  (  0.7% of F)
  Split-RI-J                ....       4.540 sec  ( 44.9% of F)
  XC integration            ....       5.013 sec  ( 49.6% of F)
    Basis function eval.    ....       1.815 sec  ( 36.2% of XC)
    Density eval.           ....       0.847 sec  ( 16.9% of XC)
    XC-Functional eval.     ....       0.374 sec  (  7.5% of XC)
    XC-Potential eval.      ....       1.259 sec  ( 25.1% of XC)
Diagonalization             ....       0.000 sec  (  0.0%)
Density matrix formation    ....       0.200 sec  (  1.7%)
Total Energy calculation    ....       0.030 sec  (  0.3%)
Population analysis         ....       0.119 sec  (  1.0%)
Orbital Transformation      ....       0.079 sec  (  0.7%)
Orbital Orthonormalization  ....       0.000 sec  (  0.0%)
DIIS solution               ....       0.410 sec  (  3.5%)
  MO trafo                  ....       0.000 sec  (  0.0 % of DIIS)
  Orb grad                  ....       0.000 sec  (  0.0 % of DIIS)
  Energy W gradient         ....       0.000 sec  (  0.0 % of DIIS)
  DIIS error                ....       0.007 sec  (  1.7 % of DIIS)
  DIIS work                 ....       0.330 sec  ( 80.4 % of DIIS)
  Form Q                    ....       0.000 sec  (  0.0 % of DIIS)
  Form QpQm                 ....       0.000 sec  (  0.0 % of DIIS)
  Exp/Cayley                ....       0.000 sec  (  0.0 % of DIIS)
  Orb update                ....       0.000 sec  (  0.0 % of DIIS)
  Wake-sleep                ....       0.024 sec  (  5.7 % of DIIS)
SOSCF solution              ....       0.108 sec  (  0.9%)
  MO trafo                  ....       0.058 sec  ( 53.5 % of SOSCF)
  Orb grad                  ....       0.001 sec  (  1.0 % of SOSCF)
  Rot update                ....       0.028 sec  ( 25.5 % of SOSCF)
  Step                      ....       0.021 sec  ( 19.9 % of SOSCF)
Finished LeanSCF after  11.9 sec

Maximum memory used throughout the entire LEANSCF-calculation: 18.8 MB


-------------------------------------------------------------------------------
                          DFT DISPERSION CORRECTION                            
                                                                               
                                DFTD4 V3.4.0                                   
-------------------------------------------------------------------------------
The PBE functional is recognized
Active option DFTDOPT                   ...         5   

-------------------------   ----------------
Dispersion correction           -0.026254653
-------------------------   ----------------

------------------   -----------------
gCP correction             0.117491076
------------------   -----------------

-------------------------   --------------------
FINAL SINGLE POINT ENERGY      -701.820239551074
-------------------------   --------------------


------------------------------------------------------------------------------
                              ORCA PROPERTY CALCULATIONS
------------------------------------------------------------------------------

GBWName                                 ... sp.gbw
Number of atoms                         ...     23
Number of basis functions               ...    202
Max core memory                         ...   1024 MB

Electric properties:
Dipole moment                           ... YES
Quadrupole moment                       ...  NO
Static polarizability (Dipole/Dipole)   ...  NO
Static polarizability (Dipole/Quad.)    ...  NO
Static polarizability (Quad./Quad.)     ...  NO
Static polarizability (Velocity)        ...  NO

Atomic electric properties:
Dipole moment                           ...  NO
Quadrupole moment                       ...  NO
Static polarizability                   ...  NO

Choice of electric origin               ... Center of mass
Position of electric origin             ...     0.000031     0.000027    -0.000000

General magnetic properties:
Magnetizability                         ...  NO

EPR properties:
g-Tensor (aka g-matrix)                 ...  NO
Zero-Field splitting spin-orbit         ...  NO
Zero-field splitting spin-spin          ...  NO
Hyperfine couplings                     ...  NO (   0 nuclei)
Quadrupole couplings                    ...  NO (   0 nuclei)
Contact density                         ...  NO (   0 nuclei)

NMR properties:
Chemical shifts                         ...  NO (   0 nuclei)
Spin-rotation constants                 ...  NO (   0 nuclei)
Spin-spin couplings                     ...  NO (   0 nuclei,    0 pairs)

Choice of magnetic origin               ... GIAO
Position of magnetic origin             ...     0.000000     0.000000     0.000000

Properties with geometric perturbations:
SCF Hessian                             ...  NO
IR spectrum                             ...  NO
VCD spectrum                            ...  NO
X-ray spectroscopy properties:
SCF XES/XAS/RIXS spectra                ...  NO


-------------
DIPOLE MOMENT
-------------

Method             : SCF
Type of density    : Electron Density
Multiplicity       :   1
Irrep              :   0
Energy             :  -701.9114759736023643 Eh
Relativity type    : 
Basis              : AO
                                X                 Y                 Z
Electronic contribution:    -13.118408260     -11.551414723       0.910162814
Nuclear contribution   :     13.457535575      12.331541698      -1.225486465
                        -----------------------------------------
Total Dipole Moment    :      0.339127314       0.780126975      -0.315323651
                        -----------------------------------------
Magnitude (a.u.)       :      0.907212455
Magnitude (Debye)      :      2.305950803



--------------------
Rotational spectrum 
--------------------
 
Rotational constants in cm-1:             0.043366             0.019815             0.016542 
Rotational constants in MHz :          1300.078035           594.034667           495.920939 

Dipole components along the rotational axes: 
x,y,z [a.u.] :     0.393387     0.788061    -0.217352 
x,y,z [Debye]:     0.999909     2.003091    -0.552465 

 

Dipole moment calculation done in   0.0 sec 

Maximum memory used throughout the entire PROP-calculation: 12.3 MB

--------------------------------
SUGGESTED CITATIONS FOR THIS RUN
--------------------------------

Below you find a list of papers that are relevant to this ORCA run
We neither can nor want to force you to cite these papers, but we appreciate if you do
You receive ORCA, which is the product of decades of hard work by many enthusiastic individuals, for free
The only thing we kindly ask in return is that you cite our papers,
We deeply appreciate it, if you show your appreciation for ORCA by not just citing the generic ORCA reference.

Please note that relegating all ORCA citations to the supporting information does *not* help us.
SI sections are not indexed - citations you put there will not count into any citation statistics
But we need these citations in order to attract the funding resources that allow us to do what we are doing

Therefore, if you are a happy ORCA user, please consider citing a few of the papers listed below in the main body of your paper

In addition to the list printed below, the program has created the file sp.bibtex that contains the list in bibtex format
You can import this file easily into all common literature databanks and citation aid programs


List of essential papers. We consider these as the minimum necessary citations

  1. Neese,F.
     Software update: the ORCA program system, version 5.0
     WIRES Comput. Molec. Sci., 2022 12(1)e1606
     doi.org/10.1002/wcms.1606

List of papers to cite with high priority. The work reported in these papers was absolutely
necessary for this run to complete.
Our perspective: the developers of density functionals and basis sets usually get cited in chemistry papers
Good! But without the algorithms to do something with them, the functionals or basis sets would not do anything.
Hence, in our opinion, the algorithm design and method developments papers are equally worthy of getting cited

  1. Neese,F.
     An improvement of the resolution of the identity approximation for the formation of the Coulomb matrix
     J. Comp. Chem., 2003 24(14)1740-1747
     doi.org/10.1002/jcc.10318
  2. Neese,F.
     The SHARK Integral Generation and Digestion System
     J. Comp. Chem., 2022  1-16
     doi.org/10.1002/jcc.26942
  3. Caldeweyher,E.; Bannwarth,C.; Grimme,S.
     Extension of the D3 dispersion coefficient model
     J. Chem. Phys., 2017 147 034112-XXXX
     doi.org/10.1063/1.4993215
  4. Caldeweyher,E.; Ehlert,S.; Hansen,A.; Neugebauer,H.; Spicher,S.; Bannwarth,C.; Grimme,S.
     A generally applicable atomic-charge dependent London dispersion correction
     J. Chem. Phys., 2019 150 154122-XXXX
     doi.org/10.1063/1.5090222
  5. Caldeweyher,E.; Mewes,J.; Ehlert,S.; Grimme,S.
     Extension and evaluation of the D4 London-dispersion model for periodic systems
     Phys. Chem. Chem. Phys., 2020 22(16)8499-8512
     doi.org/10.1039/D0CP00502A

List of suggested additional citations. These are papers that are important in the 'surrounding' of 
of this run, or papers that preceded the highly important papers. If you like your results we are grateful for a citation.

  1. Neese,F.
     The ORCA program system
     WIRES Comput. Molec. Sci., 2012 2(1)73-78
     doi.org/10.1002/wcms.81
  2. Neese,F.
     Software update: the ORCA program system, version 4.0
     WIRES Comput. Molec. Sci., 2018 8(1)1-6
     doi.org/10.1002/wcms.1327
  3. Neese,F.; Wennmohs,F.; Becker,U.; Riplinger,C.
     The ORCA quantum chemistry program package
     J. Chem. Phys., 2020 152 Art. No. L224108
     doi.org/10.1063/5.0004608

List of optional additional citations

  1. Neese,F.
     Approximate second-order SCF convergence for spin unrestricted wavefunctions
     Chem. Phys. Lett., 2000 325(1-3)93-98
     doi.org/10.1016/s0009-2614(00)00662-x

Timings for individual modules:

Sum of individual times          ...       14.323 sec (=   0.239 min)
Startup calculation              ...        1.115 sec (=   0.019 min)   7.8 %
SCF iterations                   ...       13.092 sec (=   0.218 min)  91.4 %
Property calculations            ...        0.115 sec (=   0.002 min)   0.8 %
                             ****ORCA TERMINATED NORMALLY****
TOTAL RUN TIME: 0 days 0 hours 0 minutes 15 seconds 175 msec
