
                                 *****************
                                 * O   R   C   A *
                                 *****************

                                            #,                                       
                                            ###                                      
                                            ####                                     
                                            #####                                    
                                            ######                                   
                                           ########,                                 
                                     ,,################,,,,,                         
                               ,,#################################,,                 
                          ,,##########################################,,             
                       ,#########################################, ''#####,          
                    ,#############################################,,   '####,        
                  ,##################################################,,,,####,       
                ,###########''''           ''''###############################       
              ,#####''   ,,,,##########,,,,          '''####'''          '####       
            ,##' ,,,,###########################,,,                        '##       
           ' ,,###''''                  '''############,,,                           
         ,,##''                                '''############,,,,        ,,,,,,###''
      ,#''                                            '''#######################'''  
     '                                                          ''''####''''         
             ,#######,   #######,   ,#######,      ##                                
            ,#'     '#,  ##    ##  ,#'     '#,    #''#        ,####,   ,####,        
            ##       ##  ##   ,#'  ##            #'  '#       #'       #'  '#        
            ##       ##  #######   ##           ,######,      #####,   #    #        
            '#,     ,#'  ##    ##  '#,     ,#' ,#      #,     #,   #   #,  ,#        
             '#######'   ##     ##  '#######'  #'      '#     '####' # '####'        



                #########################################################
                #                        -***-                          #
                #          Department of theory and spectroscopy        #
                #                                                       #
                #                      Frank Neese                      #
                #                                                       #
                #     Directorship, Architecture, Infrastructure        #
                #                    SHARK, DRIVERS                     #
                #        Core code/Algorithms in most modules           #
                #                                                       #
                #        Max Planck Institute fuer Kohlenforschung      #
                #                Kaiser Wilhelm Platz 1                 #
                #                 D-45470 Muelheim/Ruhr                 #
                #                      Germany                          #
                #                                                       #
                #                  All rights reserved                  #
                #                        -***-                          #
                #########################################################


                         Program Version 6.0.0  -   RELEASE  -


 With contributions from (in alphabetic order):
   Daniel Aravena         : Magnetic Suceptibility
   Michael Atanasov       : Ab Initio Ligand Field Theory (pilot matlab implementation)
   Alexander A. Auer      : GIAO ZORA, VPT2 properties, NMR spectrum
   Ute Becker             : All parallelization in ORCA, NUMFREQ, NUMCALC
   Giovanni Bistoni       : ED, misc. LED, open-shell LED, HFLD
   Martin Brehm           : Molecular dynamics
   Dmytro Bykov           : pre 5.0 version of the SCF Hessian
   Marcos Casanova-Páez   : Triplet and SCS-CIS(D). UHF-(DLPNO)-IP/EA/STEOM-CCSD. UHF-CVS-IP/STEOM-CCSD
   Vijay G. Chilkuri      : MRCI spin determinant printing, contributions to CSF-ICE
   Pauline Colinet        : FMM embedding
   Dipayan Datta          : RHF DLPNO-CCSD density
   Achintya Kumar Dutta   : EOM-CC, STEOM-CC
   Nicolas Foglia         : Exact transition moments, OPA infrastructure, MCD improvements
   Dmitry Ganyushin       : Spin-Orbit,Spin-Spin,Magnetic field MRCI
   Miquel Garcia          : C-PCM and meta-GGA Hessian, CCSD/C-PCM, Gaussian charge scheme
   Tiago L. C. Gouveia    : GS-ROHF, GS-ROCIS
   Yang Guo               : DLPNO-NEVPT2, F12-NEVPT2, CIM, IAO-localization
   Andreas Hansen         : Spin unrestricted coupled pair/coupled cluster methods
   Ingolf Harden          : AUTO-CI MPn and infrastructure 
   Benjamin Helmich-Paris : MC-RPA, TRAH-(SCF,CASSCF), AVAS, COSX integrals, SCF dyn. polar.
   Lee Huntington         : MR-EOM, pCC
   Robert Izsak           : Overlap fitted RIJCOSX, COSX-SCS-MP3, EOM
   Riya Kayal             : Wick's Theorem for AUTO-CI, AUTO-CI UHF-CCSDT
   Emily Kempfer          : AUTO-CI, RHF CISDT and CCSDT
   Christian Kollmar      : KDIIS, OOCD, Brueckner-CCSD(T), CCSD density, CASPT2, CASPT2-K, improved NEVPT2
   Axel Koslowski         : Symmetry handling
   Simone Kossmann        : Meta GGA functionals, TD-DFT gradient, OOMP2, (MP2 Hessian; deprecated post 5.0)
   Lucas Lang             : DCDCAS
   Marvin Lechner         : AUTO-CI (C++ implementation), FIC-MRCC
   Spencer Leger          : CASSCF response
   Dagmar Lenk            : GEPOL surface, SMD, ORCA-2-JSON
   Dimitrios Liakos       : Extrapolation schemes; Compound Job, initial MDCI parallelization
   Dimitrios Manganas     : Further ROCIS development; embedding schemes. LFT, Crystal Embedding
   Dimitrios Pantazis     : SARC Basis sets
   Anastasios Papadopoulos: AUTO-CI, single reference methods and gradients
   Taras Petrenko         : pre 6.0 DFT Hessian and TD-DFT gradient, (ASA, deprecated), ECA, 1-Electron XAS/XES, NRVS
   Peter Pinski           : DLPNO-MP2, DLPNO-MP2 Gradient
   Christoph Reimann      : Effective Core Potentials
   Marius Retegan         : Local ZFS, SOC
   Christoph Riplinger    : Optimizer, TS searches, QM/MM, DLPNO-CCSD(T), (RO)-DLPNO pert. Triples
   Michael Roemelt        : Original ROCIS implementation
   Masaaki Saitow         : Open-shell DLPNO-CCSD energy and density
   Barbara Sandhoefer     : DKH picture change effects
   Kantharuban Sivalingam : CASSCF convergence/infrastructure, NEVPT2 and variants, FIC-MRCI
   Bernardo de Souza      : ESD, SOC TD-DFT
   Georgi Stoychev        : AutoAux, RI-MP2 NMR, DLPNO-MP2 response, X2C
   Van Anh Tran           : RI-MP2 g-tensors
   Willem Van den Heuvel  : Paramagnetic NMR
   Zikuan Wang            : NOTCH, Electric field optimization 
   Frank Wennmohs         : Technical directorship and infrastructure
   Hang Xu                : AUTO-CI-Response properties 


 We gratefully acknowledge several colleagues who have allowed us to
 interface, adapt or use parts of their codes:
   Stefan Grimme, W. Hujo, H. Kruse, P. Pracht,  : VdW corrections, initial TS optimization,
                  C. Bannwarth, S. Ehlert,         DFT functionals, gCP, sTDA/sTD-DF
                  L. Wittmann, M. Mueller
   Ed Valeev, F. Pavosevic, A. Kumar             : LibInt (2-el integral package), F12 methods
   Garnet Chan, S. Sharma, J. Yang, R. Olivares  : DMRG
   Ulf Ekstrom                                   : XCFun DFT Library
   Mihaly Kallay                                 : mrcc  (arbitrary order and MRCC methods)
   Frank Weinhold                                : gennbo (NPA and NBO analysis)
   Simon Mueller                                 : openCOSMO-RS
   Christopher J. Cramer and Donald G. Truhlar   : smd solvation model
   Lars Goerigk                                  : TD-DFT with DH, B97 family of functionals
   V. Asgeirsson, H. Jonsson                     : NEB implementation
   FAccTs GmbH                                   : IRC, NEB, NEB-TS, DLPNO-Multilevel, CI-OPT
                                                   MM, QMMM, 2- and 3-layer-ONIOM, Crystal-QMMM,
                                                   LR-CPCM, SF, NACMEs, symmetry and pop. for TD-DFT,
                                                   nearIR, NL-DFT gradient (VV10), updates on ESD,
                                                   ML-optimized integration grids, MBIS, APM,
                                                   GOAT, DOCKER, SOLVATOR, interface openCOSMO-RS
   S Lehtola, MJT Oliveira, MAL Marques          : LibXC Library
   Liviu Ungur et al                             : ANISO software


 Your calculation uses the libint2 library for the computation of 2-el integrals
 For citations please refer to: http://libint.valeyev.net

 Your ORCA version has been built with support for libXC version: 6.2.2
 For citations please refer to: https://libxc.gitlab.io

 This ORCA versions uses:
   CBLAS   interface :  Fast vector & matrix operations
   LAPACKE interface :  Fast linear algebra routines
   SCALAPACK package :  Parallel linear algebra routines
   Shared memory     :  Shared parallel matrices
   BLAS/LAPACK       :  OpenBLAS 0.3.27  USE64BITINT DYNAMIC_ARCH NO_AFFINITY SkylakeX SINGLE_THREADED
        Core in use  :  SkylakeX
   Copyright (c) 2011-2014, The OpenBLAS Project


Your calculation utilizes the geometrical counterpoise correction gCP
Please cite in your paper:
H.Kruse, S. Grimme J.Chem.Phys., 136, (2012), 154101 
   

Your calculation utilizes the atom-pairwise dispersion correction
based on EEQ partial charges (D4)


================================================================================

----- Orbital basis set information -----
Your calculation utilizes the basis: def2-mTZVPP
   Stefan Grimme, Andreas Hansen, Sebastian Ehlert, and Jan-Michael Mewes 
   J. Chem. Phys. 154, 064103 (2021). DOI: 10.1063/5.0040021

----- AuxJ basis set information -----
Your calculation utilizes the auxiliary basis: def2/J
   F. Weigend, Phys. Chem. Chem. Phys. 8, 1057 (2006).

================================================================================
                                        WARNINGS
                       Please study these warnings very carefully!
================================================================================

Using LibXC functional ID 497 : Re-regularized SCAN exchange by Furness et al
[ 1]  J. W. Furness, A. D. Kaplan, J. Ning, J. P. Perdew, and J. Sun.,  J. Phys. Chem. Lett. 11, 8208-8215 (2020)
[ 2]  J. W. Furness, A. D. Kaplan, J. Ning, J. P. Perdew, and J. Sun.,  J. Phys. Chem. Lett. 11, 9248-9248 (2020)
Using LibXC functional ID 498 : Re-regularized SCAN correlation by Furness et al
[ 1]  J. W. Furness, A. D. Kaplan, J. Ning, J. P. Perdew, and J. Sun.,  J. Phys. Chem. Lett. 11, 8208-8215 (2020)
[ 2]  J. W. Furness, A. D. Kaplan, J. Ning, J. P. Perdew, and J. Sun.,  J. Phys. Chem. Lett. 11, 9248-9248 (2020)
Using LibXC functional ID 497 : Re-regularized SCAN exchange by Furness et al
[ 1]  J. W. Furness, A. D. Kaplan, J. Ning, J. P. Perdew, and J. Sun.,  J. Phys. Chem. Lett. 11, 8208-8215 (2020)
[ 2]  J. W. Furness, A. D. Kaplan, J. Ning, J. P. Perdew, and J. Sun.,  J. Phys. Chem. Lett. 11, 9248-9248 (2020)
Using LibXC functional ID 498 : Re-regularized SCAN correlation by Furness et al
[ 1]  J. W. Furness, A. D. Kaplan, J. Ning, J. P. Perdew, and J. Sun.,  J. Phys. Chem. Lett. 11, 8208-8215 (2020)
[ 2]  J. W. Furness, A. D. Kaplan, J. Ning, J. P. Perdew, and J. Sun.,  J. Phys. Chem. Lett. 11, 9248-9248 (2020)

================================================================================
                                       INPUT FILE
================================================================================
NAME = sp_gas.inp
|  1> ! r2scan-3c def2/J RI DEFGRID2 scfconv6 printgap
|  2> %output
|  3>     printlevel normal
|  4> end
|  5> * xyz 0 1
|  6> C 2.2713216729 -1.1121021334 0.4815525735
|  7> C 1.4989014558 -0.2525171264 -0.5117126267
|  8> C 0.2907871265 0.4711577467 0.1086765629
|  9> H 0.3780584852 0.4363272503 1.2066201703
| 10> C -1.0615457233 -0.1547473334 -0.2928864555
| 11> C -1.1562555668 -1.6046684913 0.1759200684
| 12> C -2.2321283362 0.6437998012 0.2854085418
| 13> O 0.3830470999 1.8253543473 -0.3148273316
| 14> H 3.115647178 -1.5835327305 -0.015121733
| 15> H 1.6397783092 -1.8904374039 0.9008606145
| 16> H 2.6512954664 -0.5007090671 1.2966205271
| 17> H 2.1589704354 0.5246042328 -0.902602114
| 18> H 1.172709184 -0.8573937532 -1.3586086616
| 19> H -1.1257913272 -0.1237850329 -1.386413979
| 20> H -0.3907558213 -2.2218143048 -0.2840064606
| 21> H -1.0456789826 -1.6577701917 1.2569210885
| 22> H -2.1270136219 -2.0160000196 -0.0900081405
| 23> H -2.2805926928 1.6420435141 -0.1424195407
| 24> H -2.1412468875 0.7221331849 1.3673423992
| 25> H -3.1689724858 0.1412106547 0.0579409098
| 26> H -0.2821986906 2.3513464547 0.1474714991
| 27> *
| 28> 
| 29>                          ****END OF INPUT****
================================================================================

                       ****************************
                       * Single Point Calculation *
                       ****************************

---------------------------------
CARTESIAN COORDINATES (ANGSTROEM)
---------------------------------
  C      2.271322   -1.112102    0.481553
  C      1.498901   -0.252517   -0.511713
  C      0.290787    0.471158    0.108677
  H      0.378058    0.436327    1.206620
  C     -1.061546   -0.154747   -0.292886
  C     -1.156256   -1.604668    0.175920
  C     -2.232128    0.643800    0.285409
  O      0.383047    1.825354   -0.314827
  H      3.115647   -1.583533   -0.015122
  H      1.639778   -1.890437    0.900861
  H      2.651295   -0.500709    1.296621
  H      2.158970    0.524604   -0.902602
  H      1.172709   -0.857394   -1.358609
  H     -1.125791   -0.123785   -1.386414
  H     -0.390756   -2.221814   -0.284006
  H     -1.045679   -1.657770    1.256921
  H     -2.127014   -2.016000   -0.090008
  H     -2.280593    1.642044   -0.142420
  H     -2.141247    0.722133    1.367342
  H     -3.168972    0.141211    0.057941
  H     -0.282199    2.351346    0.147471

----------------------------
CARTESIAN COORDINATES (A.U.)
----------------------------
  NO LB      ZA    FRAG     MASS         X           Y           Z
   0 C     6.0000    0    12.011    4.292176   -2.101568    0.910002
   1 C     6.0000    0    12.011    2.832513   -0.477188   -0.966997
   2 C     6.0000    0    12.011    0.549508    0.890359    0.205369
   3 H     1.0000    0     1.008    0.714427    0.824539    2.280182
   4 C     6.0000    0    12.011   -2.006031   -0.292430   -0.553475
   5 C     6.0000    0    12.011   -2.185006   -3.032384    0.332441
   6 C     6.0000    0    12.011   -4.218111    1.216605    0.539344
   7 O     8.0000    0    15.999    0.723854    3.449420   -0.594937
   8 H     1.0000    0     1.008    5.887720   -2.992443   -0.028576
   9 H     1.0000    0     1.008    3.098732   -3.572409    1.702380
  10 H     1.0000    0     1.008    5.010222   -0.946203    2.450258
  11 H     1.0000    0     1.008    4.079863    0.991358   -1.705671
  12 H     1.0000    0     1.008    2.216099   -1.620239   -2.567398
  13 H     1.0000    0     1.008   -2.127437   -0.233920   -2.619943
  14 H     1.0000    0     1.008   -0.738421   -4.198621   -0.536694
  15 H     1.0000    0     1.008   -1.976047   -3.132732    2.375237
  16 H     1.0000    0     1.008   -4.019473   -3.809688   -0.170091
  17 H     1.0000    0     1.008   -4.309696    3.103013   -0.269134
  18 H     1.0000    0     1.008   -4.046370    1.364634    2.583903
  19 H     1.0000    0     1.008   -5.988490    0.266849    0.109492
  20 H     1.0000    0     1.008   -0.533278    4.443401    0.278681

--------------------------------
INTERNAL COORDINATES (ANGSTROEM)
--------------------------------
 C      0   0   0     0.000000000000     0.00000000     0.00000000
 C      1   0   0     1.523842227389     0.00000000     0.00000000
 C      2   1   0     1.538872412252   113.60541339     0.00000000
 H      3   2   1     1.101957176373   108.94367132    14.93612513
 C      3   2   1     1.543312723880   113.09764112   254.31273017
 C      5   3   2     1.526768114493   111.07611124    61.07138770
 C      5   3   2     1.530479102668   111.11730258   183.09687022
 O      3   2   1     1.421870558252   106.07313718   131.86501179
 H      1   2   3     1.087114406666   109.90771776   180.71457907
 H      1   2   3     1.086495304539   111.16250652    60.59192141
 H      1   2   3     1.087436128815   110.39710829   300.18315676
 H      2   1   3     1.091972186476   109.16996865   118.70336449
 H      2   1   3     1.090646609017   110.17541144   236.30452337
 H      5   3   2     1.095850631393   107.43097421   301.64950033
 H      6   5   3     1.085537299018   111.47287922   298.08125328
 H      6   5   3     1.087938498729   110.19082320    58.93364631
 H      6   5   3     1.087328211721   109.84885308   178.26772267
 H      7   5   3     1.087141284462   111.37656038    65.35308880
 H      7   5   3     1.088566226055   110.44091140   303.84047351
 H      7   5   3     1.087204826345   109.80468217   184.53766746
 H      8   3   2     0.965888123797   109.35384666   187.90250150

---------------------------
INTERNAL COORDINATES (A.U.)
---------------------------
 C      0   0   0     0.000000000000     0.00000000     0.00000000
 C      1   0   0     2.879644481069     0.00000000     0.00000000
 C      2   1   0     2.908047414202   113.60541339     0.00000000
 H      3   2   1     2.082397274654   108.94367132    14.93612513
 C      3   2   1     2.916438387129   113.09764112   254.31273017
 C      5   3   2     2.885173606395   111.07611124    61.07138770
 C      5   3   2     2.892186357732   111.11730258   183.09687022
 O      3   2   1     2.686945952983   106.07313718   131.86501179
 H      1   2   3     2.054348504840   109.90771776   180.71457907
 H      1   2   3     2.053178571370   111.16250652    60.59192141
 H      1   2   3     2.054956471592   110.39710829   300.18315676
 H      2   1   3     2.063528378298   109.16996865   118.70336449
 H      2   1   3     2.061023399932   110.17541144   236.30452337
 H      5   3   2     2.070857577018   107.43097421   301.64950033
 H      6   5   3     2.051368203300   111.47287922   298.08125328
 H      6   5   3     2.055905813147   110.19082320    58.93364631
 H      6   5   3     2.054752537839   109.84885308   178.26772267
 H      7   5   3     2.054399296512   111.37656038    65.35308880
 H      7   5   3     2.057092045881   110.44091140   303.84047351
 H      7   5   3     2.054519373269   109.80468217   184.53766746
 H      8   3   2     1.825264029983   109.35384666   187.90250150

---------------------
BASIS SET INFORMATION
---------------------
There are 3 groups of distinct atoms

 Group   1 Type C   : 11s6p1d contracted to 5s3p1d pattern {62111/411/1}
 Group   2 Type H   : 4s1p contracted to 2s1p pattern {31/1}
 Group   3 Type O   : 11s6p2d contracted to 5s3p2d pattern {62111/411/11}

Atom   0C    basis set group =>   1
Atom   1C    basis set group =>   1
Atom   2C    basis set group =>   1
Atom   3H    basis set group =>   2
Atom   4C    basis set group =>   1
Atom   5C    basis set group =>   1
Atom   6C    basis set group =>   1
Atom   7O    basis set group =>   3
Atom   8H    basis set group =>   2
Atom   9H    basis set group =>   2
Atom  10H    basis set group =>   2
Atom  11H    basis set group =>   2
Atom  12H    basis set group =>   2
Atom  13H    basis set group =>   2
Atom  14H    basis set group =>   2
Atom  15H    basis set group =>   2
Atom  16H    basis set group =>   2
Atom  17H    basis set group =>   2
Atom  18H    basis set group =>   2
Atom  19H    basis set group =>   2
Atom  20H    basis set group =>   2
---------------------------------
AUXILIARY/J BASIS SET INFORMATION
---------------------------------
There are 3 groups of distinct atoms

 Group   1 Type C   : 12s5p4d2f1g contracted to 6s4p3d1f1g pattern {711111/2111/211/2/1}
 Group   2 Type H   : 5s2p1d contracted to 3s1p1d pattern {311/2/1}
 Group   3 Type O   : 12s5p4d2f1g contracted to 6s4p3d1f1g pattern {711111/2111/211/2/1}

Atom   0C    basis set group =>   1
Atom   1C    basis set group =>   1
Atom   2C    basis set group =>   1
Atom   3H    basis set group =>   2
Atom   4C    basis set group =>   1
Atom   5C    basis set group =>   1
Atom   6C    basis set group =>   1
Atom   7O    basis set group =>   3
Atom   8H    basis set group =>   2
Atom   9H    basis set group =>   2
Atom  10H    basis set group =>   2
Atom  11H    basis set group =>   2
Atom  12H    basis set group =>   2
Atom  13H    basis set group =>   2
Atom  14H    basis set group =>   2
Atom  15H    basis set group =>   2
Atom  16H    basis set group =>   2
Atom  17H    basis set group =>   2
Atom  18H    basis set group =>   2
Atom  19H    basis set group =>   2
Atom  20H    basis set group =>   2

Checking for AutoStart:
The File: sp_gas.gbw exists
Trying to determine its content:
     ... Fine, the file contains calculation information
     ... Fine, the calculation information was read
     ... Fine, the file contains a basis set
     ... Fine, the basis set was read
     ... Fine, the file contains a geometry
     ... Fine, the geometry was read
     ... Fine, the file contains a set of orbitals
     ... Fine, the orbitals can be read
     => possible old guess file was deleted
     => GBW file was renamed to GES file
     => GES file is set as startup file
     => Guess is set to MORead
     ... now leaving AutoStart

------------------------------------------------------------------------------
                             ORCA STARTUP CALCULATIONS
                           -- RI-GTO INTEGRALS CHOSEN --
------------------------------------------------------------------------------
------------------------------------------------------------------------------
                   ___                                                        
                  /   \      - P O W E R E D   B Y -                         
                 /     \                                                     
                 |  |  |   _    _      __       _____    __    __             
                 |  |  |  | |  | |    /  \     |  _  \  |  |  /  |          
                  \  \/   | |  | |   /    \    | | | |  |  | /  /          
                 / \  \   | |__| |  /  /\  \   | |_| |  |  |/  /          
                |  |  |   |  __  | /  /__\  \  |    /   |      \           
                |  |  |   | |  | | |   __   |  |    \   |  |\   \          
                \     /   | |  | | |  |  |  |  | |\  \  |  | \   \       
                 \___/    |_|  |_| |__|  |__|  |_| \__\ |__|  \__/        
                                                                              
                      - O R C A' S   B I G   F R I E N D -                    
                                      &                                       
                       - I N T E G R A L  F E E D E R -                       
                                                                              
 v1 FN, 2020, v2 2021, v3 2022-2024                                           
------------------------------------------------------------------------------


----------------------
SHARK INTEGRAL PACKAGE
----------------------

Number of atoms                             ...     21
Number of basis functions                   ...    208
Number of shells                            ...    106
Maximum angular momentum                    ...      2
Integral batch strategy                     ... SHARK/LIBINT Hybrid
RI-J (if used) integral strategy            ... SPLIT-RIJ (Revised 2003 algorithm where possible)
Printlevel                                  ...      1
Contraction scheme used                     ... SEGMENTED contraction
Prescreening option                         ... SCHWARTZ
   Thresh                                   ... 1.000e-10
   Tcut                                     ... 1.000e-11
   Tpresel                                  ... 1.000e-11 
Coulomb Range Separation                    ... NOT USED
Exchange Range Separation                   ... NOT USED
Multipole approximations                    ... NOT USED
Finite Nucleus Model                        ... NOT USED
CABS basis                                  ... NOT available
Auxiliary Coulomb fitting basis             ... AVAILABLE
   # of basis functions in Aux-J            ...    497
   # of shells in Aux-J                     ...    175
   Maximum angular momentum in Aux-J        ...      4
Auxiliary J/K fitting basis                 ... NOT available
Auxiliary Correlation fitting basis         ... NOT available
Auxiliary 'external' fitting basis          ... NOT available

Checking pre-screening integrals            ... done (  0.0 sec) Dimension = 106
Check shell pair data                       ... done (  0.0 sec)
Shell pair information
Shell pair cut-off parameter TPreSel        ...   1.0e-11
Total number of shell pairs                 ...      5671
Shell pairs after pre-screening             ...      5209
Total number of primitive shell pairs       ...     19699
Primitive shell pairs kept                  ...     13100
          la=0 lb=0:   1840 shell pairs
          la=1 lb=0:   2015 shell pairs
          la=1 lb=1:    580 shell pairs
          la=2 lb=0:    476 shell pairs
          la=2 lb=1:    263 shell pairs
          la=2 lb=2:     35 shell pairs

Calculating one electron integrals          ... done (  0.0 sec)
Calculating RI/J V-Matrix + Cholesky decomp.... done (  0.1 sec)
Calculating Nuclear repulsion               ... done (  0.0 sec) ENN=    338.172277433235 Eh

Diagonalization of the overlap matrix:
Smallest eigenvalue                        ... 1.470e-04
Time for diagonalization                   ...    0.004 sec
Threshold for overlap eigenvalues          ... 1.000e-07
Number of eigenvalues below threshold      ... 0
Time for construction of square roots      ...    0.014 sec
Total time needed                          ...    0.032 sec

-------------------
DFT GRID GENERATION
-------------------

General Integration Accuracy     IntAcc      ... 4.388
Radial Grid Type                 RadialGrid  ... OptM3 with GC (2021)
Angular Grid (max. ang.)         AngularGrid ... 4 (Lebedev-302)
Angular grid pruning method      GridPruning ... 4 (adaptive)
Weight generation scheme         WeightScheme... mBecke (2022)
Basis function cutoff            BFCut       ... 1.0000e-10
Integration weight cutoff        WCut        ... 1.0000e-14
Partially contracted basis set               ... off
Rotationally invariant grid construction     ... off
Angular grids for H and He will be reduced by one unit
Diffuse basis detected: some atoms will have their outermost
                        angular grid increased by 1.

Total number of grid points                  ...    86979
Total number of batches                      ...     1368
Average number of points per batch           ...       63
Average number of grid points per atom       ...     4142
Initializing property integral containers    ... done (  0.0 sec)

SHARK setup successfully completed in   1.2 seconds

Maximum memory used throughout the entire STARTUP-calculation: 38.2 MB
-------------------------------------------------------------------------------
                                 ORCA GUESS
                   Start orbitals & Density for SCF / CASSCF
-------------------------------------------------------------------------------

------------
SCF SETTINGS
------------
Hamiltonian:
 Density Functional     Method          .... DFT(GTOs)
  Functional kind                       .... Exchange
  Functional name                       .... Re-regularized SCAN exchange by Furness et al
  Functional family                     .... MGGA
  Functional refs                              
    [ 0] J. W. Furness, A. D. Kaplan, J. Ning, J. P. Perdew, and J. Sun.,  J. Phys. Chem. Lett. 11, 8208-8215 (2020), doi: 10.1021/acs.jpclett.0c02405
    [ 1] J. W. Furness, A. D. Kaplan, J. Ning, J. P. Perdew, and J. Sun.,  J. Phys. Chem. Lett. 11, 9248-9248 (2020), doi: 10.1021/acs.jpclett.0c03077
  Functional external parameters        .... 6
    Parameter  0 _c1        =  6.670000e-01 : c1 parameter        
    Parameter  1 _c2        =  8.000000e-01 : c2 parameter        
    Parameter  2 _d         =  1.240000e+00 : d parameter         
    Parameter  3 _k1        =  6.500000e-02 : k1 parameter        
    Parameter  4 _eta       =  1.000000e-03 : eta parameter       
    Parameter  5 _dp2       =  3.610000e-01 : dp2 parameter       
  Functional kind                       .... Correlation
  Functional name                       .... Re-regularized SCAN correlation by Furness et al
  Functional family                     .... MGGA
  Functional refs                              
    [ 0] J. W. Furness, A. D. Kaplan, J. Ning, J. P. Perdew, and J. Sun.,  J. Phys. Chem. Lett. 11, 8208-8215 (2020), doi: 10.1021/acs.jpclett.0c02405
    [ 1] J. W. Furness, A. D. Kaplan, J. Ning, J. P. Perdew, and J. Sun.,  J. Phys. Chem. Lett. 11, 9248-9248 (2020), doi: 10.1021/acs.jpclett.0c03077
  Functional external parameters        .... 1
    Parameter  0 _eta       =  1.000000e-03 : Regularization parameter
 Gradients option       PostSCFGGA      .... off
 RI-approximation to the Coulomb term is turned on
   Number of AuxJ basis functions       .... 497


General Settings:
 Integral files         IntName         .... sp_gas
 Hartree-Fock type      HFTyp           .... RHF
 Total Charge           Charge          ....    0
 Multiplicity           Mult            ....    1
 Number of Electrons    NEL             ....   58
 Basis Dimension        Dim             ....  208
 Nuclear Repulsion      ENuc            ....    338.1722774332 Eh

Convergence Acceleration:
 AO-DIIS                CNVDIIS         .... on
   Start iteration      DIISMaxIt       ....    12
   Startup error        DIISStart       ....  0.200000
   # of expansion vecs  DIISMaxEq       ....     5
   Bias factor          DIISBfac        ....   1.050
   Max. coefficient     DIISMaxC        ....  10.000
 MO-DIIS                CNVKDIIS        .... off
 Trust-Rad. Augm. Hess. CNVTRAH         .... auto
   Auto Start mean grad. ratio tolernc. ....  1.125000
   Auto Start start iteration           ....     1
   Auto Start num. interpolation iter.  ....    10
   Max. Number of Micro iterations      ....    24
   Max. Number of Macro iterations      .... Maxiter - #DIIS iter
   Number of Davidson start vectors     ....     2
   Converg. threshold    (grad. norm)   ....   3.330e-04
   Grad. Scal. Fac. for Micro threshold ....   0.100
   Minimum threshold for Micro iter.    ....   1.000e-02
   NR start threshold (gradient norm)   ....   1.000e-04
   Initial trust radius                 ....   0.400
   Minimum AH scaling param. (alpha)    ....   1.000
   Maximum AH scaling param. (alpha)    .... 1000.000
   Quad. conv. algorithm                .... NR
   White noise on init. David. guess    .... on
   Maximum white noise                  ....   0.010
   Pseudo random numbers                .... off
   Inactive MOs                         .... canonical
   Orbital update algorithm             .... Taylor
   Preconditioner                       .... Diag
   Full preconditioner red. dimension   ....   250
   COSX micro iterations for RIJONX calc.... off
 SOSCF                  CNVSOSCF        .... on
   Start iteration      SOSCFMaxIt      ....   150
   Startup grad/error   SOSCFStart      ....  0.003300
   Hessian update       SOSCFHessUp     .... L-BFGS
 Level Shifting         CNVShift        .... on
   Level shift para.    LevelShift      ....    0.2500
   Turn off err/grad.   ShiftErr        ....    0.0010
 Zerner damping         CNVZerner       .... off
 Static damping         CNVDamp         .... on
   Fraction old density DampFac         ....    0.7000
   Max. Damping (<1)    DampMax         ....    0.9800
   Min. Damping (>=0)   DampMin         ....    0.0000
   Turn off err/grad.   DampErr         ....    0.1000

SCF Procedure:
 Maximum # iterations   MaxIter         ....   125
 SCF integral mode      SCFMode         .... Direct
   Integral package                     .... SHARK and LIBINT hybrid scheme
 Reset frequency        DirectResetFreq ....    20
 Integral Threshold     Thresh          ....  1.000e-10 Eh
 Primitive CutOff       TCut            ....  1.000e-11 Eh

Convergence Tolerance:
 Convergence Check Mode ConvCheckMode   .... Total+1el-Energy
 Convergence forced     ConvForced      .... 0
 Energy Change          TolE            ....  1.000e-06 Eh
 1-El. energy change                    ....  1.000e-03 Eh
 Orbital Gradient       TolG            ....  3.330e-04
 Orbital Rotation angle TolX            ....  3.330e-04
 DIIS Error             TolErr          ....  1.000e-06

---------------------
INITIAL GUESS: MOREAD
---------------------
Guess MOs are being read from file: sp_gas.ges
Input Geometry matches current geometry (good)
Atom 0: N(Shells)= 9 and 6 - projection required
Input basis set needs projection
NBasis(read)= 126
NBasis(calc)= 208
Basis set overlap was calculated
Using GuessMode=FMatrix for the initial guess
C*T matrix was formed
Effective Fockian was calculated
Effective Fockian was diagonalized
Initial density was built
                      ------------------
                      INITIAL GUESS DONE (   0.0 sec)
                      ------------------
             **** ENERGY FILE WAS UPDATED (sp_gas.en.tmp) ****
Finished Guess after   0.2 sec
Maximum memory used throughout the entire GUESS-calculation: 14.4 MB

-------------------------------------------------------------------------------------------
                                      ORCA LEAN-SCF
                              memory conserving SCF solver
-------------------------------------------------------------------------------------------

----------------------------------------D-I-I-S--------------------------------------------
Iteration    Energy (Eh)           Delta-E    RMSDP     MaxDP     DIISErr   Damp  Time(sec)
-------------------------------------------------------------------------------------------
               ***  Starting incremental Fock matrix formation  ***
    1    -312.0285103853313444     0.00e+00  3.69e-03  1.35e-01  6.27e-01  0.700   2.7
    2    -312.0809477861320715    -5.24e-02  2.99e-03  8.02e-02  4.41e-01  0.700   2.5
    3    -312.1181018841031687    -3.72e-02  2.20e-03  5.78e-02  3.09e-01  0.700   2.5
    4    -312.1441986932172199    -2.61e-02  1.57e-03  4.10e-02  2.16e-01  0.700   2.4
                               ***Turning on AO-DIIS***
    5    -312.1625111625820068    -1.83e-02  1.14e-03  2.90e-02  1.51e-01  0.700   2.4
    6    -312.1753537541437140    -1.28e-02  8.07e-04  2.04e-02  1.06e-01  0.700   2.3
    7    -312.1843586325517776    -9.00e-03  5.70e-04  1.43e-02  7.41e-02  0.700   2.3
    8    -312.1906697938199500    -6.31e-03  1.34e-03  3.35e-02  5.19e-02  0.000   2.3
                              *** Initializing SOSCF ***
---------------------------------------S-O-S-C-F--------------------------------------
Iteration    Energy (Eh)           Delta-E    RMSDP     MaxDP     MaxGrad    Time(sec)
--------------------------------------------------------------------------------------
    9    -312.2054210487769410    -1.48e-02  9.47e-06  2.54e-04  1.22e-04     2.4
               *** Restarting incremental Fock matrix formation ***
   10    -312.2054211606172771    -1.12e-07  8.39e-06  3.39e-04  2.53e-05     2.7
                  *** Gradient check signals convergence ***

               *****************************************************
               *                     SUCCESS                       *
               *           SCF CONVERGED AFTER  10 CYCLES          *
               *****************************************************

             **** ENERGY FILE WAS UPDATED (sp_gas.en.tmp) ****

----------------
TOTAL SCF ENERGY
----------------

Total Energy       :       -312.20542116061728 Eh           -8495.54141 eV

Components:
Nuclear Repulsion  :        338.17227743323514 Eh            9202.13550 eV
Electronic Energy  :       -650.37769859385241 Eh          -17697.67691 eV
One Electron Energy:      -1091.94739171435640 Eh          -29713.39913 eV
Two Electron Energy:        441.56969312050398 Eh           12015.72222 eV

Virial components:
Potential Energy   :       -623.00557679940471 Eh          -16952.84361 eV
Kinetic Energy     :        310.80015563878743 Eh            8457.30220 eV
Virial Ratio       :          2.00452144407374

DFT components:
N(Alpha)           :       28.999940691332 electrons
N(Beta)            :       28.999940691332 electrons
N(Total)           :       57.999881382664 electrons
E(X)               :      -44.500293504978 Eh       
E(C)               :       -1.813762013002 Eh       
E(XC)              :      -46.314055517980 Eh       

---------------
SCF CONVERGENCE
---------------

  Last Energy change         ...    1.1184e-07  Tolerance :   1.0000e-06
  Last MAX-Density change    ...    3.3923e-04  Tolerance :   1.0000e-05
  Last RMS-Density change    ...    8.3931e-06  Tolerance :   1.0000e-06
  Last DIIS Error            ...    1.2187e-04  Tolerance :   1.0000e-06
  Last Orbital Gradient      ...    2.5296e-05  Tolerance :   3.3300e-04
  Last Orbital Rotation      ...    4.0790e-05  Tolerance :   3.3300e-04


----------------
ORBITAL ENERGIES
----------------

  NO   OCC          E(Eh)            E(eV) 
   0   2.0000     -18.942508      -515.4518 
   1   2.0000     -10.076141      -274.1857 
   2   2.0000     -10.034048      -273.0403 
   3   2.0000     -10.022123      -272.7158 
   4   2.0000     -10.020662      -272.6761 
   5   2.0000     -10.019704      -272.6500 
   6   2.0000     -10.016723      -272.5689 
   7   2.0000      -0.980479       -26.6802 
   8   2.0000      -0.774236       -21.0680 
   9   2.0000      -0.730842       -19.8872 
  10   2.0000      -0.654376       -17.8065 
  11   2.0000      -0.638760       -17.3816 
  12   2.0000      -0.563121       -15.3233 
  13   2.0000      -0.530237       -14.4285 
  14   2.0000      -0.482905       -13.1405 
  15   2.0000      -0.433825       -11.8050 
  16   2.0000      -0.418786       -11.3958 
  17   2.0000      -0.402196       -10.9443 
  18   2.0000      -0.386284       -10.5113 
  19   2.0000      -0.369666       -10.0591 
  20   2.0000      -0.356313        -9.6958 
  21   2.0000      -0.349640        -9.5142 
  22   2.0000      -0.331853        -9.0302 
  23   2.0000      -0.323818        -8.8115 
  24   2.0000      -0.306171        -8.3313 
  25   2.0000      -0.305567        -8.3149 
  26   2.0000      -0.298157        -8.1133 
  27   2.0000      -0.276309        -7.5187 
  28   2.0000      -0.229348        -6.2409 
  29   0.0000       0.060342         1.6420 
  30   0.0000       0.087315         2.3760 
  31   0.0000       0.104822         2.8523 
  32   0.0000       0.111910         3.0452 
  33   0.0000       0.119625         3.2552 
  34   0.0000       0.136035         3.7017 
  35   0.0000       0.141456         3.8492 
  36   0.0000       0.146289         3.9807 
  37   0.0000       0.160285         4.3616 
  38   0.0000       0.162004         4.4084 
  39   0.0000       0.167069         4.5462 
*Only the first 10 virtual orbitals were printed.

                    ********************************
                    * MULLIKEN POPULATION ANALYSIS *
                    ********************************

-----------------------
MULLIKEN ATOMIC CHARGES
-----------------------
   0 C :   -0.496783
   1 C :   -0.285237
   2 C :    0.028004
   3 H :    0.141179
   4 C :   -0.008598
   5 C :   -0.530332
   6 C :   -0.553088
   7 O :   -0.439043
   8 H :    0.146654
   9 H :    0.150480
  10 H :    0.149367
  11 H :    0.170812
  12 H :    0.145881
  13 H :    0.165667
  14 H :    0.157527
  15 H :    0.158680
  16 H :    0.146965
  17 H :    0.149530
  18 H :    0.160292
  19 H :    0.151176
  20 H :    0.290868
Sum of atomic charges:   -0.0000000

--------------------------------
MULLIKEN REDUCED ORBITAL CHARGES
--------------------------------
  0 C s       :     3.346800  s :     3.346800
      pz      :     1.016826  p :     3.122654
      px      :     1.057043
      py      :     1.048785
      dz2     :     0.003361  d :     0.027329
      dxz     :     0.006561
      dyz     :     0.007734
      dx2y2   :     0.002448
      dxy     :     0.007225

  1 C s       :     3.216757  s :     3.216757
      pz      :     0.978775  p :     3.033422
      px      :     0.993255
      py      :     1.061392
      dz2     :     0.005379  d :     0.035058
      dxz     :     0.007374
      dyz     :     0.008839
      dx2y2   :     0.004313
      dxy     :     0.009152

  2 C s       :     3.241209  s :     3.241209
      pz      :     1.012742  p :     2.664377
      px      :     0.944482
      py      :     0.707152
      dz2     :     0.015439  d :     0.066411
      dxz     :     0.006216
      dyz     :     0.012027
      dx2y2   :     0.016450
      dxy     :     0.016279

  3 H s       :     0.841967  s :     0.841967
      pz      :     0.011206  p :     0.016854
      px      :     0.003293
      py      :     0.002356

  4 C s       :     3.067609  s :     3.067609
      pz      :     1.068280  p :     2.895902
      px      :     0.935404
      py      :     0.892219
      dz2     :     0.011883  d :     0.045087
      dxz     :     0.005718
      dyz     :     0.005970
      dx2y2   :     0.010893
      dxy     :     0.010624

  5 C s       :     3.353943  s :     3.353943
      pz      :     1.061764  p :     3.149330
      px      :     1.116281
      py      :     0.971284
      dz2     :     0.007930  d :     0.027059
      dxz     :     0.002124
      dyz     :     0.004276
      dx2y2   :     0.005435
      dxy     :     0.007294

  6 C s       :     3.373747  s :     3.373747
      pz      :     1.052093  p :     3.152323
      px      :     1.033807
      py      :     1.066422
      dz2     :     0.008269  d :     0.027018
      dxz     :     0.002868
      dyz     :     0.003244
      dx2y2   :     0.006905
      dxy     :     0.005733

  7 O s       :     3.772838  s :     3.772838
      pz      :     1.745570  p :     4.652553
      px      :     1.677294
      py      :     1.229689
      dz2     :     0.002797  d :     0.013653
      dxz     :     0.006190
      dyz     :     0.000758
      dx2y2   :     0.001465
      dxy     :     0.002444

  8 H s       :     0.835044  s :     0.835044
      pz      :     0.005078  p :     0.018303
      px      :     0.008124
      py      :     0.005101

  9 H s       :     0.831127  s :     0.831127
      pz      :     0.004823  p :     0.018393
      px      :     0.006131
      py      :     0.007438

 10 H s       :     0.832403  s :     0.832403
      pz      :     0.007838  p :     0.018231
      px      :     0.004564
      py      :     0.005829

 11 H s       :     0.811253  s :     0.811253
      pz      :     0.004507  p :     0.017935
      px      :     0.005914
      py      :     0.007515

 12 H s       :     0.836109  s :     0.836109
      pz      :     0.008145  p :     0.018010
      px      :     0.004076
      py      :     0.005789

 13 H s       :     0.816948  s :     0.816948
      pz      :     0.010970  p :     0.017385
      px      :     0.003186
      py      :     0.003229

 14 H s       :     0.823973  s :     0.823973
      pz      :     0.004972  p :     0.018500
      px      :     0.007476
      py      :     0.006052

 15 H s       :     0.823107  s :     0.823107
      pz      :     0.010821  p :     0.018212
      px      :     0.003778
      py      :     0.003613

 16 H s       :     0.834703  s :     0.834703
      pz      :     0.004113  p :     0.018332
      px      :     0.009460
      py      :     0.004758

 17 H s       :     0.832034  s :     0.832034
      pz      :     0.004862  p :     0.018436
      px      :     0.003852
      py      :     0.009722

 18 H s       :     0.821622  s :     0.821622
      pz      :     0.010779  p :     0.018086
      px      :     0.003633
      py      :     0.003675

 19 H s       :     0.830464  s :     0.830464
      pz      :     0.003964  p :     0.018360
      px      :     0.009219
      py      :     0.005176

 20 H s       :     0.665659  s :     0.665659
      pz      :     0.014174  p :     0.043473
      px      :     0.017261
      py      :     0.012037


------------------------
MULLIKEN OVERLAP CHARGES
------------------------
B(  0-C ,  1-C ) :   0.3014 B(  0-C ,  2-C ) :  -0.0700 B(  0-C ,  3-H ) :   0.0714 
B(  0-C ,  4-C ) :  -0.0520 B(  0-C ,  8-H ) :   0.8165 B(  0-C ,  9-H ) :   0.8305 
B(  0-C , 10-H ) :   0.8571 B(  0-C , 11-H ) :  -0.0501 B(  1-C ,  2-C ) :   0.2975 
B(  1-C ,  3-H ) :  -0.1799 B(  1-C ,  4-C ) :   0.0801 B(  1-C ,  8-H ) :  -0.0947 
B(  1-C ,  9-H ) :  -0.0653 B(  1-C , 10-H ) :  -0.1026 B(  1-C , 11-H ) :   0.8595 
B(  1-C , 12-H ) :   0.8335 B(  2-C ,  3-H ) :   0.9177 B(  2-C ,  4-C ) :   0.1969 
B(  2-C ,  5-C ) :  -0.1360 B(  2-C ,  6-C ) :  -0.1896 B(  2-C ,  7-O ) :   0.2906 
B(  2-C , 11-H ) :  -0.0981 B(  2-C , 12-H ) :  -0.1539 B(  2-C , 13-H ) :  -0.0969 
B(  2-C , 20-H ) :  -0.0719 B(  3-H ,  4-C ) :  -0.1473 B(  3-H ,  7-O ) :  -0.1158 
B(  4-C ,  5-C ) :   0.3028 B(  4-C ,  6-C ) :   0.3956 B(  4-C ,  7-O ) :  -0.1413 
B(  4-C , 12-H ) :   0.0518 B(  4-C , 13-H ) :   0.8623 B(  4-C , 14-H ) :  -0.0579 
B(  4-C , 15-H ) :  -0.1174 B(  4-C , 16-H ) :  -0.0712 B(  4-C , 17-H ) :  -0.0815 
B(  4-C , 18-H ) :  -0.1228 B(  4-C , 19-H ) :  -0.0773 B(  5-C ,  6-C ) :  -0.2411 
B(  5-C , 13-H ) :  -0.0508 B(  5-C , 14-H ) :   0.7964 B(  5-C , 15-H ) :   0.8652 
B(  5-C , 16-H ) :   0.7864 B(  6-C , 17-H ) :   0.8077 B(  6-C , 18-H ) :   0.8748 
B(  6-C , 19-H ) :   0.7988 B(  7-O , 20-H ) :   0.5960 B(  9-H , 10-H ) :  -0.0502 



                     *******************************
                     * LOEWDIN POPULATION ANALYSIS *
                     *******************************

----------------------
LOEWDIN ATOMIC CHARGES
----------------------
   0 C :   -0.421141
   1 C :   -0.275751
   2 C :    0.063876
   3 H :    0.164129
   4 C :   -0.225502
   5 C :   -0.413939
   6 C :   -0.419118
   7 O :   -0.622472
   8 H :    0.150981
   9 H :    0.149393
  10 H :    0.151259
  11 H :    0.179109
  12 H :    0.156641
  13 H :    0.164657
  14 H :    0.156327
  15 H :    0.155217
  16 H :    0.154273
  17 H :    0.152285
  18 H :    0.155535
  19 H :    0.157380
  20 H :    0.266861

-------------------------------
LOEWDIN REDUCED ORBITAL CHARGES
-------------------------------
  0 C s       :     2.972546  s :     2.972546
      pz      :     1.125557  p :     3.384544
      px      :     1.130994
      py      :     1.127994
      dz2     :     0.007007  d :     0.064050
      dxz     :     0.015722
      dyz     :     0.018752
      dx2y2   :     0.004941
      dxy     :     0.017628

  1 C s       :     2.932723  s :     2.932723
      pz      :     1.099992  p :     3.268021
      px      :     1.066760
      py      :     1.101269
      dz2     :     0.010108  d :     0.075007
      dxz     :     0.016137
      dyz     :     0.020411
      dx2y2   :     0.008033
      dxy     :     0.020318

  2 C s       :     2.842050  s :     2.842050
      pz      :     1.051882  p :     2.951629
      px      :     1.032814
      py      :     0.866933
      dz2     :     0.036118  d :     0.142445
      dxz     :     0.011055
      dyz     :     0.025472
      dx2y2   :     0.034106
      dxy     :     0.035694

  3 H s       :     0.795219  s :     0.795219
      pz      :     0.026611  p :     0.040652
      px      :     0.008014
      py      :     0.006027

  4 C s       :     2.914157  s :     2.914157
      pz      :     1.120799  p :     3.218454
      px      :     1.048849
      py      :     1.048806
      dz2     :     0.026148  d :     0.092891
      dxz     :     0.011203
      dyz     :     0.011451
      dx2y2   :     0.022704
      dxy     :     0.021385

  5 C s       :     2.966558  s :     2.966558
      pz      :     1.149004  p :     3.383495
      px      :     1.154304
      py      :     1.080188
      dz2     :     0.019512  d :     0.063886
      dxz     :     0.005382
      dyz     :     0.009292
      dx2y2   :     0.012979
      dxy     :     0.016720

  6 C s       :     2.971421  s :     2.971421
      pz      :     1.141781  p :     3.384354
      px      :     1.108138
      py      :     1.134435
      dz2     :     0.019992  d :     0.063343
      dxz     :     0.006192
      dyz     :     0.007744
      dx2y2   :     0.015733
      dxy     :     0.013682

  7 O s       :     3.517280  s :     3.517280
      pz      :     1.761604  p :     4.806717
      px      :     1.675414
      py      :     1.369698
      dz2     :     0.046479  d :     0.298476
      dxz     :     0.020366
      dyz     :     0.071247
      dx2y2   :     0.062725
      dxy     :     0.097659

  8 H s       :     0.805650  s :     0.805650
      pz      :     0.011996  p :     0.043368
      px      :     0.019654
      py      :     0.011719

  9 H s       :     0.806668  s :     0.806668
      pz      :     0.011079  p :     0.043939
      px      :     0.014741
      py      :     0.018119

 10 H s       :     0.805415  s :     0.805415
      pz      :     0.018938  p :     0.043326
      px      :     0.010322
      py      :     0.014066

 11 H s       :     0.777480  s :     0.777480
      pz      :     0.010534  p :     0.043412
      px      :     0.013987
      py      :     0.018891

 12 H s       :     0.799435  s :     0.799435
      pz      :     0.020054  p :     0.043925
      px      :     0.009673
      py      :     0.014198

 13 H s       :     0.792239  s :     0.792239
      pz      :     0.027358  p :     0.043104
      px      :     0.007931
      py      :     0.007815

 14 H s       :     0.799408  s :     0.799408
      pz      :     0.011673  p :     0.044265
      px      :     0.017995
      py      :     0.014597

 15 H s       :     0.801090  s :     0.801090
      pz      :     0.027203  p :     0.043693
      px      :     0.008346
      py      :     0.008144

 16 H s       :     0.802008  s :     0.802008
      pz      :     0.009260  p :     0.043719
      px      :     0.023437
      py      :     0.011022

 17 H s       :     0.803521  s :     0.803521
      pz      :     0.011234  p :     0.044194
      px      :     0.008593
      py      :     0.024367

 18 H s       :     0.800704  s :     0.800704
      pz      :     0.027255  p :     0.043761
      px      :     0.008235
      py      :     0.008271

 19 H s       :     0.798797  s :     0.798797
      pz      :     0.008905  p :     0.043822
      px      :     0.022672
      py      :     0.012245

 20 H s       :     0.609263  s :     0.609263
      pz      :     0.039983  p :     0.123877
      px      :     0.050484
      py      :     0.033410


---------------------------------
LOEWDIN BOND ORDERS (THRESH 0.050000)
---------------------------------
B(  0-C ,  1-C ) :   1.1403 B(  0-C ,  2-C ) :   0.0750 B(  0-C ,  8-H ) :   0.9277 
B(  0-C ,  9-H ) :   0.9258 B(  0-C , 10-H ) :   0.9281 B(  1-C ,  2-C ) :   0.9908 
B(  1-C ,  4-C ) :   0.0700 B(  1-C ,  7-O ) :   0.1851 B(  1-C , 11-H ) :   0.8676 
B(  1-C , 12-H ) :   0.8858 B(  2-C ,  3-H ) :   0.7960 B(  2-C ,  4-C ) :   0.9726 
B(  2-C ,  5-C ) :   0.0707 B(  2-C ,  6-C ) :   0.0680 B(  2-C ,  7-O ) :   1.3929 
B(  3-H ,  7-O ) :   0.0980 B(  4-C ,  5-C ) :   1.1016 B(  4-C ,  6-C ) :   1.1012 
B(  4-C ,  7-O ) :   0.1641 B(  4-C , 13-H ) :   0.8547 B(  5-C ,  6-C ) :   0.0731 
B(  5-C , 14-H ) :   0.9175 B(  5-C , 15-H ) :   0.9198 B(  5-C , 16-H ) :   0.9199 
B(  6-C , 17-H ) :   0.9207 B(  6-C , 18-H ) :   0.9214 B(  6-C , 19-H ) :   0.9189 
B(  7-O , 20-H ) :   0.9681 

------------------------------------------
LOEWDIN REDUCED ORBITAL POPULATIONS PER MO
-------------------------------------------
THRESHOLD FOR PRINTING IS 0.1%%
                      0         1         2         3         4         5   
                 -18.94251 -10.07614 -10.03405 -10.02212 -10.02066 -10.01970
                   2.00000   2.00000   2.00000   2.00000   2.00000   2.00000
                  --------  --------  --------  --------  --------  --------
 1 C  s               0.0       0.0       0.0       0.0      99.7       0.0
 2 C  s               0.0      99.4       0.0       0.0       0.0       0.0
 4 C  s               0.0       0.0      99.6       0.0       0.0       0.0
 5 C  s               0.0       0.0       0.0       0.0       0.0      99.7
 6 C  s               0.0       0.0       0.0      99.7       0.0       0.0
 7 O  s              99.9       0.0       0.0       0.0       0.0       0.0
 7 O  py              0.0       0.1       0.0       0.0       0.0       0.0
 7 O  dx2y2           0.0       0.2       0.0       0.0       0.0       0.0

                      6         7         8         9        10        11   
                 -10.01672  -0.98048  -0.77424  -0.73084  -0.65438  -0.63876
                   2.00000   2.00000   2.00000   2.00000   2.00000   2.00000
                  --------  --------  --------  --------  --------  --------
 0 C  s              99.7       0.1       2.9      19.1       1.7      16.4
 0 C  pz              0.0       0.0       0.2       0.9       0.0       0.1
 0 C  px              0.0       0.1       0.4       0.5       0.1       0.4
 0 C  py              0.0       0.0       0.3       0.7       0.0       0.5
 1 C  s               0.0       0.8       6.6      21.6       0.1       0.4
 1 C  pz              0.0       0.1       0.4       1.1       0.1       0.5
 1 C  px              0.0       0.6       0.6       0.5       0.6       5.7
 1 C  py              0.0       0.8       0.0       0.4       0.1       4.2
 1 C  dxz             0.0       0.0       0.0       0.0       0.0       0.1
 1 C  dyz             0.0       0.0       0.0       0.0       0.0       0.1
 2 C  s               0.0       9.5       7.8       2.0       0.2      12.5
 2 C  pz              0.0       0.7       0.1       0.1       0.0       0.1
 2 C  px              0.0       0.0       0.9       7.2       0.0       0.0
 2 C  py              0.0       7.6       4.6       0.9       0.3       0.5
 2 C  dz2             0.0       0.1       0.0       0.0       0.0       0.0
 2 C  dyz             0.0       0.1       0.0       0.0       0.0       0.0
 2 C  dx2y2           0.0       0.5       0.2       0.0       0.0       0.0
 3 H  s               0.0       0.7       1.1       0.4       0.0       2.5
 3 H  pz              0.0       0.1       0.1       0.0       0.0       0.2
 4 C  s               0.0       0.9      23.0       4.6       0.0       0.4
 4 C  pz              0.0       0.0       0.7       0.2       0.0       0.1
 4 C  px              0.0       0.8       0.0       2.9       3.6       4.5
 4 C  py              0.0       0.7       0.2       0.0      11.1       2.6
 4 C  dyz             0.0       0.0       0.0       0.0       0.1       0.0
 4 C  dx2y2           0.0       0.0       0.0       0.0       0.1       0.1
 4 C  dxy             0.0       0.0       0.0       0.0       0.1       0.0
 5 C  s               0.0       0.1      11.6       3.4      19.9       7.4
 5 C  pz              0.0       0.0       0.2       0.0       0.0       0.0
 5 C  px              0.0       0.0       0.0       0.3       0.2       0.2
 5 C  py              0.0       0.1       2.7       0.5       0.7       0.6
 6 C  s               0.0       0.1       9.8       6.6      24.0       1.0
 6 C  pz              0.0       0.0       0.2       0.1       0.0       0.0
 6 C  px              0.0       0.4       1.5       0.2       0.3       0.3
 6 C  py              0.0       0.0       1.0       0.2       0.8       0.0
 7 O  s               0.0      59.2       3.1       0.3       0.1       2.2
 7 O  pz              0.0       1.1       0.1       0.0       0.0       0.1
 7 O  px              0.0       0.9       0.1       0.4       0.1       0.7
 7 O  py              0.0       0.7       1.9       0.8       0.0       9.2
 7 O  dz2             0.0       0.1       0.2       0.0       0.0       0.2
 7 O  dyz             0.0       0.0       0.1       0.0       0.0       0.4
 7 O  dx2y2           0.0       0.1       0.3       0.2       0.1       0.9
 7 O  dxy             0.0       0.0       0.1       0.3       0.0       0.1
 8 H  s               0.0       0.0       0.4       3.0       0.4       4.5
 8 H  px              0.0       0.0       0.0       0.2       0.0       0.2
 9 H  s               0.0       0.0       0.4       2.9       0.3       4.2
 9 H  px              0.0       0.0       0.0       0.1       0.0       0.1
 9 H  py              0.0       0.0       0.0       0.1       0.0       0.2
10 H  s               0.0       0.0       0.4       3.0       0.4       3.9
10 H  pz              0.0       0.0       0.0       0.2       0.0       0.2
10 H  py              0.0       0.0       0.0       0.1       0.0       0.1
11 H  s               0.0       0.1       0.8       3.4       0.0       0.1
11 H  px              0.0       0.0       0.0       0.1       0.0       0.0
11 H  py              0.0       0.0       0.0       0.2       0.0       0.0
12 H  s               0.0       0.0       1.0       3.1       0.0       0.1
12 H  pz              0.0       0.0       0.1       0.2       0.0       0.0
13 H  s               0.0       0.0       2.9       0.6       0.0       0.1
13 H  pz              0.0       0.0       0.3       0.1       0.0       0.0
14 H  s               0.0       0.0       1.5       0.4       5.2       1.9
14 H  px              0.0       0.0       0.1       0.0       0.2       0.1
14 H  py              0.0       0.0       0.0       0.0       0.1       0.0
15 H  s               0.0       0.0       1.5       0.5       4.5       1.9
15 H  pz              0.0       0.0       0.1       0.0       0.4       0.1
16 H  s               0.0       0.0       1.5       0.7       4.4       2.3
16 H  px              0.0       0.0       0.1       0.0       0.3       0.1
17 H  s               0.0       0.0       1.2       1.1       6.4       0.3
17 H  py              0.0       0.0       0.1       0.1       0.4       0.0
18 H  s               0.0       0.0       1.3       1.0       5.6       0.3
18 H  pz              0.0       0.0       0.1       0.1       0.5       0.0
19 H  s               0.0       0.0       1.4       1.1       5.5       0.4
19 H  px              0.0       0.0       0.1       0.1       0.3       0.0
19 H  py              0.0       0.0       0.0       0.0       0.1       0.0
20 H  s               0.0      10.4       0.9       0.4       0.0       2.7
20 H  pz              0.0       0.4       0.1       0.0       0.0       0.1
20 H  px              0.0       1.0       0.1       0.0       0.0       0.2
20 H  py              0.0       0.8       0.0       0.0       0.0       0.0

                     12        13        14        15        16        17   
                  -0.56312  -0.53024  -0.48291  -0.43383  -0.41879  -0.40220
                   2.00000   2.00000   2.00000   2.00000   2.00000   2.00000
                  --------  --------  --------  --------  --------  --------
 0 C  s               6.7       0.3       0.7       0.1       0.0       0.0
 0 C  pz              3.7       2.2       0.6       0.0       5.0       0.7
 0 C  px              1.0       0.0       2.5       0.9       4.9       4.8
 0 C  py              1.9       0.0       0.3       8.0       1.3       5.9
 1 C  s              11.4       2.9       1.0       0.3       0.1       0.1
 1 C  pz              4.3       5.0       0.1       1.6       8.1       0.0
 1 C  px              0.0       0.3       0.4       6.2       3.9       7.4
 1 C  py              0.9       1.0       2.6       4.9       0.3       1.6
 2 C  s               1.5       4.6       0.4       0.1       0.2       0.1
 2 C  pz              1.5       8.0       9.4       5.8       1.0       1.8
 2 C  px              8.0       1.5       1.1       1.8       7.3       0.9
 2 C  py              0.0       1.5       8.4       0.3       2.2       1.7
 2 C  dxz             0.2       0.0       0.0       0.0       0.0       0.0
 2 C  dyz             0.0       0.1       0.2       0.0       0.0       0.0
 2 C  dx2y2           0.0       0.0       0.1       0.0       0.0       0.0
 3 H  s               1.2       6.0       3.9       1.7       1.2       0.9
 3 H  pz              0.1       0.4       0.1       0.0       0.0       0.0
 4 C  s               5.3       8.0       0.2       1.2       0.1       0.1
 4 C  pz              0.2       8.1       5.3       1.9      10.1       2.5
 4 C  px              2.2       0.1       2.5       7.5       0.3       0.0
 4 C  py              0.9       0.0       0.0       1.4       1.9       4.7
 5 C  s               2.5       1.8       0.1       0.2       0.0       0.4
 5 C  pz              0.2       3.0       1.1       0.2       8.5       0.8
 5 C  px              0.4       0.0       1.7       7.8       0.0       0.4
 5 C  py              2.2       2.9       0.2       7.4       0.5       8.4
 6 C  s               3.8       1.4       0.0       0.4       0.1       0.0
 6 C  pz              0.5       3.0       1.7       0.0       5.9       5.9
 6 C  px              3.3       1.5       0.6       0.8       8.0       2.5
 6 C  py              0.2       0.6       0.8      12.4       0.1      10.9
 7 O  s               0.3       0.3       0.8       0.0       0.0       2.4
 7 O  pz              0.3       0.9       4.1       1.2       0.4       3.6
 7 O  px              1.0       1.4       8.6       1.3       0.3       4.7
 7 O  py              0.3       7.5      22.8       1.3       3.8       0.4
 7 O  dxz             0.0       0.0       0.3       0.0       0.1       0.1
 7 O  dyz             0.2       1.0       0.1       0.1       0.0       0.0
 7 O  dx2y2           0.0       0.1       0.1       0.0       0.1       0.2
 7 O  dxy             0.9       0.0       0.1       0.3       0.4       0.0
 8 H  s               2.6       0.0       1.0       0.2       3.8       0.3
 9 H  s               3.2       0.4       0.1       2.9       0.5       4.5
 9 H  px              0.1       0.0       0.0       0.0       0.0       0.0
 9 H  py              0.1       0.0       0.0       0.0       0.1       0.1
10 H  s               3.2       0.6       0.8       0.9       0.7       0.7
10 H  py              0.1       0.0       0.0       0.0       0.0       0.0
11 H  s               5.7       1.1       0.1       2.8       1.3       2.5
11 H  px              0.2       0.0       0.0       0.0       0.0       0.0
11 H  py              0.2       0.1       0.0       0.1       0.1       0.1
12 H  s               4.6       3.7       1.0       2.0       1.3       0.5
12 H  pz              0.2       0.1       0.1       0.1       0.0       0.0
12 H  py              0.1       0.1       0.0       0.0       0.0       0.0
13 H  s               1.7       7.5       2.0       0.0       2.8       0.8
13 H  pz              0.1       0.5       0.1       0.0       0.1       0.0
14 H  s               1.1       0.7       0.0       6.4       0.9       1.4
14 H  px              0.0       0.0       0.0       0.1       0.0       0.1
15 H  s               1.0       2.4       0.2       0.1       3.2       0.0
15 H  pz              0.1       0.1       0.0       0.0       0.1       0.0
16 H  s               1.6       0.9       0.8       0.3       0.3       2.2
16 H  px              0.1       0.0       0.0       0.0       0.0       0.1
17 H  s               1.4       0.5       0.0       5.3       1.1       6.1
17 H  py              0.1       0.0       0.0       0.1       0.0       0.1
18 H  s               1.6       2.1       0.5       0.3       2.0       2.0
18 H  pz              0.1       0.1       0.0       0.0       0.1       0.0
19 H  s               2.4       0.7       0.4       0.0       3.6       2.3
20 H  s               0.0       1.6       8.8       0.1       0.6       0.5
20 H  pz              0.0       0.1       0.1       0.0       0.0       0.0
20 H  px              0.0       0.1       0.2       0.1       0.1       0.0

                     18        19        20        21        22        23   
                  -0.38628  -0.36967  -0.35631  -0.34964  -0.33185  -0.32382
                   2.00000   2.00000   2.00000   2.00000   2.00000   2.00000
                  --------  --------  --------  --------  --------  --------
 0 C  s               0.0       0.0       0.0       0.0       0.0       0.7
 0 C  pz              9.7       2.0       3.0       1.8       2.2      21.4
 0 C  px              1.1      12.3       4.4      10.8       3.2       0.8
 0 C  py              9.6       0.0       0.4       0.1       8.9       8.7
 0 C  dxz             0.0       0.0       0.0       0.0       0.2       0.1
 0 C  dyz             0.1       0.1       0.0       0.2       0.0       0.0
 0 C  dxy             0.0       0.1       0.0       0.0       0.1       0.4
 1 C  s               0.0       0.3       0.2       0.0       0.1       0.3
 1 C  pz              1.5       0.7       0.2       1.4       0.0      22.3
 1 C  px              0.1       0.7       0.6       5.2       2.0       0.8
 1 C  py              9.3       0.2       0.1       0.5       1.9       8.0
 1 C  dxz             0.0       0.0       0.0       0.0       0.1       0.1
 1 C  dyz             0.0       0.0       0.0       0.1       0.0       0.1
 1 C  dx2y2           0.1       0.0       0.0       0.2       0.0       0.0
 1 C  dxy             0.0       0.0       0.0       0.0       0.0       0.4
 2 C  s               0.4       0.1       0.0       1.8       0.3       0.1
 2 C  pz              4.9       0.9       0.8       3.6       0.4       1.3
 2 C  px              0.0       0.1       0.0       0.9       3.4       0.3
 2 C  py              3.1       0.0       0.1       3.5       4.3       0.6
 2 C  dx2y2           0.1       0.0       0.0       0.0       0.1       0.0
 3 H  s               2.8       0.6       0.5       0.2       0.9       1.0
 3 H  pz              0.1       0.0       0.0       0.0       0.0       0.0
 4 C  s               0.2       0.0       0.0       0.6       0.0       0.0
 4 C  pz              0.2       0.2       0.0       0.1       0.0       0.0
 4 C  px              2.8       2.6       0.2       5.0       0.0       1.2
 4 C  py              0.1       6.5       0.4       0.2       1.0       0.0
 4 C  dyz             0.0       0.0       0.1       0.0       0.0       0.0
 4 C  dx2y2           0.0       0.0       0.0       0.2       0.0       0.0
 4 C  dxy             0.0       0.0       0.1       0.3       0.0       0.0
 5 C  pz              2.1      19.4       9.0       1.3       0.1       0.0
 5 C  px              7.0       5.3      12.0      13.5       5.4       0.6
 5 C  py              0.5       0.2       2.0       0.4       1.3       0.0
 5 C  dz2             0.0       0.1       0.2       0.0       0.0       0.0
 5 C  dxy             0.0       0.0       0.0       0.2       0.1       0.0
 6 C  s               0.0       0.1       0.0       0.2       0.0       0.0
 6 C  pz              2.1      10.9      15.9       0.1       0.1       0.3
 6 C  px              0.7       3.3       9.3       9.4       2.2       0.6
 6 C  py              3.3       0.1       0.2       1.0      10.8       0.1
 6 C  dz2             0.0       0.1       0.3       0.0       0.0       0.0
 6 C  dx2y2           0.0       0.0       0.0       0.0       0.2       0.0
 6 C  dxy             0.0       0.0       0.0       0.2       0.1       0.0
 7 O  s               0.6       0.0       0.1       0.6       1.2       0.7
 7 O  pz              7.5       1.1       0.0       0.4       3.1       6.4
 7 O  px              0.5       0.4       0.9       8.5      11.1       0.2
 7 O  py              2.4       0.0       0.1       0.6       6.5       0.4
 7 O  dz2             0.3       0.1       0.0       0.2       0.0       0.0
 7 O  dxz             0.0       0.0       0.0       0.0       0.0       0.2
 7 O  dyz             0.3       0.0       0.0       0.2       0.0       0.0
 7 O  dx2y2           0.0       0.0       0.0       0.5       0.0       0.0
 7 O  dxy             0.1       0.0       0.0       0.0       0.2       0.3
 8 H  s               1.6       5.0       3.6       1.9       7.1       0.2
 8 H  pz              0.0       0.0       0.0       0.1       0.0       0.1
 8 H  px              0.1       0.0       0.0       0.0       0.1       0.0
 8 H  py              0.0       0.1       0.0       0.0       0.0       0.1
 9 H  s               0.8       3.4       0.9       1.6       0.0       6.2
 9 H  pz              0.1       0.0       0.0       0.1       0.0       0.1
 9 H  px              0.0       0.0       0.0       0.0       0.1       0.2
 9 H  py              0.0       0.1       0.1       0.0       0.0       0.0
10 H  s               8.2       0.0       0.6       2.9       3.1       2.1
10 H  pz              0.1       0.0       0.0       0.0       0.0       0.1
10 H  py              0.0       0.0       0.0       0.1       0.0       0.2
11 H  s               1.5       0.2       0.2       0.4       0.0       5.9
11 H  px              0.0       0.0       0.0       0.0       0.0       0.2
12 H  s               3.2       0.0       0.1       0.5       0.6       3.8
12 H  py              0.0       0.0       0.0       0.1       0.0       0.3
13 H  s               0.0       0.0       0.0       0.1       0.0       0.0
14 H  s               0.3       4.7       0.0       4.4       2.8       0.2
14 H  py              0.0       0.2       0.0       0.1       0.0       0.0
15 H  s               1.5       8.2       5.5       0.2       0.1       0.0
15 H  pz              0.0       0.1       0.1       0.0       0.0       0.0
15 H  px              0.0       0.1       0.1       0.1       0.0       0.0
16 H  s               3.8       0.7       9.2       6.0       2.0       0.3
16 H  pz              0.0       0.2       0.0       0.1       0.0       0.0
16 H  px              0.0       0.0       0.2       0.0       0.0       0.0
17 H  s               0.7       1.0       0.9       0.4       5.8       0.0
18 H  s               1.5       5.2       9.2       0.1       0.0       0.1
18 H  pz              0.0       0.1       0.2       0.0       0.0       0.0
19 H  s               1.6       0.7       6.7       5.1       4.8       0.1
19 H  pz              0.0       0.1       0.0       0.0       0.0       0.0
20 H  s               0.0       0.0       0.0       1.1       0.2       0.4
20 H  py              0.1       0.0       0.0       0.0       0.2       0.0

                     24        25        26        27        28        29   
                  -0.30617  -0.30557  -0.29816  -0.27631  -0.22935   0.06034
                   2.00000   2.00000   2.00000   2.00000   2.00000   0.00000
                  --------  --------  --------  --------  --------  --------
 0 C  s               0.0       0.0       0.0       0.0       0.2       0.5
 0 C  pz              0.4       1.1       0.5       0.5       0.0       1.0
 0 C  px              0.1       0.1       4.2       3.5       0.4       0.5
 0 C  py              2.2       1.6       5.5       0.2       0.2       0.2
 0 C  dxz             0.1       0.1       0.1       0.0       0.0       0.0
 0 C  dyz             0.0       0.0       0.3       0.0       0.0       0.1
 0 C  dxy             0.0       0.0       0.0       0.1       0.0       0.0
 1 C  s               0.0       0.0       0.1       0.7       0.0       0.4
 1 C  pz              0.3       0.9       1.8       4.3       0.2       0.2
 1 C  px              0.2       0.3       4.9      11.7       0.4       1.3
 1 C  py              3.9       1.8      11.0       1.3       0.1       0.6
 1 C  dz2             0.0       0.0       0.2       0.0       0.0       0.0
 1 C  dxz             0.1       0.0       0.1       0.0       0.0       0.4
 1 C  dyz             0.0       0.0       0.4       0.1       0.0       0.0
 1 C  dxy             0.0       0.0       0.0       0.2       0.0       0.2
 2 C  s               0.4       0.0       0.2       0.3       0.1       2.0
 2 C  pz              0.1       0.0       2.3       6.3       3.2       4.0
 2 C  px              0.3       1.5       0.6      11.5       4.2       0.2
 2 C  py              3.1       0.1       0.0       0.1       0.4      11.4
 2 C  dz2             0.0       0.0       0.1       0.4       0.7       0.4
 2 C  dxz             0.0       0.1       0.0       0.1       0.0       0.0
 2 C  dyz             0.0       0.1       0.0       0.1       0.4       0.1
 2 C  dx2y2           0.5       0.0       0.0       0.0       0.0       0.7
 2 C  dxy             0.0       0.0       0.0       0.4       0.6       0.0
 3 H  s               0.3       0.2       2.1       5.4       6.1       1.4
 3 H  pz              0.0       0.0       0.0       0.0       0.0       0.6
 3 H  px              0.0       0.0       0.0       0.2       0.0       0.0
 3 H  py              0.0       0.0       0.0       0.0       0.0       0.4
 4 C  s               0.0       0.2       0.1       0.1       1.1       0.8
 4 C  pz              0.6      22.1       1.6       0.9       1.0       0.5
 4 C  px              0.2       0.1       2.2       6.4       7.3       0.2
 4 C  py             15.3       0.4       2.6       0.0       2.3       0.4
 4 C  dz2             0.0       0.9       0.1       0.1       0.0       0.0
 4 C  dxz             0.0       0.0       0.0       0.2       0.0       0.1
 4 C  dyz             0.2       0.0       0.0       0.0       0.0       0.0
 4 C  dx2y2           0.4       0.0       0.0       0.0       0.1       0.1
 4 C  dxy             0.0       0.0       0.1       0.2       0.0       0.1
 5 C  s               0.4       0.3       0.2       0.1       0.0       0.3
 5 C  pz              0.6       9.5       1.5       0.0       0.0       0.1
 5 C  px              0.8       0.0       0.1       1.6       0.5       0.7
 5 C  py             17.7       1.5       3.1       0.0       1.0       1.3
 5 C  dz2             0.1       0.4       0.1       0.0       0.0       0.0
 5 C  dyz             0.2       0.1       0.0       0.0       0.0       0.0
 5 C  dxy             0.1       0.0       0.0       0.2       0.1       0.1
 6 C  s               0.3       0.3       0.1       0.5       0.0       8.1
 6 C  pz              0.4       9.4       0.0       0.4       0.1       0.9
 6 C  px              1.2       0.6       2.2       6.0       0.5       0.9
 6 C  py             11.9       0.1       0.6       1.5       0.1       2.7
 6 C  dz2             0.0       0.4       0.1       0.0       0.0       0.2
 6 C  dx2y2           0.3       0.0       0.0       0.0       0.1       0.0
 6 C  dxy             0.0       0.0       0.0       0.1       0.0       0.3
 7 O  s               0.4       0.5       1.3       1.7       0.0       6.9
 7 O  pz              8.6       4.0       0.2      12.6      32.5       1.9
 7 O  px              0.3       0.1      11.7       3.2      27.5       4.0
 7 O  py              5.4       0.3       1.2       0.4       2.3       1.6
 7 O  dz2             0.1       0.0       0.3       0.3       0.2       0.2
 7 O  dxz             0.0       0.0       0.2       0.0       0.0       1.0
 7 O  dyz             0.0       0.1       0.1       0.3       0.3       1.6
 7 O  dx2y2           0.1       0.0       0.0       0.1       0.0       0.1
 7 O  dxy             0.0       0.1       0.4       1.0       0.7       1.2
 8 H  s               0.8       0.5       0.0       2.9       0.4       0.0
 9 H  s               0.4       0.5       5.8       1.1       0.1       0.0
10 H  s               1.3       2.1       5.4       0.0       0.0       0.1
11 H  s               1.6       0.4       7.7       2.9       0.1       0.4
11 H  pz              0.0       0.0       0.1       0.0       0.0       0.0
12 H  s               2.2       1.6       9.8       0.4       0.3       0.3
12 H  px              0.0       0.0       0.0       0.2       0.0       0.1
13 H  s               0.3      17.1       1.8       1.2       0.5       0.2
13 H  pz              0.0       0.1       0.0       0.0       0.0       0.1
13 H  py              0.2       0.0       0.0       0.0       0.0       0.0
14 H  s               6.1       0.6       0.3       1.1       0.1       0.9
15 H  s               0.7       7.2       1.0       0.0       0.1       0.1
15 H  py              0.2       0.0       0.0       0.0       0.0       0.0
16 H  s               0.3       0.4       0.1       1.2       1.0       0.1
16 H  py              0.1       0.0       0.0       0.0       0.0       0.1
17 H  s               5.5       2.0       0.4       0.1       0.0       1.7
17 H  px              0.0       0.0       0.0       0.1       0.0       0.2
17 H  py              0.0       0.1       0.0       0.0       0.0       1.0
18 H  s               0.1       6.7       0.3       0.0       0.2       0.8
18 H  pz              0.0       0.0       0.0       0.0       0.0       0.3
18 H  px              0.0       0.0       0.0       0.0       0.0       0.2
18 H  py              0.1       0.0       0.0       0.0       0.0       0.0
19 H  s               1.1       0.0       0.5       1.0       0.4       3.1
19 H  px              0.1       0.0       0.0       0.0       0.0       0.3
19 H  py              0.0       0.0       0.0       0.0       0.0       0.4
20 H  s               0.0       0.4       0.8       1.6       0.0      20.2
20 H  pz              0.1       0.0       0.0       0.1       0.6       1.1
20 H  px              0.0       0.0       0.1       0.0       0.6       2.4
20 H  py              0.1       0.0       0.1       0.1       0.0       1.8

                     30        31        32        33        34        35   
                   0.08732   0.10482   0.11191   0.11963   0.13603   0.14146
                   0.00000   0.00000   0.00000   0.00000   0.00000   0.00000
                  --------  --------  --------  --------  --------  --------
 0 C  s              11.9       5.8       7.8       1.8       7.0       0.2
 0 C  pz              0.2       2.5       4.1       0.9       0.7       1.6
 0 C  px              0.0       0.3       0.4       3.7       5.5       1.9
 0 C  py              1.3       1.2       0.4       5.9       1.3       1.0
 0 C  dz2             0.1       0.0       0.1       0.0       0.0       0.0
 0 C  dxz             0.2       0.0       0.1       0.5       0.1       0.0
 0 C  dyz             0.0       0.1       0.1       0.4       0.0       0.0
 0 C  dx2y2           0.0       0.3       0.0       0.0       0.0       0.2
 0 C  dxy             0.0       0.1       0.0       0.0       0.2       0.0
 1 C  s               3.6       5.0       0.3       4.8       0.7       3.6
 1 C  pz              1.0       2.7       2.4       3.9       1.7       2.9
 1 C  px              0.8       1.1       3.8       0.7       1.0       3.5
 1 C  py              0.7       1.2       1.1       2.0       0.6       3.4
 1 C  dz2             0.0       0.0       0.1       0.1       0.0       0.0
 1 C  dxz             0.1       0.0       0.1       0.2       0.2       0.6
 1 C  dyz             0.0       1.1       0.0       0.2       0.0       0.1
[...]

                    198       199       200       201       202       203   
                   3.70786   4.15630   4.58793  21.95077  21.97045  22.01893
                   0.00000   0.00000   0.00000   0.00000   0.00000   0.00000
                  --------  --------  --------  --------  --------  --------
 0 C  s               0.1       0.0       0.0      72.6      11.8       1.3
 0 C  pz              0.3       0.0       0.0       0.0       0.0       0.0
 0 C  py              0.1       0.0       0.0       0.0       0.0       0.0
 0 C  dyz             0.6       0.0       0.0       0.0       0.0       0.0
 0 C  dxy             0.1       0.0       0.0       0.0       0.0       0.0
 1 C  s               0.0       0.0       0.0       5.8       0.7      13.7
 1 C  pz              0.5       0.1       0.0       0.0       0.0       0.0
 1 C  px              1.8       0.2       0.0       0.0       0.0       0.0
 1 C  py              0.2       0.2       0.0       0.0       0.0       0.0
 1 C  dz2             0.1       0.2       0.0       0.0       0.0       0.0
 1 C  dyz             2.6       0.2       0.0       0.0       0.0       0.0
 1 C  dx2y2           0.1       0.3       0.0       0.0       0.0       0.0
 2 C  s               1.2       1.3       0.2       3.0       0.6       4.9
 2 C  pz              4.0       1.7       0.1       0.0       0.0       0.0
 2 C  px              1.5       0.1       0.0       0.0       0.0       0.0
 2 C  py              0.7       8.2       0.9       0.0       0.0       0.0
 2 C  dz2             9.0       3.5       0.2       0.0       0.0       0.0
 2 C  dyz             0.5       2.4       0.5       0.0       0.0       0.0
 2 C  dx2y2           1.0       7.1       0.9       0.0       0.0       0.0
 2 C  dxy             0.3       0.1       0.1       0.0       0.0       0.0
 3 H  s               3.8       0.9       0.1       0.0       0.0       0.0
 3 H  pz             10.5       1.1       0.0       0.0       0.0       0.0
 3 H  py              0.0       0.4       0.0       0.0       0.0       0.0
 4 C  s               1.9       0.0       0.0       2.2       4.1       3.8
 4 C  pz              6.1       0.1       0.0       0.0       0.0       0.0
 4 C  px              0.7       0.0       0.0       0.0       0.0       0.0
 4 C  py              0.1       0.1       0.0       0.0       0.0       0.0
 4 C  dz2            15.5       0.0       0.0       0.0       0.0       0.0
 4 C  dyz             0.2       0.1       0.0       0.0       0.0       0.0
 4 C  dx2y2           0.3       0.3       0.0       0.0       0.0       0.0
 4 C  dxy             0.4       0.0       0.0       0.0       0.0       0.0
 5 C  s               0.1       0.1       0.0      15.1      20.4      58.2
 5 C  pz              0.4       0.0       0.0       0.0       0.0       0.0
 5 C  py              0.1       0.1       0.0       0.0       0.0       0.0
 5 C  dz2             1.3       0.0       0.0       0.0       0.0       0.0
 6 C  s               0.1       0.1       0.0       1.1      62.1      17.8
 6 C  pz              0.4       0.0       0.0       0.0       0.0       0.0
 6 C  px              0.2       0.1       0.0       0.0       0.0       0.0
 6 C  py              0.1       0.0       0.0       0.0       0.0       0.0
 6 C  dz2             1.5       0.0       0.0       0.0       0.0       0.0
 6 C  dxz             0.1       0.0       0.0       0.0       0.0       0.0
 7 O  s               0.2      26.6       6.6       0.0       0.0       0.0
 7 O  pz              0.0       2.9       2.3       0.0       0.0       0.0
 7 O  px              0.0       0.9       7.2       0.0       0.0       0.0
 7 O  py              0.0      15.0      10.6       0.0       0.0       0.0
 7 O  dz2             0.1       4.6       0.2       0.0       0.0       0.0
 7 O  dxz             0.0       2.5      11.4       0.0       0.0       0.0
 7 O  dyz             0.0       2.7      10.2       0.0       0.0       0.0
 7 O  dx2y2           0.4      12.2       3.9       0.0       0.0       0.0
 7 O  dxy             0.1       0.5      14.3       0.0       0.0       0.0
10 H  px              0.1       0.0       0.0       0.0       0.0       0.0
11 H  s               0.5       0.2       0.0       0.0       0.0       0.0
11 H  pz              0.4       0.0       0.0       0.0       0.0       0.0
11 H  py              0.5       0.1       0.0       0.0       0.0       0.0
12 H  s               0.9       0.0       0.0       0.0       0.0       0.0
12 H  pz              1.1       0.1       0.0       0.0       0.0       0.0
12 H  py              0.4       0.0       0.0       0.0       0.0       0.0
13 H  s               5.8       0.0       0.0       0.0       0.0       0.0
13 H  pz             15.7       0.0       0.0       0.0       0.0       0.0
14 H  py              0.2       0.0       0.0       0.0       0.0       0.0
15 H  s               0.4       0.0       0.0       0.0       0.0       0.0
15 H  pz              1.1       0.0       0.0       0.0       0.0       0.0
18 H  s               0.4       0.0       0.0       0.0       0.0       0.0
18 H  pz              1.3       0.0       0.0       0.0       0.0       0.0
19 H  px              0.2       0.0       0.0       0.0       0.0       0.0
20 H  s               0.0       0.6      13.9       0.0       0.0       0.0
20 H  pz              0.0       0.2       3.7       0.0       0.0       0.0
20 H  px              0.0       0.3       7.7       0.0       0.0       0.0
20 H  py              0.1       0.5       4.6       0.0       0.0       0.0

                    204       205       206       207   
                  22.04500  22.09691  22.15595  43.71112
                   0.00000   0.00000   0.00000   0.00000
                  --------  --------  --------  --------
 0 C  s              10.4       1.7       1.7       0.0
 1 C  s              57.5       4.3      17.7       0.0
 2 C  s               0.5      39.7      50.9       0.1
 4 C  s              10.5      51.3      27.8       0.0
 5 C  s               3.9       1.7       0.3       0.0
 6 C  s              16.7       0.8       1.1       0.0
 7 O  s               0.0       0.0       0.0      99.9


                      *****************************
                      * MAYER POPULATION ANALYSIS *
                      *****************************

  NA   - Mulliken gross atomic population
  ZA   - Total nuclear charge
  QA   - Mulliken gross atomic charge
  VA   - Mayer's total valence
  BVA  - Mayer's bonded valence
  FA   - Mayer's free valence

  ATOM       NA         ZA         QA         VA         BVA        FA
  0 C      6.4968     6.0000    -0.4968     3.8686     3.8686     0.0000
  1 C      6.2852     6.0000    -0.2852     3.6810     3.6810    -0.0000
  2 C      5.9720     6.0000     0.0280     3.4226     3.4226    -0.0000
  3 H      0.8588     1.0000     0.1412     0.9543     0.9543    -0.0000
  4 C      6.0086     6.0000    -0.0086     3.4288     3.4288    -0.0000
  5 C      6.5303     6.0000    -0.5303     3.7705     3.7705    -0.0000
  6 C      6.5531     6.0000    -0.5531     3.7715     3.7715     0.0000
  7 O      8.4390     8.0000    -0.4390     1.7924     1.7924     0.0000
  8 H      0.8533     1.0000     0.1467     0.9623     0.9623     0.0000
  9 H      0.8495     1.0000     0.1505     0.9602     0.9602     0.0000
 10 H      0.8506     1.0000     0.1494     0.9617     0.9617    -0.0000
 11 H      0.8292     1.0000     0.1708     0.9608     0.9608    -0.0000
 12 H      0.8541     1.0000     0.1459     0.9614     0.9614     0.0000
 13 H      0.8343     1.0000     0.1657     0.9585     0.9585    -0.0000
 14 H      0.8425     1.0000     0.1575     0.9602     0.9602     0.0000
 15 H      0.8413     1.0000     0.1587     0.9602     0.9602    -0.0000
 16 H      0.8530     1.0000     0.1470     0.9640     0.9640    -0.0000
 17 H      0.8505     1.0000     0.1495     0.9627     0.9627     0.0000
 18 H      0.8397     1.0000     0.1603     0.9613     0.9613     0.0000
 19 H      0.8488     1.0000     0.1512     0.9648     0.9648     0.0000
 20 H      0.7091     1.0000     0.2909     0.9166     0.9166     0.0000

  Mayer bond orders larger than 0.100000
B(  0-C ,  1-C ) :   0.8892 B(  0-C ,  8-H ) :   0.9734 B(  0-C ,  9-H ) :   0.9740 
B(  0-C , 10-H ) :   0.9852 B(  1-C ,  2-C ) :   0.8671 B(  1-C , 11-H ) :   0.9727 
B(  1-C , 12-H ) :   0.9758 B(  2-C ,  3-H ) :   0.9900 B(  2-C ,  4-C ) :   0.8585 
B(  2-C ,  7-O ) :   0.8553 B(  4-C ,  5-C ) :   0.8741 B(  4-C ,  6-C ) :   0.8639 
B(  4-C , 13-H ) :   0.9649 B(  5-C , 14-H ) :   0.9664 B(  5-C , 15-H ) :   0.9852 
B(  5-C , 16-H ) :   0.9676 B(  6-C , 17-H ) :   0.9764 B(  6-C , 18-H ) :   0.9885 
B(  6-C , 19-H ) :   0.9712 B(  7-O , 20-H ) :   0.8971 

-------
TIMINGS
-------

Total SCF time: 0 days 0 hours 0 min 24 sec 

Total time                  ....      24.996 sec
Sum of individual times     ....      24.442 sec  ( 97.8%)

SCF preparation             ....       0.201 sec  (  0.8%)
Fock matrix formation       ....      23.290 sec  ( 93.2%)
  Startup                   ....       0.056 sec  (  0.2% of F)
  Split-RI-J                ....       4.279 sec  ( 18.4% of F)
  XC integration            ....      18.356 sec  ( 78.8% of F)
    Basis function eval.    ....       3.348 sec  ( 18.2% of XC)
    Density eval.           ....       5.520 sec  ( 30.1% of XC)
    XC-Functional eval.     ....       2.375 sec  ( 12.9% of XC)
    XC-Potential eval.      ....       5.981 sec  ( 32.6% of XC)
Diagonalization             ....       0.000 sec  (  0.0%)
Density matrix formation    ....       0.245 sec  (  1.0%)
Total Energy calculation    ....       0.034 sec  (  0.1%)
Population analysis         ....       0.119 sec  (  0.5%)
Orbital Transformation      ....       0.056 sec  (  0.2%)
Orbital Orthonormalization  ....       0.000 sec  (  0.0%)
DIIS solution               ....       0.446 sec  (  1.8%)
  MO trafo                  ....       0.000 sec  (  0.0 % of DIIS)
  Orb grad                  ....       0.000 sec  (  0.0 % of DIIS)
  Energy W gradient         ....       0.000 sec  (  0.0 % of DIIS)
  DIIS error                ....       0.011 sec  (  2.5 % of DIIS)
  DIIS work                 ....       0.384 sec  ( 86.2 % of DIIS)
  Form Q                    ....       0.000 sec  (  0.0 % of DIIS)
  Form QpQm                 ....       0.000 sec  (  0.0 % of DIIS)
  Exp/Cayley                ....       0.000 sec  (  0.0 % of DIIS)
  Orb update                ....       0.000 sec  (  0.0 % of DIIS)
  Wake-sleep                ....       0.023 sec  (  5.2 % of DIIS)
SOSCF solution              ....       0.051 sec  (  0.2%)
  MO trafo                  ....       0.041 sec  ( 79.6 % of SOSCF)
  Orb grad                  ....       0.001 sec  (  1.2 % of SOSCF)
  Rot update                ....       0.000 sec  (  0.1 % of SOSCF)
  Step                      ....       0.010 sec  ( 19.0 % of SOSCF)
Finished LeanSCF after  25.1 sec

Maximum memory used throughout the entire LEANSCF-calculation: 23.3 MB


-------------------------------------------------------------------------------
                          DFT DISPERSION CORRECTION                            
                                                                               
                                DFTD4 V3.4.0                                   
-------------------------------------------------------------------------------
The R2SCAN3C composite method is recognized
Using three-body term ABC
Active option DFTDOPT                   ...         5   

-------------------------   ----------------
Dispersion correction           -0.005677223
-------------------------   ----------------

------------------   -----------------
gCP correction             0.011335117
------------------   -----------------

-------------------------   --------------------
FINAL SINGLE POINT ENERGY      -312.199763266389
-------------------------   --------------------


------------------------------------------------------------------------------
                              ORCA PROPERTY CALCULATIONS
------------------------------------------------------------------------------

GBWName                                 ... sp_gas.gbw
Number of atoms                         ...     21
Number of basis functions               ...    208
Max core memory                         ...   1024 MB

Electric properties:
Dipole moment                           ... YES
Quadrupole moment                       ...  NO
Static polarizability (Dipole/Dipole)   ...  NO
Static polarizability (Dipole/Quad.)    ...  NO
Static polarizability (Quad./Quad.)     ...  NO
Static polarizability (Velocity)        ...  NO

Atomic electric properties:
Dipole moment                           ...  NO
Quadrupole moment                       ...  NO
Static polarizability                   ...  NO

Choice of electric origin               ... Center of mass
Position of electric origin             ...    -0.000006    -0.000023     0.000006

General magnetic properties:
Magnetizability                         ...  NO

EPR properties:
g-Tensor (aka g-matrix)                 ...  NO
Zero-Field splitting spin-orbit         ...  NO
Zero-field splitting spin-spin          ...  NO
Hyperfine couplings                     ...  NO (   0 nuclei)
Quadrupole couplings                    ...  NO (   0 nuclei)
Contact density                         ...  NO (   0 nuclei)

NMR properties:
Chemical shifts                         ...  NO (   0 nuclei)
Spin-rotation constants                 ...  NO (   0 nuclei)
Spin-spin couplings                     ...  NO (   0 nuclei,    0 pairs)

Choice of magnetic origin               ... GIAO
Position of magnetic origin             ...     0.000000     0.000000     0.000000

Properties with geometric perturbations:
SCF Hessian                             ...  NO
IR spectrum                             ...  NO
VCD spectrum                            ...  NO
X-ray spectroscopy properties:
SCF XES/XAS/RIXS spectra                ...  NO


-------------
DIPOLE MOMENT
-------------

Method             : SCF
Type of density    : Electron Density
Multiplicity       :   1
Irrep              :   0
Energy             :  -312.2054211606172771 Eh
Relativity type    : 
Basis              : AO
                                X                 Y                 Z
Electronic contribution:      0.961383845       4.460636201      -1.610918290
Nuclear contribution   :     -1.350704121      -4.695416614       1.922875333
                        -----------------------------------------
Total Dipole Moment    :     -0.389320276      -0.234780412       0.311957043
                        -----------------------------------------
Magnitude (a.u.)       :      0.551370398
Magnitude (Debye)      :      1.401472176



--------------------
Rotational spectrum 
--------------------
 
Rotational constants in cm-1:             0.110194             0.064825             0.045187 
Rotational constants in MHz :          3303.528443          1943.401001          1354.682331 

Dipole components along the rotational axes: 
x,y,z [a.u.] :    -0.329481    -0.355538     0.262762 
x,y,z [Debye]:    -0.837475    -0.903706     0.667889 

 

Dipole moment calculation done in   0.0 sec 

Maximum memory used throughout the entire PROP-calculation: 13.0 MB

--------------------------------
SUGGESTED CITATIONS FOR THIS RUN
--------------------------------

Below you find a list of papers that are relevant to this ORCA run
We neither can nor want to force you to cite these papers, but we appreciate if you do
You receive ORCA, which is the product of decades of hard work by many enthusiastic individuals, for free
The only thing we kindly ask in return is that you cite our papers,
We deeply appreciate it, if you show your appreciation for ORCA by not just citing the generic ORCA reference.

Please note that relegating all ORCA citations to the supporting information does *not* help us.
SI sections are not indexed - citations you put there will not count into any citation statistics
But we need these citations in order to attract the funding resources that allow us to do what we are doing

Therefore, if you are a happy ORCA user, please consider citing a few of the papers listed below in the main body of your paper

In addition to the list printed below, the program has created the file sp_gas.bibtex that contains the list in bibtex format
You can import this file easily into all common literature databanks and citation aid programs


List of essential papers. We consider these as the minimum necessary citations

  1. Neese,F.
     Software update: the ORCA program system, version 5.0
     WIRES Comput. Molec. Sci., 2022 12(1)e1606
     doi.org/10.1002/wcms.1606
  2. Grimme,S.; Hansen,A.; Ehlert,S.; Mewes,J.
     r2SCAN-3c: A 'Swiss army knife' composite electronic-structure method
     J. Chem. Phys., 2021 154 064103
     doi.org/10.1063/5.0040021

List of papers to cite with high priority. The work reported in these papers was absolutely
necessary for this run to complete.
Our perspective: the developers of density functionals and basis sets usually get cited in chemistry papers
Good! But without the algorithms to do something with them, the functionals or basis sets would not do anything.
Hence, in our opinion, the algorithm design and method developments papers are equally worthy of getting cited

  1. Neese,F.
     An improvement of the resolution of the identity approximation for the formation of the Coulomb matrix
     J. Comp. Chem., 2003 24(14)1740-1747
     doi.org/10.1002/jcc.10318
  2. Neese,F.
     The SHARK Integral Generation and Digestion System
     J. Comp. Chem., 2022  1-16
     doi.org/10.1002/jcc.26942
  3. Lehtola,S.; Steigemann,C.; Oliveira,M.; Marques,M.
     Recent developments in Libxc - A comprehensive library of functionals for density functional theory
     Software X, 2018 7 
     doi.org/10.1016/j.softx.2017.11.002
  4. Caldeweyher,E.; Bannwarth,C.; Grimme,S.
     Extension of the D3 dispersion coefficient model
     J. Chem. Phys., 2017 147 034112-XXXX
     doi.org/10.1063/1.4993215
  5. Caldeweyher,E.; Ehlert,S.; Hansen,A.; Neugebauer,H.; Spicher,S.; Bannwarth,C.; Grimme,S.
     A generally applicable atomic-charge dependent London dispersion correction
     J. Chem. Phys., 2019 150 154122-XXXX
     doi.org/10.1063/1.5090222
  6. Caldeweyher,E.; Mewes,J.; Ehlert,S.; Grimme,S.
     Extension and evaluation of the D4 London-dispersion model for periodic systems
     Phys. Chem. Chem. Phys., 2020 22(16)8499-8512
     doi.org/10.1039/D0CP00502A

List of suggested additional citations. These are papers that are important in the 'surrounding' of 
of this run, or papers that preceded the highly important papers. If you like your results we are grateful for a citation.

  1. Neese,F.
     The ORCA program system
     WIRES Comput. Molec. Sci., 2012 2(1)73-78
     doi.org/10.1002/wcms.81
  2. Neese,F.
     Software update: the ORCA program system, version 4.0
     WIRES Comput. Molec. Sci., 2018 8(1)1-6
     doi.org/10.1002/wcms.1327
  3. Neese,F.; Wennmohs,F.; Becker,U.; Riplinger,C.
     The ORCA quantum chemistry program package
     J. Chem. Phys., 2020 152 Art. No. L224108
     doi.org/10.1063/5.0004608

List of optional additional citations

  1. Neese,F.
     Approximate second-order SCF convergence for spin unrestricted wavefunctions
     Chem. Phys. Lett., 2000 325(1-3)93-98
     doi.org/10.1016/s0009-2614(00)00662-x

Timings for individual modules:

Sum of individual times          ...       26.765 sec (=   0.446 min)
Startup calculation              ...        1.278 sec (=   0.021 min)   4.8 %
SCF iterations                   ...       25.378 sec (=   0.423 min)  94.8 %
Property calculations            ...        0.108 sec (=   0.002 min)   0.4 %
                             ****ORCA TERMINATED NORMALLY****
TOTAL RUN TIME: 0 days 0 hours 0 minutes 27 seconds 528 msec
