
                                 *****************
                                 * O   R   C   A *
                                 *****************

                                            #,                                       
                                            ###                                      
                                            ####                                     
                                            #####                                    
                                            ######                                   
                                           ########,                                 
                                     ,,################,,,,,                         
                               ,,#################################,,                 
                          ,,##########################################,,             
                       ,#########################################, ''#####,          
                    ,#############################################,,   '####,        
                  ,##################################################,,,,####,       
                ,###########''''           ''''###############################       
              ,#####''   ,,,,##########,,,,          '''####'''          '####       
            ,##' ,,,,###########################,,,                        '##       
           ' ,,###''''                  '''############,,,                           
         ,,##''                                '''############,,,,        ,,,,,,###''
      ,#''                                            '''#######################'''  
     '                                                          ''''####''''         
             ,#######,   #######,   ,#######,      ##                                
            ,#'     '#,  ##    ##  ,#'     '#,    #''#        ,####,   ,####,        
            ##       ##  ##   ,#'  ##            #'  '#       #'       #'  '#        
            ##       ##  #######   ##           ,######,      #####,   #    #        
            '#,     ,#'  ##    ##  '#,     ,#' ,#      #,     #,   #   #,  ,#        
             '#######'   ##     ##  '#######'  #'      '#     '####' # '####'        



                #########################################################
                #                        -***-                          #
                #          Department of theory and spectroscopy        #
                #                                                       #
                #                      Frank Neese                      #
                #                                                       #
                #     Directorship, Architecture, Infrastructure        #
                #                    SHARK, DRIVERS                     #
                #        Core code/Algorithms in most modules           #
                #                                                       #
                #        Max Planck Institute fuer Kohlenforschung      #
                #                Kaiser Wilhelm Platz 1                 #
                #                 D-45470 Muelheim/Ruhr                 #
                #                      Germany                          #
                #                                                       #
                #                  All rights reserved                  #
                #                        -***-                          #
                #########################################################


                         Program Version 6.0.0  -   RELEASE  -


 With contributions from (in alphabetic order):
   Daniel Aravena         : Magnetic Suceptibility
   Michael Atanasov       : Ab Initio Ligand Field Theory (pilot matlab implementation)
   Alexander A. Auer      : GIAO ZORA, VPT2 properties, NMR spectrum
   Ute Becker             : All parallelization in ORCA, NUMFREQ, NUMCALC
   Giovanni Bistoni       : ED, misc. LED, open-shell LED, HFLD
   Martin Brehm           : Molecular dynamics
   Dmytro Bykov           : pre 5.0 version of the SCF Hessian
   Marcos Casanova-Páez   : Triplet and SCS-CIS(D). UHF-(DLPNO)-IP/EA/STEOM-CCSD. UHF-CVS-IP/STEOM-CCSD
   Vijay G. Chilkuri      : MRCI spin determinant printing, contributions to CSF-ICE
   Pauline Colinet        : FMM embedding
   Dipayan Datta          : RHF DLPNO-CCSD density
   Achintya Kumar Dutta   : EOM-CC, STEOM-CC
   Nicolas Foglia         : Exact transition moments, OPA infrastructure, MCD improvements
   Dmitry Ganyushin       : Spin-Orbit,Spin-Spin,Magnetic field MRCI
   Miquel Garcia          : C-PCM and meta-GGA Hessian, CCSD/C-PCM, Gaussian charge scheme
   Tiago L. C. Gouveia    : GS-ROHF, GS-ROCIS
   Yang Guo               : DLPNO-NEVPT2, F12-NEVPT2, CIM, IAO-localization
   Andreas Hansen         : Spin unrestricted coupled pair/coupled cluster methods
   Ingolf Harden          : AUTO-CI MPn and infrastructure 
   Benjamin Helmich-Paris : MC-RPA, TRAH-(SCF,CASSCF), AVAS, COSX integrals, SCF dyn. polar.
   Lee Huntington         : MR-EOM, pCC
   Robert Izsak           : Overlap fitted RIJCOSX, COSX-SCS-MP3, EOM
   Riya Kayal             : Wick's Theorem for AUTO-CI, AUTO-CI UHF-CCSDT
   Emily Kempfer          : AUTO-CI, RHF CISDT and CCSDT
   Christian Kollmar      : KDIIS, OOCD, Brueckner-CCSD(T), CCSD density, CASPT2, CASPT2-K, improved NEVPT2
   Axel Koslowski         : Symmetry handling
   Simone Kossmann        : Meta GGA functionals, TD-DFT gradient, OOMP2, (MP2 Hessian; deprecated post 5.0)
   Lucas Lang             : DCDCAS
   Marvin Lechner         : AUTO-CI (C++ implementation), FIC-MRCC
   Spencer Leger          : CASSCF response
   Dagmar Lenk            : GEPOL surface, SMD, ORCA-2-JSON
   Dimitrios Liakos       : Extrapolation schemes; Compound Job, initial MDCI parallelization
   Dimitrios Manganas     : Further ROCIS development; embedding schemes. LFT, Crystal Embedding
   Dimitrios Pantazis     : SARC Basis sets
   Anastasios Papadopoulos: AUTO-CI, single reference methods and gradients
   Taras Petrenko         : pre 6.0 DFT Hessian and TD-DFT gradient, (ASA, deprecated), ECA, 1-Electron XAS/XES, NRVS
   Peter Pinski           : DLPNO-MP2, DLPNO-MP2 Gradient
   Christoph Reimann      : Effective Core Potentials
   Marius Retegan         : Local ZFS, SOC
   Christoph Riplinger    : Optimizer, TS searches, QM/MM, DLPNO-CCSD(T), (RO)-DLPNO pert. Triples
   Michael Roemelt        : Original ROCIS implementation
   Masaaki Saitow         : Open-shell DLPNO-CCSD energy and density
   Barbara Sandhoefer     : DKH picture change effects
   Kantharuban Sivalingam : CASSCF convergence/infrastructure, NEVPT2 and variants, FIC-MRCI
   Bernardo de Souza      : ESD, SOC TD-DFT
   Georgi Stoychev        : AutoAux, RI-MP2 NMR, DLPNO-MP2 response, X2C
   Van Anh Tran           : RI-MP2 g-tensors
   Willem Van den Heuvel  : Paramagnetic NMR
   Zikuan Wang            : NOTCH, Electric field optimization 
   Frank Wennmohs         : Technical directorship and infrastructure
   Hang Xu                : AUTO-CI-Response properties 


 We gratefully acknowledge several colleagues who have allowed us to
 interface, adapt or use parts of their codes:
   Stefan Grimme, W. Hujo, H. Kruse, P. Pracht,  : VdW corrections, initial TS optimization,
                  C. Bannwarth, S. Ehlert,         DFT functionals, gCP, sTDA/sTD-DF
                  L. Wittmann, M. Mueller
   Ed Valeev, F. Pavosevic, A. Kumar             : LibInt (2-el integral package), F12 methods
   Garnet Chan, S. Sharma, J. Yang, R. Olivares  : DMRG
   Ulf Ekstrom                                   : XCFun DFT Library
   Mihaly Kallay                                 : mrcc  (arbitrary order and MRCC methods)
   Frank Weinhold                                : gennbo (NPA and NBO analysis)
   Simon Mueller                                 : openCOSMO-RS
   Christopher J. Cramer and Donald G. Truhlar   : smd solvation model
   Lars Goerigk                                  : TD-DFT with DH, B97 family of functionals
   V. Asgeirsson, H. Jonsson                     : NEB implementation
   FAccTs GmbH                                   : IRC, NEB, NEB-TS, DLPNO-Multilevel, CI-OPT
                                                   MM, QMMM, 2- and 3-layer-ONIOM, Crystal-QMMM,
                                                   LR-CPCM, SF, NACMEs, symmetry and pop. for TD-DFT,
                                                   nearIR, NL-DFT gradient (VV10), updates on ESD,
                                                   ML-optimized integration grids, MBIS, APM,
                                                   GOAT, DOCKER, SOLVATOR, interface openCOSMO-RS
   S Lehtola, MJT Oliveira, MAL Marques          : LibXC Library
   Liviu Ungur et al                             : ANISO software


 Your calculation uses the libint2 library for the computation of 2-el integrals
 For citations please refer to: http://libint.valeyev.net

 Your ORCA version has been built with support for libXC version: 6.2.2
 For citations please refer to: https://libxc.gitlab.io

 This ORCA versions uses:
   CBLAS   interface :  Fast vector & matrix operations
   LAPACKE interface :  Fast linear algebra routines
   SCALAPACK package :  Parallel linear algebra routines
   Shared memory     :  Shared parallel matrices
   BLAS/LAPACK       :  OpenBLAS 0.3.27  USE64BITINT DYNAMIC_ARCH NO_AFFINITY SkylakeX SINGLE_THREADED
        Core in use  :  SkylakeX
   Copyright (c) 2011-2014, The OpenBLAS Project


Your calculation utilizes the geometrical counterpoise correction gCP
Please cite in your paper:
H.Kruse, S. Grimme J.Chem.Phys., 136, (2012), 154101 
   

Your calculation utilizes the atom-pairwise dispersion correction
based on EEQ partial charges (D4)


================================================================================

----- Orbital basis set information -----
Your calculation utilizes the basis: def2-mTZVPP
   Stefan Grimme, Andreas Hansen, Sebastian Ehlert, and Jan-Michael Mewes 
   J. Chem. Phys. 154, 064103 (2021). DOI: 10.1063/5.0040021

----- AuxJ basis set information -----
Your calculation utilizes the auxiliary basis: def2/J
   F. Weigend, Phys. Chem. Chem. Phys. 8, 1057 (2006).

================================================================================
                                        WARNINGS
                       Please study these warnings very carefully!
================================================================================

Using LibXC functional ID 497 : Re-regularized SCAN exchange by Furness et al
[ 1]  J. W. Furness, A. D. Kaplan, J. Ning, J. P. Perdew, and J. Sun.,  J. Phys. Chem. Lett. 11, 8208-8215 (2020)
[ 2]  J. W. Furness, A. D. Kaplan, J. Ning, J. P. Perdew, and J. Sun.,  J. Phys. Chem. Lett. 11, 9248-9248 (2020)
Using LibXC functional ID 498 : Re-regularized SCAN correlation by Furness et al
[ 1]  J. W. Furness, A. D. Kaplan, J. Ning, J. P. Perdew, and J. Sun.,  J. Phys. Chem. Lett. 11, 8208-8215 (2020)
[ 2]  J. W. Furness, A. D. Kaplan, J. Ning, J. P. Perdew, and J. Sun.,  J. Phys. Chem. Lett. 11, 9248-9248 (2020)
Using LibXC functional ID 497 : Re-regularized SCAN exchange by Furness et al
[ 1]  J. W. Furness, A. D. Kaplan, J. Ning, J. P. Perdew, and J. Sun.,  J. Phys. Chem. Lett. 11, 8208-8215 (2020)
[ 2]  J. W. Furness, A. D. Kaplan, J. Ning, J. P. Perdew, and J. Sun.,  J. Phys. Chem. Lett. 11, 9248-9248 (2020)
Using LibXC functional ID 498 : Re-regularized SCAN correlation by Furness et al
[ 1]  J. W. Furness, A. D. Kaplan, J. Ning, J. P. Perdew, and J. Sun.,  J. Phys. Chem. Lett. 11, 8208-8215 (2020)
[ 2]  J. W. Furness, A. D. Kaplan, J. Ning, J. P. Perdew, and J. Sun.,  J. Phys. Chem. Lett. 11, 9248-9248 (2020)

================================================================================
                                       INPUT FILE
================================================================================
NAME = sp_gas.inp
|  1> ! r2scan-3c def2/J RI DEFGRID2 scfconv6 printgap
|  2> %output
|  3>     printlevel normal
|  4> end
|  5> * xyz 0 1
|  6> C -2.7522807735 -0.3642313916 -0.0321320313
|  7> C -1.3036223024 -0.463497794 0.4319298659
|  8> C -0.3707272721 0.2813037211 -0.5279093761
|  9> C 1.0745182621 0.2892667049 -0.0986819027
| 10> O 1.7239506675 1.3184895676 -0.0693444793
| 11> C 1.6659870419 -1.0362231658 0.278273953
| 12> H -3.069531589 0.6747949593 -0.0801473337
| 13> H -3.4064860472 -0.8907414688 0.6578135864
| 14> H -2.8676285581 -0.8036567848 -1.0199745414
| 15> H -1.0183351259 -1.5135881969 0.489472389
| 16> H -1.2120251497 -0.0294464911 1.4295825246
| 17> H -0.4140058427 -0.195368413 -1.5106297137
| 18> H -0.6991036097 1.3167003551 -0.6415769088
| 19> H 2.7503417749 -0.9681431074 0.2917087441
| 20> H 1.3413902109 -1.8126445525 -0.4070890014
| 21> H 1.3225534728 -1.2946787382 1.2781224789
| 22> *
| 23> 
| 24>                          ****END OF INPUT****
================================================================================

                       ****************************
                       * Single Point Calculation *
                       ****************************

---------------------------------
CARTESIAN COORDINATES (ANGSTROEM)
---------------------------------
  C     -2.752281   -0.364231   -0.032132
  C     -1.303622   -0.463498    0.431930
  C     -0.370727    0.281304   -0.527909
  C      1.074518    0.289267   -0.098682
  O      1.723951    1.318490   -0.069344
  C      1.665987   -1.036223    0.278274
  H     -3.069532    0.674795   -0.080147
  H     -3.406486   -0.890741    0.657814
  H     -2.867629   -0.803657   -1.019975
  H     -1.018335   -1.513588    0.489472
  H     -1.212025   -0.029446    1.429583
  H     -0.414006   -0.195368   -1.510630
  H     -0.699104    1.316700   -0.641577
  H      2.750342   -0.968143    0.291709
  H      1.341390   -1.812645   -0.407089
  H      1.322553   -1.294679    1.278122

----------------------------
CARTESIAN COORDINATES (A.U.)
----------------------------
  NO LB      ZA    FRAG     MASS         X           Y           Z
   0 C     6.0000    0    12.011   -5.201057   -0.688298   -0.060721
   1 C     6.0000    0    12.011   -2.463489   -0.875884    0.816229
   2 C     6.0000    0    12.011   -0.700573    0.531587   -0.997604
   3 C     6.0000    0    12.011    2.030545    0.546635   -0.186482
   4 O     8.0000    0    15.999    3.257795    2.491584   -0.131042
   5 C     6.0000    0    12.011    3.148259   -1.958178    0.525862
   6 H     1.0000    0     1.008   -5.800574    1.275178   -0.151457
   7 H     1.0000    0     1.008   -6.437326   -1.683257    1.243088
   8 H     1.0000    0     1.008   -5.419033   -1.518691   -1.927473
   9 H     1.0000    0     1.008   -1.924375   -2.860267    0.924969
  10 H     1.0000    0     1.008   -2.290396   -0.055646    2.701519
  11 H     1.0000    0     1.008   -0.782358   -0.369193   -2.854676
  12 H     1.0000    0     1.008   -1.321114    2.488203   -1.212405
  13 H     1.0000    0     1.008    5.197393   -1.829525    0.551250
  14 H     1.0000    0     1.008    2.534860   -3.425402   -0.769287
  15 H     1.0000    0     1.008    2.499264   -2.446588    2.415301

--------------------------------
INTERNAL COORDINATES (ANGSTROEM)
--------------------------------
 C      0   0   0     0.000000000000     0.00000000     0.00000000
 C      1   0   0     1.524407632154     0.00000000     0.00000000
 C      2   1   0     1.531768195563   110.87611377     0.00000000
 C      3   2   1     1.507658544617   114.07859163   177.03067263
 O      4   3   2     1.217342529734   121.51525143   229.29079028
 C      4   3   2     1.499618095367   116.42211380    49.71824169
 H      1   2   3     1.087441633866   110.66504268   300.24365256
 H      1   2   3     1.086840538862   110.31766114   180.31081201
 H      1   2   3     1.087305206629   110.55285596    60.31362555
 H      2   1   3     1.089674157399   109.12487923   238.67415591
 H      2   1   3     1.091833961435   109.39014150   120.43672834
 H      3   2   1     1.093082165271   109.09914015   296.90358482
 H      3   2   1     1.092152698474   110.06390137    55.15930193
 H      6   4   3     1.086572857632   109.95824868   163.86766856
 H      6   4   3     1.085318225998   110.83160994    41.33126654
 H      6   4   3     1.088321172280   108.44398359   282.43833896

---------------------------
INTERNAL COORDINATES (A.U.)
---------------------------
 C      0   0   0     0.000000000000     0.00000000     0.00000000
 C      1   0   0     2.880712941230     0.00000000     0.00000000
 C      2   1   0     2.894622390264   110.87611377     0.00000000
 C      3   2   1     2.849061752793   114.07859163   177.03067263
 O      4   3   2     2.300443992373   121.51525143   229.29079028
 C      4   3   2     2.833867505717   116.42211380    49.71824169
 H      1   2   3     2.054966874630   110.66504268   300.24365256
 H      1   2   3     2.053830969692   110.31766114   180.31081201
 H      1   2   3     2.054709064515   110.55285596    60.31362555
 H      2   1   3     2.059185732695   109.12487923   238.67415591
 H      2   1   3     2.063267170827   109.39014150   120.43672834
 H      3   2   1     2.065625934236   109.09914015   296.90358482
 H      3   2   1     2.063869496539   110.06390137    55.15930193
 H      6   4   3     2.053325125477   109.95824868   163.86766856
 H      6   4   3     2.050954215290   110.83160994    41.33126654
 H      6   4   3     2.056628961358   108.44398359   282.43833896

---------------------
BASIS SET INFORMATION
---------------------
There are 3 groups of distinct atoms

 Group   1 Type C   : 11s6p1d contracted to 5s3p1d pattern {62111/411/1}
 Group   2 Type O   : 11s6p2d contracted to 5s3p2d pattern {62111/411/11}
 Group   3 Type H   : 4s1p contracted to 2s1p pattern {31/1}

Atom   0C    basis set group =>   1
Atom   1C    basis set group =>   1
Atom   2C    basis set group =>   1
Atom   3C    basis set group =>   1
Atom   4O    basis set group =>   2
Atom   5C    basis set group =>   1
Atom   6H    basis set group =>   3
Atom   7H    basis set group =>   3
Atom   8H    basis set group =>   3
Atom   9H    basis set group =>   3
Atom  10H    basis set group =>   3
Atom  11H    basis set group =>   3
Atom  12H    basis set group =>   3
Atom  13H    basis set group =>   3
Atom  14H    basis set group =>   3
Atom  15H    basis set group =>   3
---------------------------------
AUXILIARY/J BASIS SET INFORMATION
---------------------------------
There are 3 groups of distinct atoms

 Group   1 Type C   : 12s5p4d2f1g contracted to 6s4p3d1f1g pattern {711111/2111/211/2/1}
 Group   2 Type O   : 12s5p4d2f1g contracted to 6s4p3d1f1g pattern {711111/2111/211/2/1}
 Group   3 Type H   : 5s2p1d contracted to 3s1p1d pattern {311/2/1}

Atom   0C    basis set group =>   1
Atom   1C    basis set group =>   1
Atom   2C    basis set group =>   1
Atom   3C    basis set group =>   1
Atom   4O    basis set group =>   2
Atom   5C    basis set group =>   1
Atom   6H    basis set group =>   3
Atom   7H    basis set group =>   3
Atom   8H    basis set group =>   3
Atom   9H    basis set group =>   3
Atom  10H    basis set group =>   3
Atom  11H    basis set group =>   3
Atom  12H    basis set group =>   3
Atom  13H    basis set group =>   3
Atom  14H    basis set group =>   3
Atom  15H    basis set group =>   3

Checking for AutoStart:
The File: sp_gas.gbw exists
Trying to determine its content:
     ... Fine, the file contains calculation information
     ... Fine, the calculation information was read
     ... Fine, the file contains a basis set
     ... Fine, the basis set was read
     ... Fine, the file contains a geometry
     ... Fine, the geometry was read
     ... Fine, the file contains a set of orbitals
     ... Fine, the orbitals can be read
     => possible old guess file was deleted
     => GBW file was renamed to GES file
     => GES file is set as startup file
     => Guess is set to MORead
     ... now leaving AutoStart

------------------------------------------------------------------------------
                             ORCA STARTUP CALCULATIONS
                           -- RI-GTO INTEGRALS CHOSEN --
------------------------------------------------------------------------------
------------------------------------------------------------------------------
                   ___                                                        
                  /   \      - P O W E R E D   B Y -                         
                 /     \                                                     
                 |  |  |   _    _      __       _____    __    __             
                 |  |  |  | |  | |    /  \     |  _  \  |  |  /  |          
                  \  \/   | |  | |   /    \    | | | |  |  | /  /          
                 / \  \   | |__| |  /  /\  \   | |_| |  |  |/  /          
                |  |  |   |  __  | /  /__\  \  |    /   |      \           
                |  |  |   | |  | | |   __   |  |    \   |  |\   \          
                \     /   | |  | | |  |  |  |  | |\  \  |  | \   \       
                 \___/    |_|  |_| |__|  |__|  |_| \__\ |__|  \__/        
                                                                              
                      - O R C A' S   B I G   F R I E N D -                    
                                      &                                       
                       - I N T E G R A L  F E E D E R -                       
                                                                              
 v1 FN, 2020, v2 2021, v3 2022-2024                                           
------------------------------------------------------------------------------


----------------------
SHARK INTEGRAL PACKAGE
----------------------

Number of atoms                             ...     16
Number of basis functions                   ...    169
Number of shells                            ...     85
Maximum angular momentum                    ...      2
Integral batch strategy                     ... SHARK/LIBINT Hybrid
RI-J (if used) integral strategy            ... SPLIT-RIJ (Revised 2003 algorithm where possible)
Printlevel                                  ...      1
Contraction scheme used                     ... SEGMENTED contraction
Prescreening option                         ... SCHWARTZ
   Thresh                                   ... 1.000e-10
   Tcut                                     ... 1.000e-11
   Tpresel                                  ... 1.000e-11 
Coulomb Range Separation                    ... NOT USED
Exchange Range Separation                   ... NOT USED
Multipole approximations                    ... NOT USED
Finite Nucleus Model                        ... NOT USED
CABS basis                                  ... NOT available
Auxiliary Coulomb fitting basis             ... AVAILABLE
   # of basis functions in Aux-J            ...    404
   # of shells in Aux-J                     ...    140
   Maximum angular momentum in Aux-J        ...      4
Auxiliary J/K fitting basis                 ... NOT available
Auxiliary Correlation fitting basis         ... NOT available
Auxiliary 'external' fitting basis          ... NOT available

Checking pre-screening integrals            ... done (  0.0 sec) Dimension = 85
Check shell pair data                       ... done (  0.0 sec)
Shell pair information
Shell pair cut-off parameter TPreSel        ...   1.0e-11
Total number of shell pairs                 ...      3655
Shell pairs after pre-screening             ...      3373
Total number of primitive shell pairs       ...     12882
Primitive shell pairs kept                  ...      8817
          la=0 lb=0:   1163 shell pairs
          la=1 lb=0:   1293 shell pairs
          la=1 lb=1:    380 shell pairs
          la=2 lb=0:    325 shell pairs
          la=2 lb=1:    185 shell pairs
          la=2 lb=2:     27 shell pairs

Calculating one electron integrals          ... done (  0.0 sec)
Calculating RI/J V-Matrix + Cholesky decomp.... done (  0.1 sec)
Calculating Nuclear repulsion               ... done (  0.0 sec) ENN=    237.449618296151 Eh

Diagonalization of the overlap matrix:
Smallest eigenvalue                        ... 1.930e-04
Time for diagonalization                   ...    0.008 sec
Threshold for overlap eigenvalues          ... 1.000e-07
Number of eigenvalues below threshold      ... 0
Time for construction of square roots      ...    0.017 sec
Total time needed                          ...    0.035 sec

-------------------
DFT GRID GENERATION
-------------------

General Integration Accuracy     IntAcc      ... 4.388
Radial Grid Type                 RadialGrid  ... OptM3 with GC (2021)
Angular Grid (max. ang.)         AngularGrid ... 4 (Lebedev-302)
Angular grid pruning method      GridPruning ... 4 (adaptive)
Weight generation scheme         WeightScheme... mBecke (2022)
Basis function cutoff            BFCut       ... 1.0000e-10
Integration weight cutoff        WCut        ... 1.0000e-14
Partially contracted basis set               ... off
Rotationally invariant grid construction     ... off
Angular grids for H and He will be reduced by one unit
Diffuse basis detected: some atoms will have their outermost
                        angular grid increased by 1.

Total number of grid points                  ...    68597
Total number of batches                      ...     1080
Average number of points per batch           ...       63
Average number of grid points per atom       ...     4287
Initializing property integral containers    ... done (  0.0 sec)

SHARK setup successfully completed in   1.0 seconds

Maximum memory used throughout the entire STARTUP-calculation: 30.5 MB
-------------------------------------------------------------------------------
                                 ORCA GUESS
                   Start orbitals & Density for SCF / CASSCF
-------------------------------------------------------------------------------

------------
SCF SETTINGS
------------
Hamiltonian:
 Density Functional     Method          .... DFT(GTOs)
  Functional kind                       .... Exchange
  Functional name                       .... Re-regularized SCAN exchange by Furness et al
  Functional family                     .... MGGA
  Functional refs                              
    [ 0] J. W. Furness, A. D. Kaplan, J. Ning, J. P. Perdew, and J. Sun.,  J. Phys. Chem. Lett. 11, 8208-8215 (2020), doi: 10.1021/acs.jpclett.0c02405
    [ 1] J. W. Furness, A. D. Kaplan, J. Ning, J. P. Perdew, and J. Sun.,  J. Phys. Chem. Lett. 11, 9248-9248 (2020), doi: 10.1021/acs.jpclett.0c03077
  Functional external parameters        .... 6
    Parameter  0 _c1        =  6.670000e-01 : c1 parameter        
    Parameter  1 _c2        =  8.000000e-01 : c2 parameter        
    Parameter  2 _d         =  1.240000e+00 : d parameter         
    Parameter  3 _k1        =  6.500000e-02 : k1 parameter        
    Parameter  4 _eta       =  1.000000e-03 : eta parameter       
    Parameter  5 _dp2       =  3.610000e-01 : dp2 parameter       
  Functional kind                       .... Correlation
  Functional name                       .... Re-regularized SCAN correlation by Furness et al
  Functional family                     .... MGGA
  Functional refs                              
    [ 0] J. W. Furness, A. D. Kaplan, J. Ning, J. P. Perdew, and J. Sun.,  J. Phys. Chem. Lett. 11, 8208-8215 (2020), doi: 10.1021/acs.jpclett.0c02405
    [ 1] J. W. Furness, A. D. Kaplan, J. Ning, J. P. Perdew, and J. Sun.,  J. Phys. Chem. Lett. 11, 9248-9248 (2020), doi: 10.1021/acs.jpclett.0c03077
  Functional external parameters        .... 1
    Parameter  0 _eta       =  1.000000e-03 : Regularization parameter
 Gradients option       PostSCFGGA      .... off
 RI-approximation to the Coulomb term is turned on
   Number of AuxJ basis functions       .... 404


General Settings:
 Integral files         IntName         .... sp_gas
 Hartree-Fock type      HFTyp           .... RHF
 Total Charge           Charge          ....    0
 Multiplicity           Mult            ....    1
 Number of Electrons    NEL             ....   48
 Basis Dimension        Dim             ....  169
 Nuclear Repulsion      ENuc            ....    237.4496182962 Eh

Convergence Acceleration:
 AO-DIIS                CNVDIIS         .... on
   Start iteration      DIISMaxIt       ....    12
   Startup error        DIISStart       ....  0.200000
   # of expansion vecs  DIISMaxEq       ....     5
   Bias factor          DIISBfac        ....   1.050
   Max. coefficient     DIISMaxC        ....  10.000
 MO-DIIS                CNVKDIIS        .... off
 Trust-Rad. Augm. Hess. CNVTRAH         .... auto
   Auto Start mean grad. ratio tolernc. ....  1.125000
   Auto Start start iteration           ....     1
   Auto Start num. interpolation iter.  ....    10
   Max. Number of Micro iterations      ....    24
   Max. Number of Macro iterations      .... Maxiter - #DIIS iter
   Number of Davidson start vectors     ....     2
   Converg. threshold    (grad. norm)   ....   3.330e-04
   Grad. Scal. Fac. for Micro threshold ....   0.100
   Minimum threshold for Micro iter.    ....   1.000e-02
   NR start threshold (gradient norm)   ....   1.000e-04
   Initial trust radius                 ....   0.400
   Minimum AH scaling param. (alpha)    ....   1.000
   Maximum AH scaling param. (alpha)    .... 1000.000
   Quad. conv. algorithm                .... NR
   White noise on init. David. guess    .... on
   Maximum white noise                  ....   0.010
   Pseudo random numbers                .... off
   Inactive MOs                         .... canonical
   Orbital update algorithm             .... Taylor
   Preconditioner                       .... Diag
   Full preconditioner red. dimension   ....   250
   COSX micro iterations for RIJONX calc.... off
 SOSCF                  CNVSOSCF        .... on
   Start iteration      SOSCFMaxIt      ....   150
   Startup grad/error   SOSCFStart      ....  0.003300
   Hessian update       SOSCFHessUp     .... L-BFGS
 Level Shifting         CNVShift        .... on
   Level shift para.    LevelShift      ....    0.2500
   Turn off err/grad.   ShiftErr        ....    0.0010
 Zerner damping         CNVZerner       .... off
 Static damping         CNVDamp         .... on
   Fraction old density DampFac         ....    0.7000
   Max. Damping (<1)    DampMax         ....    0.9800
   Min. Damping (>=0)   DampMin         ....    0.0000
   Turn off err/grad.   DampErr         ....    0.1000

SCF Procedure:
 Maximum # iterations   MaxIter         ....   125
 SCF integral mode      SCFMode         .... Direct
   Integral package                     .... SHARK and LIBINT hybrid scheme
 Reset frequency        DirectResetFreq ....    20
 Integral Threshold     Thresh          ....  1.000e-10 Eh
 Primitive CutOff       TCut            ....  1.000e-11 Eh

Convergence Tolerance:
 Convergence Check Mode ConvCheckMode   .... Total+1el-Energy
 Convergence forced     ConvForced      .... 0
 Energy Change          TolE            ....  1.000e-06 Eh
 1-El. energy change                    ....  1.000e-03 Eh
 Orbital Gradient       TolG            ....  3.330e-04
 Orbital Rotation angle TolX            ....  3.330e-04
 DIIS Error             TolErr          ....  1.000e-06

---------------------
INITIAL GUESS: MOREAD
---------------------
Guess MOs are being read from file: sp_gas.ges
Input Geometry matches current geometry (good)
Atom 0: N(Shells)= 9 and 6 - projection required
Input basis set needs projection
NBasis(read)= 104
NBasis(calc)= 169
Basis set overlap was calculated
Using GuessMode=FMatrix for the initial guess
C*T matrix was formed
Effective Fockian was calculated
Effective Fockian was diagonalized
Initial density was built
                      ------------------
                      INITIAL GUESS DONE (   0.0 sec)
                      ------------------
             **** ENERGY FILE WAS UPDATED (sp_gas.en.tmp) ****
Finished Guess after   0.2 sec
Maximum memory used throughout the entire GUESS-calculation: 11.4 MB

-------------------------------------------------------------------------------------------
                                      ORCA LEAN-SCF
                              memory conserving SCF solver
-------------------------------------------------------------------------------------------

----------------------------------------D-I-I-S--------------------------------------------
Iteration    Energy (Eh)           Delta-E    RMSDP     MaxDP     DIISErr   Damp  Time(sec)
-------------------------------------------------------------------------------------------
               ***  Starting incremental Fock matrix formation  ***
    1    -271.5685099030905576     0.00e+00  4.31e-03  1.08e-01  6.23e-01  0.700   2.0
    2    -271.6094032404031395    -4.09e-02  3.64e-03  9.22e-02  4.38e-01  0.700   1.9
    3    -271.6383526861872610    -2.89e-02  2.74e-03  6.88e-02  3.07e-01  0.700   1.8
    4    -271.6586877755065075    -2.03e-02  1.99e-03  4.96e-02  2.15e-01  0.700   1.8
                               ***Turning on AO-DIIS***
    5    -271.6729553976128955    -1.43e-02  1.46e-03  3.55e-02  1.50e-01  0.700   1.8
    6    -271.6829584592599076    -1.00e-02  1.04e-03  2.51e-02  1.05e-01  0.700   1.7
    7    -271.6899717049677747    -7.01e-03  7.36e-04  1.77e-02  7.36e-02  0.700   1.7
    8    -271.6948857861214606    -4.91e-03  1.73e-03  4.18e-02  5.16e-02  0.000   1.7
                              *** Initializing SOSCF ***
---------------------------------------S-O-S-C-F--------------------------------------
Iteration    Energy (Eh)           Delta-E    RMSDP     MaxDP     MaxGrad    Time(sec)
--------------------------------------------------------------------------------------
    9    -271.7063688614713328    -1.15e-02  9.82e-06  2.00e-04  2.53e-04     1.8
               *** Restarting incremental Fock matrix formation ***
   10    -271.7063688415370279     1.99e-08  2.59e-05  1.13e-03  1.19e-04     2.1
   11    -271.7063679697635052     8.72e-07  1.67e-05  6.86e-04  3.41e-04     1.5
                 **** Energy Check signals convergence ****

               *****************************************************
               *                     SUCCESS                       *
               *           SCF CONVERGED AFTER  11 CYCLES          *
               *****************************************************

             **** ENERGY FILE WAS UPDATED (sp_gas.en.tmp) ****

----------------
TOTAL SCF ENERGY
----------------

Total Energy       :       -271.70636796976351 Eh           -7393.50615 eV

Components:
Nuclear Repulsion  :        237.44961829615102 Eh            6461.33260 eV
Electronic Energy  :       -509.15598626591452 Eh          -13854.83875 eV
One Electron Energy:       -837.09931312898641 Eh          -22778.63035 eV
Two Electron Energy:        327.94332686307189 Eh            8923.79160 eV

Virial components:
Potential Energy   :       -542.26400969172312 Eh          -14755.75387 eV
Kinetic Energy     :        270.55764172195961 Eh            7362.24772 eV
Virial Ratio       :          2.00424577269558

DFT components:
N(Alpha)           :       23.999940096794 electrons
N(Beta)            :       23.999940096794 electrons
N(Total)           :       47.999880193588 electrons
E(X)               :      -37.854685747043 Eh       
E(C)               :       -1.506148183882 Eh       
E(XC)              :      -39.360833930925 Eh       

---------------
SCF CONVERGENCE
---------------

  Last Energy change         ...   -8.7177e-07  Tolerance :   1.0000e-06
  Last MAX-Density change    ...    6.8573e-04  Tolerance :   1.0000e-05
  Last RMS-Density change    ...    1.6665e-05  Tolerance :   1.0000e-06
  Last DIIS Error            ...    2.5271e-04  Tolerance :   1.0000e-06
  Last Orbital Gradient      ...    3.4119e-04  Tolerance :   3.3300e-04
  Last Orbital Rotation      ...    3.5040e-04  Tolerance :   3.3300e-04


----------------
ORBITAL ENERGIES
----------------

  NO   OCC          E(Eh)            E(eV) 
   0   2.0000     -18.934540      -515.2350 
   1   2.0000     -10.117207      -275.3032 
   2   2.0000     -10.043374      -273.2941 
   3   2.0000     -10.037658      -273.1386 
   4   2.0000     -10.034145      -273.0430 
   5   2.0000     -10.027628      -272.8656 
   6   2.0000      -0.999834       -27.2069 
   7   2.0000      -0.777654       -21.1610 
   8   2.0000      -0.718716       -19.5573 
   9   2.0000      -0.667491       -18.1634 
  10   2.0000      -0.577047       -15.7023 
  11   2.0000      -0.501124       -13.6363 
  12   2.0000      -0.454826       -12.3765 
  13   2.0000      -0.435150       -11.8410 
  14   2.0000      -0.419041       -11.4027 
  15   2.0000      -0.405349       -11.0301 
  16   2.0000      -0.385324       -10.4852 
  17   2.0000      -0.364867        -9.9285 
  18   2.0000      -0.352566        -9.5938 
  19   2.0000      -0.338544        -9.2123 
  20   2.0000      -0.330254        -8.9867 
  21   2.0000      -0.313861        -8.5406 
  22   2.0000      -0.309195        -8.4136 
  23   2.0000      -0.210267        -5.7217 
  24   0.0000      -0.043964        -1.1963 
  25   0.0000       0.081127         2.2076 
  26   0.0000       0.098285         2.6745 
  27   0.0000       0.117501         3.1974 
  28   0.0000       0.128923         3.5082 
  29   0.0000       0.134477         3.6593 
  30   0.0000       0.140792         3.8311 
  31   0.0000       0.146873         3.9966 
  32   0.0000       0.160724         4.3735 
  33   0.0000       0.166859         4.5405 
  34   0.0000       0.182093         4.9550 
*Only the first 10 virtual orbitals were printed.

                    ********************************
                    * MULLIKEN POPULATION ANALYSIS *
                    ********************************

-----------------------
MULLIKEN ATOMIC CHARGES
-----------------------
   0 C :   -0.461251
   1 C :   -0.245295
   2 C :   -0.291524
   3 C :    0.283860
   4 O :   -0.341846
   5 C :   -0.511742
   6 H :    0.147794
   7 H :    0.149180
   8 H :    0.141912
   9 H :    0.141640
  10 H :    0.150467
  11 H :    0.156949
  12 H :    0.167314
  13 H :    0.177062
  14 H :    0.160308
  15 H :    0.175171
Sum of atomic charges:    0.0000000

--------------------------------
MULLIKEN REDUCED ORBITAL CHARGES
--------------------------------
  0 C s       :     3.327288  s :     3.327288
      pz      :     1.071206  p :     3.106882
      px      :     0.946676
      py      :     1.089001
      dz2     :     0.005658  d :     0.027082
      dxz     :     0.005840
      dyz     :     0.003553
      dx2y2   :     0.006652
      dxy     :     0.005379

  1 C s       :     3.219392  s :     3.219392
      pz      :     1.006383  p :     2.988872
      px      :     0.928498
      py      :     1.053991
      dz2     :     0.008753  d :     0.037031
      dxz     :     0.007433
      dyz     :     0.004783
      dx2y2   :     0.009409
      dxy     :     0.006654

  2 C s       :     3.207932  s :     3.207932
      pz      :     0.989723  p :     3.048922
      px      :     0.940954
      py      :     1.118244
      dz2     :     0.007770  d :     0.034670
      dxz     :     0.005718
      dyz     :     0.005328
      dx2y2   :     0.010337
      dxy     :     0.005518

  3 C s       :     3.167332  s :     3.167332
      pz      :     0.729748  p :     2.456437
      px      :     0.918754
      py      :     0.807935
      dz2     :     0.005383  d :     0.092371
      dxz     :     0.008907
      dyz     :     0.015593
      dx2y2   :     0.037578
      dxy     :     0.024910

  4 O s       :     3.836075  s :     3.836075
      pz      :     1.389329  p :     4.483335
      px      :     1.644521
      py      :     1.449485
      dz2     :     0.001448  d :     0.022435
      dxz     :     0.003273
      dyz     :     0.008377
      dx2y2   :     0.003108
      dxy     :     0.006228

  5 C s       :     3.298917  s :     3.298917
      pz      :     1.072208  p :     3.188097
      px      :     1.126665
      py      :     0.989223
      dz2     :     0.004872  d :     0.024728
      dxz     :     0.002604
      dyz     :     0.005215
      dx2y2   :     0.007233
      dxy     :     0.004803

  6 H s       :     0.833963  s :     0.833963
      pz      :     0.003727  p :     0.018242
      px      :     0.004235
      py      :     0.010281

  7 H s       :     0.832502  s :     0.832502
      pz      :     0.006501  p :     0.018318
      px      :     0.006417
      py      :     0.005399

  8 H s       :     0.839828  s :     0.839828
      pz      :     0.009736  p :     0.018261
      px      :     0.003665
      py      :     0.004860

  9 H s       :     0.840325  s :     0.840325
      pz      :     0.003533  p :     0.018035
      px      :     0.004044
      py      :     0.010458

 10 H s       :     0.831719  s :     0.831719
      pz      :     0.009762  p :     0.017813
      px      :     0.003442
      py      :     0.004610

 11 H s       :     0.824804  s :     0.824804
      pz      :     0.009707  p :     0.018248
      px      :     0.003677
      py      :     0.004864

 12 H s       :     0.815076  s :     0.815076
      pz      :     0.003373  p :     0.017610
      px      :     0.003638
      py      :     0.010599

 13 H s       :     0.804914  s :     0.804914
      pz      :     0.003440  p :     0.018023
      px      :     0.011329
      py      :     0.003254

 14 H s       :     0.821253  s :     0.821253
      pz      :     0.006590  p :     0.018438
      px      :     0.004108
      py      :     0.007739

 15 H s       :     0.806128  s :     0.806128
      pz      :     0.009875  p :     0.018701
      px      :     0.004434
      py      :     0.004392


------------------------
MULLIKEN OVERLAP CHARGES
------------------------
B(  0-C ,  1-C ) :   0.4260 B(  0-C ,  2-C ) :  -0.1332 B(  0-C ,  6-H ) :   0.8542 
B(  0-C ,  7-H ) :   0.8006 B(  0-C ,  8-H ) :   0.8485 B(  0-C , 10-H ) :  -0.0595 
B(  1-C ,  2-C ) :   0.2151 B(  1-C ,  5-C ) :   0.0510 B(  1-C ,  6-H ) :  -0.0957 
B(  1-C ,  7-H ) :  -0.0725 B(  1-C ,  8-H ) :  -0.0884 B(  1-C ,  9-H ) :   0.7943 
B(  1-C , 10-H ) :   0.8565 B(  1-C , 11-H ) :  -0.0846 B(  1-C , 12-H ) :  -0.0669 
B(  2-C ,  3-C ) :   0.1838 B(  2-C ,  4-O ) :  -0.2600 B(  2-C ,  5-C ) :  -0.4132 
B(  2-C , 10-H ) :  -0.1245 B(  2-C , 11-H ) :   0.7476 B(  2-C , 12-H ) :   0.8886 
B(  2-C , 14-H ) :   0.0731 B(  3-C ,  4-O ) :   1.1912 B(  3-C ,  5-C ) :   0.4094 
B(  3-C ,  9-H ) :  -0.0502 B(  3-C , 12-H ) :  -0.1117 B(  3-C , 13-H ) :  -0.0596 
B(  3-C , 14-H ) :  -0.0964 B(  4-O ,  5-C ) :  -0.2326 B(  5-C , 13-H ) :   0.8042 
B(  5-C , 14-H ) :   0.7830 B(  5-C , 15-H ) :   0.7705 B(  6-H ,  8-H ) :  -0.0522 
B(  9-H , 10-H ) :  -0.0515 


                     *******************************
                     * LOEWDIN POPULATION ANALYSIS *
                     *******************************

----------------------
LOEWDIN ATOMIC CHARGES
----------------------
   0 C :   -0.419426
   1 C :   -0.303091
   2 C :   -0.280280
   3 C :    0.215342
   4 O :   -0.464059
   5 C :   -0.390057
   6 H :    0.152912
   7 H :    0.152232
   8 H :    0.150951
   9 H :    0.153874
  10 H :    0.156402
  11 H :    0.174985
  12 H :    0.178335
  13 H :    0.176128
  14 H :    0.166660
  15 H :    0.179093

-------------------------------
LOEWDIN REDUCED ORBITAL CHARGES
-------------------------------
  0 C s       :     2.973679  s :     2.973679
      pz      :     1.149061  p :     3.382385
      px      :     1.075181
      py      :     1.158144
      dz2     :     0.013707  d :     0.063361
      dxz     :     0.013114
      dyz     :     0.008957
      dx2y2   :     0.015997
      dxy     :     0.011586

  1 C s       :     2.935707  s :     2.935707
      pz      :     1.111993  p :     3.287059
      px      :     1.052298
      py      :     1.122767
      dz2     :     0.019557  d :     0.080326
      dxz     :     0.015416
      dyz     :     0.010829
      dx2y2   :     0.021280
      dxy     :     0.013244

  2 C s       :     2.935458  s :     2.935458
      pz      :     1.098389  p :     3.269947
      px      :     1.037475
      py      :     1.134083
      dz2     :     0.016789  d :     0.074875
      dxz     :     0.012170
      dyz     :     0.011887
      dx2y2   :     0.022119
      dxy     :     0.011911

  3 C s       :     2.828862  s :     2.828862
      pz      :     0.733005  p :     2.758253
      px      :     1.003618
      py      :     1.021630
      dz2     :     0.013321  d :     0.197543
      dxz     :     0.015817
      dyz     :     0.027650
      dx2y2   :     0.083856
      dxy     :     0.056900

  4 O s       :     3.565241  s :     3.565241
      pz      :     1.383999  p :     4.669034
      px      :     1.694939
      py      :     1.590097
      dz2     :     0.029431  d :     0.229784
      dxz     :     0.015845
      dyz     :     0.030794
      dx2y2   :     0.082653
      dxy     :     0.071062

  5 C s       :     2.966285  s :     2.966285
      pz      :     1.137251  p :     3.365644
      px      :     1.152886
      py      :     1.075506
      dz2     :     0.011991  d :     0.058127
      dxz     :     0.005746
      dyz     :     0.012748
      dx2y2   :     0.017103
      dxy     :     0.010538

  6 H s       :     0.803644  s :     0.803644
      pz      :     0.008103  p :     0.043444
      px      :     0.009561
      py      :     0.025780

  7 H s       :     0.804202  s :     0.804202
      pz      :     0.015745  p :     0.043565
      px      :     0.015221
      py      :     0.012600

  8 H s       :     0.805691  s :     0.805691
      pz      :     0.024051  p :     0.043359
      px      :     0.008096
      py      :     0.011212

  9 H s       :     0.802392  s :     0.802392
      pz      :     0.008171  p :     0.043734
      px      :     0.009493
      py      :     0.026070

 10 H s       :     0.800444  s :     0.800444
      pz      :     0.024121  p :     0.043154
      px      :     0.008070
      py      :     0.010963

 11 H s       :     0.780367  s :     0.780367
      pz      :     0.024034  p :     0.044649
      px      :     0.008897
      py      :     0.011718

 12 H s       :     0.778691  s :     0.778691
      pz      :     0.007767  p :     0.042974
      px      :     0.008384
      py      :     0.026823

 13 H s       :     0.780321  s :     0.780321
      pz      :     0.007623  p :     0.043552
      px      :     0.028879
      py      :     0.007049

 14 H s       :     0.788512  s :     0.788512
      pz      :     0.016180  p :     0.044828
      px      :     0.009582
      py      :     0.019066

 15 H s       :     0.775680  s :     0.775680
      pz      :     0.024879  p :     0.045227
      px      :     0.010220
      py      :     0.010128


---------------------------------
LOEWDIN BOND ORDERS (THRESH 0.050000)
---------------------------------
B(  0-C ,  1-C ) :   1.1434 B(  0-C ,  2-C ) :   0.0764 B(  0-C ,  6-H ) :   0.9277 
B(  0-C ,  7-H ) :   0.9287 B(  0-C ,  8-H ) :   0.9295 B(  1-C ,  2-C ) :   1.0809 
B(  1-C ,  3-C ) :   0.0749 B(  1-C ,  9-H ) :   0.8911 B(  1-C , 10-H ) :   0.8937 
B(  2-C ,  3-C ) :   1.0037 B(  2-C ,  4-O ) :   0.2183 B(  2-C ,  5-C ) :   0.0843 
B(  2-C , 11-H ) :   0.8635 B(  2-C , 12-H ) :   0.8732 B(  3-C ,  4-O ) :   2.3743 
B(  3-C ,  5-C ) :   1.0417 B(  4-O ,  5-C ) :   0.2142 B(  5-C , 13-H ) :   0.9093 
B(  5-C , 14-H ) :   0.9076 B(  5-C , 15-H ) :   0.8934 

------------------------------------------
LOEWDIN REDUCED ORBITAL POPULATIONS PER MO
-------------------------------------------
THRESHOLD FOR PRINTING IS 0.1%%
                      0         1         2         3         4         5   
                 -18.93454 -10.11721 -10.04337 -10.03766 -10.03415 -10.02763
                   2.00000   2.00000   2.00000   2.00000   2.00000   2.00000
                  --------  --------  --------  --------  --------  --------
 0 C  s               0.0       0.0       0.0       0.0       0.0      99.7
 1 C  s               0.0       0.0      99.7       0.0       0.0       0.0
 2 C  s               0.0       0.0       0.0      99.7       0.0       0.0
 3 C  s               0.0      99.2       0.0       0.0       0.0       0.0
 4 O  s              99.9       0.0       0.0       0.0       0.0       0.0
 4 O  py              0.0       0.2       0.0       0.0       0.0       0.0
 4 O  dxy             0.0       0.2       0.0       0.0       0.0       0.0
 5 C  s               0.0       0.0       0.0       0.0      99.7       0.0

                      6         7         8         9        10        11   
                  -0.99983  -0.77765  -0.71872  -0.66749  -0.57705  -0.50112
                   2.00000   2.00000   2.00000   2.00000   2.00000   2.00000
                  --------  --------  --------  --------  --------  --------
 0 C  s               0.0      10.5      10.4      16.2      10.4       0.1
 0 C  pz              0.0       0.1       0.1       0.0       1.8       1.0
 0 C  px              0.0       2.8       0.4       0.3       7.4       0.6
 0 C  py              0.0       0.0       0.0       0.0       0.2       0.5
 0 C  dx2y2           0.0       0.1       0.0       0.0       0.1       0.0
 1 C  s               0.1      23.4       5.3       0.3      16.3       0.1
 1 C  pz              0.0       1.2       0.0       0.5       4.2       4.6
 1 C  px              0.1       0.0       3.5       8.1       2.8       0.0
 1 C  py              0.0       0.4       0.0       0.9       1.2       1.4
 1 C  dxz             0.0       0.0       0.0       0.2       0.0       0.0
 1 C  dx2y2           0.0       0.0       0.0       0.0       0.1       0.0
 2 C  s               1.2      20.3       0.3      16.2       2.2       3.1
 2 C  pz              0.1       1.1       0.0       0.3       4.5       4.9
 2 C  px              1.8       0.5       4.0       0.4       3.1      11.6
 2 C  py              0.1       1.1       0.0       0.3       2.0       0.9
 2 C  dxz             0.0       0.0       0.0       0.0       0.1       0.1
 2 C  dx2y2           0.0       0.0       0.0       0.0       0.0       0.2
 3 C  s              17.9       3.6       5.7       0.3       1.7      10.8
 3 C  pz              0.0       0.1       0.2       1.5       1.2       0.2
 3 C  px              3.7       4.9       0.2       9.3       1.8       1.0
 3 C  py              9.1       3.0      11.4       1.8       0.1       2.1
 3 C  dz2             0.5       0.0       0.0       0.0       0.0       0.0
 3 C  dx2y2           0.2       0.1       0.0       0.2       0.0       0.0
 3 C  dxy             1.0       0.1       0.3       0.0       0.0       0.0
 4 O  s              53.5       2.1       3.0       0.2       1.0       5.2
 4 O  pz              0.0       0.0       0.0       0.1       0.1       0.0
 4 O  px              1.8       0.2       0.1       0.7       0.8       2.7
 4 O  py              4.5       0.3       1.1       0.1       0.3       6.9
 4 O  dz2             0.2       0.2       0.3       0.0       0.1       0.2
 4 O  dx2y2           0.1       0.0       0.5       0.5       0.0       0.2
 4 O  dxy             0.4       0.3       0.2       0.3       0.3       1.0
 5 C  s               1.2       3.4      27.4      11.0       0.2       3.2
 5 C  pz              0.1       0.0       0.0       0.1       0.3       0.7
 5 C  px              0.1       0.7       0.3       0.3       0.1       4.7
 5 C  py              1.8       0.2       0.2       0.2       0.3      10.5
 5 C  dxy             0.0       0.0       0.0       0.0       0.0       0.2
 6 H  s               0.0       1.4       1.8       3.5       4.9       0.0
 6 H  py              0.0       0.1       0.1       0.3       0.3       0.0
 7 H  s               0.0       1.4       1.8       4.0       4.0       0.7
 7 H  pz              0.0       0.0       0.1       0.1       0.2       0.0
 7 H  px              0.0       0.0       0.1       0.1       0.0       0.0
 8 H  s               0.0       1.4       1.8       3.5       4.9       0.0
 8 H  pz              0.0       0.1       0.1       0.3       0.3       0.0
 9 H  s               0.0       3.2       0.7       0.1       7.6       0.6
 9 H  py              0.0       0.3       0.1       0.0       0.5       0.0
10 H  s               0.0       3.1       0.9       0.1       7.4       0.9
10 H  pz              0.0       0.2       0.1       0.0       0.4       0.0
10 H  py              0.0       0.0       0.0       0.0       0.1       0.0
11 H  s               0.1       2.9       0.1       3.8       1.7       3.7
11 H  pz              0.0       0.2       0.0       0.3       0.1       0.1
12 H  s               0.1       2.6       0.0       3.7       1.4       4.5
12 H  py              0.0       0.2       0.0       0.3       0.1       0.3
13 H  s               0.1       0.4       4.7       2.9       0.1       4.1
13 H  px              0.0       0.0       0.4       0.3       0.0       0.2
14 H  s               0.1       0.6       5.5       2.4       0.0       2.9
14 H  pz              0.0       0.0       0.2       0.1       0.0       0.1
14 H  py              0.0       0.0       0.3       0.1       0.0       0.0
15 H  s               0.1       0.6       5.3       2.8       0.3       2.2
15 H  pz              0.0       0.0       0.4       0.2       0.0       0.1

                     12        13        14        15        16        17   
                  -0.45483  -0.43515  -0.41904  -0.40535  -0.38532  -0.36487
                   2.00000   2.00000   2.00000   2.00000   2.00000   2.00000
                  --------  --------  --------  --------  --------  --------
 0 C  s               0.0       0.1       0.0       0.0       0.0       0.0
 0 C  pz              2.3       1.6       8.5       0.0      17.4       3.7
 0 C  px              0.3       3.4       0.2       0.2       3.8       3.1
 0 C  py              7.3       2.0       0.1      12.6       1.4       8.9
 0 C  dz2             0.0       0.0       0.0       0.0       0.0       0.1
 0 C  dyz             0.0       0.0       0.0       0.0       0.1       0.0
 1 C  s               0.0       0.2       0.2       0.0       0.2       0.0
 1 C  pz              6.4       3.9       5.2       0.0       4.1       0.0
 1 C  px              0.1       0.3       3.6       0.7       0.2       4.8
 1 C  py             17.7       3.2       0.2       7.9       0.3       0.0
 1 C  dxy             0.0       0.0       0.0       0.0       0.0       0.2
 2 C  s               0.0       0.0       0.0       0.0       0.8       0.4
 2 C  pz              8.0       0.4       3.1       1.2       7.1       9.9
 2 C  px              0.3       8.9       0.6       0.1       0.2       0.2
 2 C  py             15.5       0.2       1.6       4.2       0.0       1.2
 3 C  s               0.0       0.5       0.0       0.2       0.4       0.2
 3 C  pz              3.1       1.2      13.4       0.2       0.3       0.2
 3 C  px              1.0      13.1       1.1       0.2       0.3       1.7
 3 C  py              1.7       1.9       0.3       8.6       3.5       1.5
 3 C  dxz             0.0       0.0       0.0       0.0       0.1       0.0
 3 C  dx2y2           0.0       0.0       0.0       0.0       0.1       0.2
 3 C  dxy             0.1       0.0       0.0       0.0       0.0       0.2
 4 O  s               0.6       2.3       0.9       5.7       1.7       1.1
 4 O  pz              0.7       0.7       7.5       0.0       0.5       0.4
 4 O  px              2.4       1.7       0.2      11.8       8.6       2.3
 4 O  py              0.1      13.7       2.4       9.1       3.2       6.6
 4 O  dz2             0.0       0.0       0.0       0.0       0.0       0.2
 4 O  dxz             0.0       0.0       0.2       0.0       0.0       0.0
 4 O  dyz             0.1       0.1       0.6       0.0       0.1       0.0
 4 O  dx2y2           0.2       1.1       0.0       0.2       0.1       0.0
 4 O  dxy             0.0       0.1       0.0       0.1       0.1       0.0
 5 C  s               0.2       0.3       0.1       0.1       0.0       0.0
 5 C  pz              4.0       0.1      19.7       9.1       6.7       4.8
 5 C  px              0.6       5.0       6.2       7.0       0.4      14.6
 5 C  py              0.1      17.6       1.0       0.3       7.8       2.4
 5 C  dz2             0.0       0.1       0.0       0.0       0.0       0.2
 5 C  dyz             0.0       0.1       0.0       0.0       0.1       0.0
 5 C  dx2y2           0.0       0.0       0.0       0.1       0.0       0.2
 6 H  s               2.4       0.1       0.0       5.1       0.3       2.4
 6 H  pz              0.0       0.0       0.0       0.0       0.1       0.0
 6 H  py              0.1       0.0       0.0       0.1       0.0       0.0
 7 H  s               0.0       2.9       0.5       0.7       9.1       0.9
 7 H  pz              0.0       0.0       0.0       0.0       0.0       0.1
 8 H  s               1.7       0.0       3.4       0.7       4.2       5.0
 8 H  pz              0.1       0.0       0.1       0.0       0.0       0.1
 9 H  s               5.3       1.2       0.0       2.6       0.0       0.0
 9 H  py              0.1       0.0       0.0       0.0       0.0       0.0
10 H  s               4.4       0.2       2.4       0.6       0.7       0.0
10 H  pz              0.2       0.0       0.1       0.0       0.0       0.0
11 H  s               5.6       0.4       0.3       0.0       5.2       4.2
11 H  pz              0.2       0.0       0.0       0.0       0.1       0.0
12 H  s               4.2       0.1       0.4       1.6       0.3       0.6
12 H  py              0.1       0.0       0.0       0.0       0.0       0.0
13 H  s               0.4       1.3       2.5       3.3       0.3       8.8
13 H  pz              0.0       0.0       0.1       0.1       0.0       0.0
13 H  px              0.0       0.1       0.1       0.1       0.0       0.1
13 H  py              0.0       0.1       0.0       0.0       0.1       0.0
14 H  s               0.4       5.9       3.8       1.9       7.4       0.4
14 H  pz              0.0       0.2       0.0       0.0       0.1       0.1
14 H  px              0.0       0.0       0.1       0.0       0.0       0.1
14 H  py              0.0       0.0       0.1       0.1       0.1       0.0
15 H  s               1.5       2.4       7.9       2.5       1.1       6.8
15 H  pz              0.0       0.1       0.1       0.0       0.0       0.1
15 H  px              0.0       0.0       0.0       0.1       0.0       0.0

                     18        19        20        21        22        23   
                  -0.35257  -0.33854  -0.33025  -0.31386  -0.30920  -0.21027
                   2.00000   2.00000   2.00000   2.00000   2.00000   2.00000
                  --------  --------  --------  --------  --------  --------
 0 C  s               0.1       0.2       0.4       0.0       0.0       0.2
 0 C  pz              1.2       2.9      12.0       0.0       4.8       0.0
 0 C  px              7.2      16.4       5.5       0.1       1.0       0.9
 0 C  py             12.9       0.3       0.5      11.0       0.0       0.0
 0 C  dz2             0.0       0.0       0.2       0.1       0.1       0.0
 0 C  dxz             0.0       0.2       0.0       0.0       0.2       0.0
 0 C  dx2y2           0.2       0.0       0.1       0.1       0.0       0.0
 0 C  dxy             0.1       0.0       0.0       0.4       0.0       0.0
 1 C  s               0.0       0.1       0.4       0.1       0.2       0.0
 1 C  pz              0.8       0.1      12.5       0.1      11.8       0.0
 1 C  px              9.7      10.8       4.7       0.0       2.2       0.8
 1 C  py              0.3       0.0       0.0      22.3       0.2       0.1
 1 C  dz2             0.0       0.0       0.2       0.3       0.3       0.1
 1 C  dxz             0.1       0.2       0.0       0.0       0.1       0.0
 1 C  dyz             0.0       0.0       0.0       0.0       0.2       0.0
 1 C  dx2y2           0.0       0.1       0.3       0.4       0.0       0.0
 1 C  dxy             0.1       0.0       0.0       0.3       0.0       0.0
 2 C  s               0.0       0.5       0.2       0.2       0.4       1.1
 2 C  pz              0.0       0.2       1.8       0.6      10.5       1.0
 2 C  px              2.1       6.8       1.0       0.2       2.2       7.8
 2 C  py             11.3       0.9       5.0      11.7       0.3       0.3
 2 C  dz2             0.1       0.1       0.0       0.2       0.2       0.0
 2 C  dxz             0.0       0.0       0.0       0.1       0.1       0.0
 2 C  dyz             0.0       0.0       0.0       0.0       0.2       0.0
 2 C  dx2y2           0.0       0.2       0.2       0.2       0.0       0.0
 2 C  dxy             0.1       0.0       0.1       0.1       0.0       0.0
 3 C  s               0.1       0.6       0.2       0.0       0.0       0.0
 3 C  pz              1.6       5.6       2.1       0.9       4.6       0.3
 3 C  px              0.6       3.1       5.0       0.0       0.7       2.2
 3 C  py              2.3       1.7       0.4       0.7       0.1       0.6
 3 C  dxz             0.0       0.0       0.0       0.0       0.3       0.1
 3 C  dyz             0.0       0.3       0.2       0.0       0.5       0.2
 3 C  dx2y2           0.1       0.0       0.0       0.0       0.1       3.1
 3 C  dxy             0.1       0.1       0.0       0.2       0.0       0.6
 4 O  s               0.2       0.8       0.0       0.1       0.0       0.0
 4 O  pz              2.0      12.2       8.8       2.9      27.5       5.9
 4 O  px              0.9       0.5       4.1       0.1       2.3      43.7
 4 O  py              0.3       8.1       3.0       1.3       1.0      17.3
 4 O  dxz             0.0       0.2       0.1       0.0       0.0       0.0
 4 O  dyz             0.0       0.1       0.1       0.0       0.1       0.1
 4 O  dx2y2           0.0       0.0       0.1       0.0       0.0       0.9
 4 O  dxy             0.0       0.1       0.1       0.0       0.0       0.2
 5 C  s               0.2       0.0       0.0       0.0       0.0       1.3
 5 C  pz              3.0       4.5       0.4       1.2       1.3       0.7
 5 C  px             11.5       0.7       4.5       0.0       0.4       0.6
 5 C  py              0.2       2.5       0.1       1.4       0.0       7.0
 5 C  dyz             0.0       0.2       0.0       0.0       0.1       0.0
 5 C  dx2y2           0.3       0.1       0.1       0.0       0.0       0.0
 6 H  s               9.7       0.1       0.0       8.5       0.1       0.0
 6 H  pz              0.0       0.0       0.1       0.0       0.0       0.0
 6 H  px              0.0       0.1       0.1       0.0       0.0       0.0
 6 H  py              0.2       0.0       0.0       0.0       0.0       0.0
 7 H  s               0.5       8.0       0.3       2.0       3.0       0.4
 7 H  px              0.1       0.0       0.1       0.0       0.0       0.0
 8 H  s               0.0       0.8       7.9       1.6       3.4       0.0
 8 H  px              0.1       0.2       0.0       0.0       0.0       0.0
 9 H  s               1.1       0.3       0.6      16.1       0.6       0.0
 9 H  pz              0.0       0.0       0.1       0.0       0.1       0.0
10 H  s               0.6       0.1       7.3       3.1       8.1       0.1
10 H  pz              0.0       0.0       0.0       0.1       0.0       0.0
11 H  s               1.6       0.5       0.1       1.1       7.3       0.4
11 H  px              0.0       0.1       0.0       0.0       0.0       0.1
12 H  s               6.8       0.2       3.8       8.0       0.6       0.1
12 H  pz              0.0       0.0       0.0       0.0       0.1       0.0
12 H  py              0.1       0.0       0.0       0.0       0.0       0.0
13 H  s               6.2       0.7       2.7       0.0       0.2       0.1
14 H  s               2.3       4.9       0.0       0.0       0.6       0.4
15 H  s               0.2       1.6       1.3       1.0       1.2       0.2
15 H  py              0.0       0.0       0.0       0.0       0.0       0.1

                     24        25        26        27        28        29   
                  -0.04396   0.08113   0.09828   0.11750   0.12892   0.13448
                   0.00000   0.00000   0.00000   0.00000   0.00000   0.00000
                  --------  --------  --------  --------  --------  --------
 0 C  s               0.0       2.6      24.0       4.1       9.1       0.5
 0 C  pz              0.1       0.2       0.0       2.0       2.7       0.7
 0 C  px              0.4       2.6       1.2       3.5      12.1       9.2
 0 C  py              0.0       0.4       0.0       1.2       0.8       6.5
 0 C  dz2             0.0       0.0       0.1       0.0       0.4       0.0
 0 C  dxz             0.0       0.3       0.0       0.3       0.0       0.4
 0 C  dyz             0.0       0.0       0.0       0.6       0.2       0.0
 0 C  dx2y2           0.0       0.1       0.2       0.0       0.3       0.7
 0 C  dxy             0.0       0.1       0.0       0.0       0.1       0.1
 1 C  s               1.1      11.1       5.6       0.4       7.6       0.9
 1 C  pz              0.4       2.7       1.0      15.7       1.2       0.6
 1 C  px              0.7       1.5       9.9       2.7       0.2       4.4
 1 C  py              0.6       1.3       1.8       3.2       5.8       6.1
 1 C  dz2             0.0       0.0       0.2       0.4       0.2       0.0
 1 C  dxz             0.0       0.1       0.5       0.2       0.0       0.1
 1 C  dyz             0.0       0.1       0.1       0.6       0.0       0.5
 1 C  dx2y2           0.1       0.1       0.4       0.5       0.0       1.0
 1 C  dxy             0.0       0.1       0.0       0.0       0.2       0.0
 2 C  s               0.1       8.7       0.7       2.5       2.4       8.6
 2 C  pz              0.0       1.6       0.6       2.6       4.4       1.1
 2 C  px              0.3       0.0      11.7       5.2       0.2       2.9
 2 C  py              0.1       0.2       1.5       2.1       3.9       8.9
 2 C  dz2             0.4       0.0       0.4       0.1       0.0       0.0
 2 C  dxz             1.0       0.0       0.5       0.5       0.0       0.0
 2 C  dyz             0.2       0.2       0.1       0.3       0.1       0.1
 2 C  dx2y2           0.1       0.0       0.3       0.5       0.3       1.0
 2 C  dxy             0.0       0.0       0.3       0.0       0.5       0.3
 3 C  s               0.0       6.1       3.8       2.3       6.0       0.8
 3 C  pz             41.1       0.4       0.4       1.4       0.3       0.2
 3 C  px              3.5       1.2       1.0       0.9       0.4       1.9
 3 C  py              1.0       0.7       1.2       1.0       1.4       0.5
 3 C  dz2             0.0       0.4       0.2       0.0       0.9       0.1
 3 C  dxz             0.4       0.3       0.0       0.2       0.1       0.0
 3 C  dyz             1.0       0.1       0.0       0.1       0.0       0.0
 3 C  dx2y2           0.1       0.0       0.1       0.0       0.0       0.1
 3 C  dxy             0.0       0.1       0.3       0.1       0.3       0.8
 4 O  s               0.0       1.3       1.0       0.1       1.2       0.2
 4 O  pz             26.6       0.1       0.0       0.1       0.0       0.2
 4 O  px              2.0       0.1       0.0       0.0       0.6       0.0
 4 O  py              0.6       0.3       0.3       0.2       0.1       1.2
 4 O  dz2             0.0       0.6       0.8       0.0       1.2       0.0
 4 O  dxz             1.9       0.5       0.0       0.3       0.2       0.0
 4 O  dyz             4.7       0.2       0.1       0.3       0.0       0.0
 4 O  dx2y2           0.5       0.1       0.1       0.2       0.0       0.1
 4 O  dxy             0.1       0.4       0.4       0.7       0.7       0.9
 5 C  s               0.0      20.1       2.1       1.8       0.1       2.2
 5 C  pz              0.1       0.6       0.5       7.6       0.4       0.5
 5 C  px              0.0       0.1       0.1       1.7       5.4       1.2
 5 C  py              0.0       1.3       2.8       2.2       3.3       5.4
 5 C  dz2             0.5       0.2       0.3       0.0       0.4       0.0
 5 C  dxz             0.0       0.1       0.1       0.2       0.0       0.0
 5 C  dyz             1.1       0.0       0.3       0.3       0.0       0.0
 5 C  dx2y2           0.0       0.0       0.0       0.0       0.6       0.6
 5 C  dxy             0.0       0.1       0.2       0.4       0.2       0.0
 6 H  s               0.0       0.3       2.5       0.6       1.9       1.5
 6 H  pz              0.0       0.0       0.0       0.3       0.1       0.0
 6 H  px              0.0       0.2       0.0       0.1       0.5       0.1
 6 H  py              0.0       0.2       1.7       0.2       0.8       0.6
 7 H  s               0.0       1.1       2.8       2.1       1.6       0.3
 7 H  pz              0.0       0.3       1.2       0.0       0.1       0.0
 7 H  px              0.0       0.0       0.2       0.0       0.8       0.4
 7 H  py              0.0       0.1       0.6       0.0       0.2       0.0
 8 H  s               0.0       0.6       2.5       2.6       0.9       0.1
 8 H  pz              0.0       0.2       1.5       0.5       0.1       0.1
 8 H  px              0.0       0.2       0.0       0.1       0.0       0.5
 8 H  py              0.0       0.1       0.2       0.7       0.0       0.0
 9 H  s               0.0       2.7       0.9       2.3       3.7       2.8
 9 H  pz              0.0       0.0       0.0       0.8       0.1       0.1
 9 H  px              0.0       0.4       0.1       0.0       0.9       0.1
 9 H  py              0.0       1.3       0.8       0.3       1.8       0.8
10 H  s               0.1       1.9       0.5       0.1       0.3       0.5
10 H  pz              0.1       0.5       0.5       0.6       0.0       0.2
10 H  px              0.0       0.1       0.4       0.4       0.0       0.3
10 H  py              0.0       0.5       0.0       0.7       0.0       0.0
11 H  s               2.6       3.3       0.4       2.7       0.6       0.2
11 H  pz              0.1       0.8       0.3       0.6       0.5       0.1
11 H  px              0.1       0.0       0.3       0.3       0.0       0.0
11 H  py              0.0       0.6       0.0       0.9       0.1       0.3
12 H  s               0.1       0.7       0.3       0.4       0.8       9.1
12 H  pz              0.0       0.1       0.0       0.4       0.1       0.1
12 H  px              0.0       0.1       0.6       0.2       0.0       0.4
12 H  py              0.0       0.4       0.0       0.3       0.0       3.9
13 H  s               0.5       1.0       0.3       0.2       4.3       1.3
13 H  pz              0.0       0.1       0.0       0.3       0.0       0.0
13 H  px              0.0       0.7       0.0       0.2       0.3       0.0
13 H  py              0.0       0.1       0.1       0.3       0.1       0.0
14 H  s               1.7       2.7       1.5       2.9       0.3       2.1
14 H  pz              0.0       0.9       0.5       0.1       0.0       0.3
14 H  px              0.0       0.1       0.0       0.6       0.8       0.0
14 H  py              0.1       0.5       0.1       0.1       0.0       0.7
15 H  s               3.3       5.8       1.1       3.9       0.7       0.5
15 H  pz              0.1       1.8       0.3       0.9       0.1       0.4
15 H  px              0.0       0.4       0.1       0.5       0.2       0.0
15 H  py              0.1       0.0       0.1       0.2       0.0       0.0

                     30        31        32        33        34        35   
                   0.14079   0.14687   0.16072   0.16686   0.18209   0.19050
                   0.00000   0.00000   0.00000   0.00000   0.00000   0.00000
                  --------  --------  --------  --------  --------  --------
 0 C  s               0.1       0.1       1.1       0.2       0.3       0.0
 0 C  pz              7.8       2.7       0.3       5.7       0.2       7.6
 0 C  px              0.1       2.7       7.5       0.7       7.4       3.3
 0 C  py              0.6       5.1       3.9       2.9       3.2       6.2
 0 C  dz2             0.1       0.1       0.3       0.0       1.0       1.7
 0 C  dxz             0.1       0.1       0.0       1.0       0.3       0.1
 0 C  dyz             0.0       0.1       0.0       0.1       0.1       1.2
 0 C  dx2y2           0.0       0.0       0.8       0.5       0.1       0.2
 0 C  dxy             0.2       0.4       0.1       0.9       0.0       0.0
 1 C  s               4.8       0.1       1.4       0.3       0.9       0.2
 1 C  pz             10.1       2.8       0.2       5.1       1.7       1.3
 1 C  px              0.3       0.8       0.8       2.3       5.8       0.5
 1 C  py              2.0       3.2       0.6       3.2       3.0       8.8
 1 C  dz2             0.7       0.7       0.1       0.1       0.2       0.1
 1 C  dxz             0.0       0.1       0.0       1.0       0.2       0.1
 1 C  dyz             0.3       0.6       0.0       0.4       0.2       0.1
 1 C  dx2y2           0.1       0.0       0.2       0.3       0.3       0.1
 1 C  dxy             0.1       0.0       0.3       1.1       0.0       0.4
 2 C  s               3.3       0.1       0.2       3.1       1.3       0.6
 2 C  pz              9.4       7.2       2.7       6.9       6.8       0.3
 2 C  px              0.4       1.5       0.4       0.8       0.7       1.0
 2 C  py              1.2       3.9       3.1       2.9       1.0       7.3
 2 C  dz2             0.1       1.0       0.6       0.0       0.1       0.1
 2 C  dxz             0.0       0.0       0.0       0.1       0.0       0.2
 2 C  dyz             0.1       0.1       0.5       0.6       0.1       0.0
 2 C  dx2y2           0.0       0.4       0.0       0.5       0.0       0.0
 2 C  dxy             0.4       0.1       0.0       0.3       0.0       0.1
 3 C  s               2.1       0.6       2.4       1.0       0.0       1.3
 3 C  pz              2.5       0.7       0.3       0.1       0.7       0.1
 3 C  px              0.0       0.7       2.5       0.3       0.5       0.1
 3 C  py              3.1       1.9       2.9       3.2       0.2       1.1
 3 C  dz2             0.0       0.1       0.2       0.3       0.0       0.1
 3 C  dxz             0.1       0.1       0.1       0.1       0.3       0.2
 3 C  dyz             0.0       0.0       0.1       0.1       0.0       0.0
 3 C  dx2y2           0.0       0.0       0.3       0.0       0.4       0.1
 3 C  dxy             0.4       0.3       0.3       0.0       0.2       0.0
 4 O  s               0.5       0.1       0.1       0.4       0.2       0.1
 4 O  pz              0.1       0.4       0.0       0.2       0.3       0.1
 4 O  px              0.1       0.2       0.8       0.5       0.0       0.3
 4 O  py              0.2       0.1       0.5       0.0       0.3       0.0
 4 O  dz2             0.0       0.0       0.0       0.3       0.0       0.0
 4 O  dxz             0.0       0.2       1.6       0.9       0.9       0.2
 4 O  dyz             0.0       0.4       0.3       0.2       0.6       0.4
 4 O  dx2y2           0.3       0.1       1.3       0.1       0.3       0.0
 4 O  dxy             0.1       0.1       0.8       0.2       0.0       0.7
 5 C  s               3.4       7.1       2.0       2.1       0.0       0.2
 5 C  pz              1.2       4.4       0.1       3.2       3.7       0.5
 5 C  px              2.0       5.2       7.6       5.3       6.8       7.3
 5 C  py             17.1       9.8      14.5       1.3       2.5       2.4
 5 C  dz2             0.7       0.3       0.0       1.2       0.3       0.0
 5 C  dxz             0.1       0.5       0.0       0.2       0.6       0.0
 5 C  dyz             0.2       0.0       0.7       0.0       0.8       0.3
 5 C  dx2y2           0.0       0.3       2.0       0.0       1.7       0.0
 5 C  dxy             0.5       0.1       0.6       0.0       0.1       0.6
 6 H  s               0.7       0.6       2.9       3.5       1.2       9.3
 6 H  pz              0.1       0.0       0.0       0.0       0.0       1.4
 6 H  px              0.1       0.4       0.0       0.3       0.2       0.2
 6 H  py              0.1       0.2       0.2       0.7       0.1       1.8
 7 H  s               0.3       1.9       1.8       6.6       2.1       0.3
 7 H  pz              0.0       0.2       0.4       0.3       1.0       0.3
 7 H  px              0.0       0.0       0.5       1.6       0.1       0.0
 7 H  py              0.0       0.1       0.0       0.1       0.0       1.6
 8 H  s               0.2       0.5       1.2       1.6       0.9      13.1
 8 H  pz              0.3       0.4       0.6       0.3       0.4       2.2
 8 H  px              0.0       0.0       0.1       0.1       0.2       0.0
 8 H  py              0.0       0.0       0.1       0.4       0.3       0.1
 9 H  s               0.2       0.6       0.7       3.3       3.4       1.9
 9 H  pz              0.3       0.6       0.0       0.3       0.1       0.3
 9 H  px              0.1       0.1       0.2       0.7       0.0       0.0
 9 H  py              0.0       0.2       0.4       0.6       0.5       0.4
10 H  s               8.5       4.2       0.1       2.5       0.0       1.7
10 H  pz              3.0       0.6       0.0       0.1       0.1       0.4
10 H  px              0.0       0.1       0.1       0.1       0.1       0.1
10 H  py              0.6       0.2       0.3       0.6       0.6       0.1
11 H  s               0.6       4.1       3.4       1.3       1.0       0.4
11 H  pz              0.8       2.0       0.4       0.0       0.0       0.1
11 H  px              0.0       0.1       0.0       0.0       0.0       0.3
11 H  py              0.0       0.0       0.0       0.6       0.1       0.1
12 H  s               1.0       4.5       0.9       0.7       0.3       1.2
12 H  pz              0.1       0.0       0.3       0.7       0.0       0.0
12 H  px              0.3       0.0       0.0       0.0       0.0       0.0
12 H  py              0.3       0.7       0.0       0.0       0.0       0.2
13 H  s               1.7       0.8       9.9       0.7       9.0       0.3
13 H  pz              0.1       0.5       0.0       0.2       0.6       0.0
13 H  px              0.8       0.7       2.8       0.1       2.5       0.2
13 H  py              0.3       0.0       0.7       0.0       0.2       0.5
14 H  s               0.7       4.4       1.7       0.0      13.4       2.9
14 H  pz              0.0       0.1       0.3       0.7       1.3       0.3
14 H  px              0.0       0.2       1.2       0.1       0.0       0.3
14 H  py              0.4       1.4       0.1       0.2       1.5       0.2
15 H  s               0.8       1.5       0.0       7.2       0.4       0.2
15 H  pz              0.0       0.0       0.0       1.5       0.1       0.2
15 H  px              0.0       0.3       0.3       0.0       1.3       0.1
15 H  py              0.3       0.0       0.5       0.0       0.3       0.0

                     36        37        38        39        40        41   
                   0.19529   0.20510   0.20822   0.21624   0.22727   0.23127
                   0.00000   0.00000   0.00000   0.00000   0.00000   0.00000
                  --------  --------  --------  --------  --------  --------
 0 C  s               0.1       1.1       2.6       0.6       0.3       0.1
 0 C  pz              3.8      11.1      25.0       0.5       4.0      17.1
 0 C  px              9.6       1.7       5.4       2.5       4.3       0.6
[...]
 3 C  dyz             0.5       0.2       0.0       0.8       0.0       0.6
 3 C  dx2y2           0.1       0.1       1.2       0.2       0.1      13.1
 3 C  dxy             0.0       0.2       0.0       0.8       0.1       2.2
 4 O  s               0.0       0.1       0.6       0.4       0.0       0.1
 4 O  pz              0.5       0.1       0.0       0.1       0.1       0.1
 4 O  px              0.0       0.3       0.3       0.6       0.3       1.3
 4 O  py              0.1       0.0       0.1       0.2       0.0       1.0
 4 O  dz2             0.1       0.1       0.0       0.1       0.0       0.1
 4 O  dxz             0.3       0.2       0.0       0.4       0.0       0.2
 4 O  dyz             1.5       0.1       0.1       0.4       0.1       0.7
 4 O  dx2y2           0.0       0.2       0.2       1.7       0.3      12.7
 4 O  dxy             0.0       0.0       1.1       0.1       0.1       1.9
 5 C  s               0.0       0.0       0.0       0.1       0.1       0.1
 5 C  pz              4.3       1.8       2.2       0.0       0.1       0.0
 5 C  px              5.0       0.7       2.0       0.2       0.0       2.3
 5 C  py              2.9       0.1       0.1       0.4       0.0       0.4
 5 C  dz2             0.9       1.8       5.6       0.0       0.1       0.3
 5 C  dxz             2.1       1.3       1.7       0.0       0.1       0.1
 5 C  dyz             8.8       1.7       1.1       0.2       0.1       0.4
 5 C  dx2y2          12.6       0.2       1.0       0.2       0.0       1.5
 5 C  dxy             1.3       0.3       0.1       0.9       0.0       1.9
 6 H  s               0.0       3.7       0.1       1.2       1.3       0.0
 6 H  pz              0.1       0.2       0.1       0.0       0.0       0.0
 6 H  px              0.0       1.3       0.0       0.2       0.7       0.1
 6 H  py              0.1       8.3       0.5       3.1       2.7       0.1
 7 H  s               0.1       6.0       2.6       0.5       0.0       0.0
 7 H  pz              0.0       5.4       2.8       0.1       0.0       0.1
 7 H  px              0.1       5.5       2.1       0.9       0.0       0.0
 7 H  py              0.1       2.4       1.8       0.2       0.0       0.1
 8 H  s               0.4       1.0       1.5       0.2       1.1       0.1
 8 H  pz              0.7       1.2       2.3       0.6       2.2       0.4
 8 H  px              0.0       0.1       0.3       0.0       0.2       0.0
 8 H  py              0.2       1.8       0.8       0.2       0.4       0.1
 9 H  s               0.0       0.0       0.0       1.9       6.4       0.2
 9 H  pz              0.0       0.1       0.0       0.0       0.3       0.0
 9 H  px              0.0       0.1       0.0       0.6       1.2       0.0
 9 H  py              0.0       0.1       0.0       5.0      14.1       0.9
10 H  s               0.0       0.0       0.4       1.2       5.5       0.7
10 H  pz              0.0       0.1       0.8       3.0      11.8       1.4
10 H  px              0.1       0.0       0.5       0.0       0.2       0.0
10 H  py              0.0       0.1       0.2       1.2       1.2       0.5
11 H  s               0.1       1.0       1.1       5.3       0.6       0.1
11 H  pz              0.3       2.3       2.5      11.3       1.4       0.2
11 H  px              0.0       0.1       0.1       0.2       0.1       0.2
11 H  py              0.2       1.1       0.1       2.6       0.2       0.1
12 H  s               0.2       0.3       2.0       0.4       0.7       5.0
12 H  pz              0.0       0.2       0.0       0.3       0.1       0.1
12 H  px              0.0       0.0       1.2       0.1       0.0       1.0
12 H  py              0.7       1.6       3.8       0.3       1.8      10.0
13 H  s               5.0       0.6       1.8       0.1       0.0       1.2
13 H  pz              0.1       0.0       0.1       0.0       0.0       0.0
13 H  px             11.7       1.4       3.6       0.4       0.1       2.3
14 H  s               9.3       0.7       0.2       0.1       0.1       0.0
14 H  pz              9.5       0.4       0.0       0.2       0.0       0.1
14 H  px              1.3       0.2       0.1       0.0       0.0       0.1
14 H  py             11.7       1.2       0.2       0.3       0.1       0.0
15 H  s               0.5       1.7       3.3       0.0       0.1       0.1
15 H  pz              0.7       3.3       6.4       0.0       0.2       0.1
15 H  px              0.7       0.2       0.4       0.0       0.0       0.0
15 H  py              0.5       0.4       0.6       0.0       0.0       0.0

                    162       163       164       165       166       167   
                   4.38326  21.85037  21.91507  21.97420  22.00623  22.06804
                   0.00000   0.00000   0.00000   0.00000   0.00000   0.00000
                  --------  --------  --------  --------  --------  --------
 0 C  s               0.0      42.0      26.5      19.1      11.1       1.0
 1 C  s               0.0      18.4       0.1      69.0      11.4       0.8
 2 C  s               0.0      30.9       3.4       0.1      55.0      10.3
 2 C  py              0.2       0.0       0.0       0.0       0.0       0.0
 2 C  dz2             0.1       0.0       0.0       0.0       0.0       0.0
 3 C  s               6.6       2.7       1.6       1.3       6.4      87.2
 3 C  px              2.3       0.0       0.0       0.0       0.0       0.0
 3 C  py              5.8       0.0       0.0       0.0       0.0       0.1
 3 C  dz2             1.8       0.0       0.0       0.0       0.0       0.0
 3 C  dx2y2           1.0       0.0       0.0       0.0       0.0       0.0
 3 C  dxy             3.9       0.0       0.0       0.0       0.0       0.0
 4 O  s              19.1       0.0       0.0       0.0       0.0       0.2
 4 O  px              6.4       0.0       0.0       0.0       0.0       0.0
 4 O  py             15.7       0.0       0.0       0.0       0.0       0.1
 4 O  dz2             8.9       0.0       0.0       0.0       0.0       0.0
 4 O  dx2y2           4.8       0.0       0.0       0.0       0.0       0.0
 4 O  dxy            22.0       0.0       0.0       0.0       0.0       0.0
 5 C  s               0.0       5.5      68.0      10.3      15.8       0.0
 5 C  dz2             0.1       0.0       0.0       0.0       0.0       0.0
12 H  s               0.1       0.0       0.0       0.0       0.0       0.0
12 H  py              0.1       0.0       0.0       0.0       0.0       0.0

                    168   
                  43.60984
                   0.00000
                  --------
 4 O  s              99.9


                      *****************************
                      * MAYER POPULATION ANALYSIS *
                      *****************************

  NA   - Mulliken gross atomic population
  ZA   - Total nuclear charge
  QA   - Mulliken gross atomic charge
  VA   - Mayer's total valence
  BVA  - Mayer's bonded valence
  FA   - Mayer's free valence

  ATOM       NA         ZA         QA         VA         BVA        FA
  0 C      6.4613     6.0000    -0.4613     3.7959     3.7959     0.0000
  1 C      6.2453     6.0000    -0.2453     3.6579     3.6579     0.0000
  2 C      6.2915     6.0000    -0.2915     3.6355     3.6355     0.0000
  3 C      5.7161     6.0000     0.2839     3.7517     3.7517     0.0000
  4 O      8.3418     8.0000    -0.3418     1.9788     1.9788    -0.0000
  5 C      6.5117     6.0000    -0.5117     3.7488     3.7488     0.0000
  6 H      0.8522     1.0000     0.1478     0.9637     0.9637    -0.0000
  7 H      0.8508     1.0000     0.1492     0.9617     0.9617     0.0000
  8 H      0.8581     1.0000     0.1419     0.9649     0.9649    -0.0000
  9 H      0.8584     1.0000     0.1416     0.9589     0.9589    -0.0000
 10 H      0.8495     1.0000     0.1505     0.9558     0.9558     0.0000
 11 H      0.8431     1.0000     0.1569     0.9589     0.9589     0.0000
 12 H      0.8327     1.0000     0.1673     0.9659     0.9659     0.0000
 13 H      0.8229     1.0000     0.1771     0.9615     0.9615     0.0000
 14 H      0.8397     1.0000     0.1603     0.9607     0.9607     0.0000
 15 H      0.8248     1.0000     0.1752     0.9570     0.9570     0.0000

  Mayer bond orders larger than 0.100000
B(  0-C ,  1-C ) :   0.9059 B(  0-C ,  6-H ) :   0.9814 B(  0-C ,  7-H ) :   0.9721 
B(  0-C ,  8-H ) :   0.9819 B(  1-C ,  2-C ) :   0.8924 B(  1-C ,  9-H ) :   0.9517 
B(  1-C , 10-H ) :   0.9698 B(  2-C ,  3-C ) :   0.9236 B(  2-C , 11-H ) :   0.9410 
B(  2-C , 12-H ) :   0.9835 B(  3-C ,  4-O ) :   1.9834 B(  3-C ,  5-C ) :   0.8967 
B(  5-C , 13-H ) :   0.9695 B(  5-C , 14-H ) :   0.9602 B(  5-C , 15-H ) :   0.9383 


-------
TIMINGS
-------

Total SCF time: 0 days 0 hours 0 min 20 sec 

Total time                  ....      20.200 sec
Sum of individual times     ....      19.649 sec  ( 97.3%)

SCF preparation             ....       0.181 sec  (  0.9%)
Fock matrix formation       ....      18.531 sec  ( 91.7%)
  Startup                   ....       0.061 sec  (  0.3% of F)
  Split-RI-J                ....       3.343 sec  ( 18.0% of F)
  XC integration            ....      14.574 sec  ( 78.6% of F)
    XC Preparation          ....       0.000 sec  (  0.0% of XC)
    Basis function eval.    ....       2.865 sec  ( 19.7% of XC)
    Density eval.           ....       3.898 sec  ( 26.7% of XC)
    XC-Functional eval.     ....       2.283 sec  ( 15.7% of XC)
    XC-Potential eval.      ....       4.516 sec  ( 31.0% of XC)
Diagonalization             ....       0.000 sec  (  0.0%)
Density matrix formation    ....       0.236 sec  (  1.2%)
Total Energy calculation    ....       0.038 sec  (  0.2%)
Population analysis         ....       0.113 sec  (  0.6%)
Orbital Transformation      ....       0.053 sec  (  0.3%)
Orbital Orthonormalization  ....       0.000 sec  (  0.0%)
DIIS solution               ....       0.415 sec  (  2.1%)
  MO trafo                  ....       0.000 sec  (  0.0 % of DIIS)
  Orb grad                  ....       0.000 sec  (  0.0 % of DIIS)
  Energy W gradient         ....       0.000 sec  (  0.0 % of DIIS)
  DIIS error                ....       0.017 sec  (  4.1 % of DIIS)
  DIIS work                 ....       0.349 sec  ( 84.1 % of DIIS)
  Form Q                    ....       0.000 sec  (  0.0 % of DIIS)
  Form QpQm                 ....       0.000 sec  (  0.0 % of DIIS)
  Exp/Cayley                ....       0.000 sec  (  0.0 % of DIIS)
  Orb update                ....       0.000 sec  (  0.0 % of DIIS)
  Wake-sleep                ....       0.023 sec  (  5.5 % of DIIS)
SOSCF solution              ....       0.081 sec  (  0.4%)
  MO trafo                  ....       0.046 sec  ( 56.4 % of SOSCF)
  Orb grad                  ....       0.002 sec  (  1.9 % of SOSCF)
  Rot update                ....       0.015 sec  ( 17.9 % of SOSCF)
  Step                      ....       0.019 sec  ( 23.6 % of SOSCF)
Finished LeanSCF after  20.3 sec

Maximum memory used throughout the entire LEANSCF-calculation: 17.7 MB


-------------------------------------------------------------------------------
                          DFT DISPERSION CORRECTION                            
                                                                               
                                DFTD4 V3.4.0                                   
-------------------------------------------------------------------------------
The R2SCAN3C composite method is recognized
Using three-body term ABC
Active option DFTDOPT                   ...         5   

-------------------------   ----------------
Dispersion correction           -0.003714166
-------------------------   ----------------

------------------   -----------------
gCP correction             0.007355217
------------------   -----------------

-------------------------   --------------------
FINAL SINGLE POINT ENERGY      -271.702726918495
-------------------------   --------------------


------------------------------------------------------------------------------
                              ORCA PROPERTY CALCULATIONS
------------------------------------------------------------------------------

GBWName                                 ... sp_gas.gbw
Number of atoms                         ...     16
Number of basis functions               ...    169
Max core memory                         ...   1024 MB

Electric properties:
Dipole moment                           ... YES
Quadrupole moment                       ...  NO
Static polarizability (Dipole/Dipole)   ...  NO
Static polarizability (Dipole/Quad.)    ...  NO
Static polarizability (Quad./Quad.)     ...  NO
Static polarizability (Velocity)        ...  NO

Atomic electric properties:
Dipole moment                           ...  NO
Quadrupole moment                       ...  NO
Static polarizability                   ...  NO

Choice of electric origin               ... Center of mass
Position of electric origin             ...    -0.000035    -0.000026     0.000002

General magnetic properties:
Magnetizability                         ...  NO

EPR properties:
g-Tensor (aka g-matrix)                 ...  NO
Zero-Field splitting spin-orbit         ...  NO
Zero-field splitting spin-spin          ...  NO
Hyperfine couplings                     ...  NO (   0 nuclei)
Quadrupole couplings                    ...  NO (   0 nuclei)
Contact density                         ...  NO (   0 nuclei)

NMR properties:
Chemical shifts                         ...  NO (   0 nuclei)
Spin-rotation constants                 ...  NO (   0 nuclei)
Spin-spin couplings                     ...  NO (   0 nuclei,    0 pairs)

Choice of magnetic origin               ... GIAO
Position of magnetic origin             ...     0.000000     0.000000     0.000000

Properties with geometric perturbations:
SCF Hessian                             ...  NO
IR spectrum                             ...  NO
VCD spectrum                            ...  NO
X-ray spectroscopy properties:
SCF XES/XAS/RIXS spectra                ...  NO


-------------
DIPOLE MOMENT
-------------

Method             : SCF
Type of density    : Electron Density
Multiplicity       :   1
Irrep              :   0
Energy             :  -271.7063679697635052 Eh
Relativity type    : 
Basis              : AO
                                X                 Y                 Z
Electronic contribution:      6.062259382       4.126996492      -0.441937217
Nuclear contribution   :     -6.797530259      -5.156075096       0.456123438
                        -----------------------------------------
Total Dipole Moment    :     -0.735270877      -1.029078604       0.014186222
                        -----------------------------------------
Magnitude (a.u.)       :      1.264842790
Magnitude (Debye)      :      3.214974875



--------------------
Rotational spectrum 
--------------------
 
Rotational constants in cm-1:             0.248260             0.062549             0.053723 
Rotational constants in MHz :          7442.659612          1875.165668          1610.588282 

Dipole components along the rotational axes: 
x,y,z [a.u.] :    -0.901019    -0.856411    -0.233565 
x,y,z [Debye]:    -2.290208    -2.176824    -0.593676 

 

Dipole moment calculation done in   0.0 sec 

Maximum memory used throughout the entire PROP-calculation: 9.8 MB

--------------------------------
SUGGESTED CITATIONS FOR THIS RUN
--------------------------------

Below you find a list of papers that are relevant to this ORCA run
We neither can nor want to force you to cite these papers, but we appreciate if you do
You receive ORCA, which is the product of decades of hard work by many enthusiastic individuals, for free
The only thing we kindly ask in return is that you cite our papers,
We deeply appreciate it, if you show your appreciation for ORCA by not just citing the generic ORCA reference.

Please note that relegating all ORCA citations to the supporting information does *not* help us.
SI sections are not indexed - citations you put there will not count into any citation statistics
But we need these citations in order to attract the funding resources that allow us to do what we are doing

Therefore, if you are a happy ORCA user, please consider citing a few of the papers listed below in the main body of your paper

In addition to the list printed below, the program has created the file sp_gas.bibtex that contains the list in bibtex format
You can import this file easily into all common literature databanks and citation aid programs


List of essential papers. We consider these as the minimum necessary citations

  1. Neese,F.
     Software update: the ORCA program system, version 5.0
     WIRES Comput. Molec. Sci., 2022 12(1)e1606
     doi.org/10.1002/wcms.1606
  2. Grimme,S.; Hansen,A.; Ehlert,S.; Mewes,J.
     r2SCAN-3c: A 'Swiss army knife' composite electronic-structure method
     J. Chem. Phys., 2021 154 064103
     doi.org/10.1063/5.0040021

List of papers to cite with high priority. The work reported in these papers was absolutely
necessary for this run to complete.
Our perspective: the developers of density functionals and basis sets usually get cited in chemistry papers
Good! But without the algorithms to do something with them, the functionals or basis sets would not do anything.
Hence, in our opinion, the algorithm design and method developments papers are equally worthy of getting cited

  1. Neese,F.
     An improvement of the resolution of the identity approximation for the formation of the Coulomb matrix
     J. Comp. Chem., 2003 24(14)1740-1747
     doi.org/10.1002/jcc.10318
  2. Neese,F.
     The SHARK Integral Generation and Digestion System
     J. Comp. Chem., 2022  1-16
     doi.org/10.1002/jcc.26942
  3. Lehtola,S.; Steigemann,C.; Oliveira,M.; Marques,M.
     Recent developments in Libxc - A comprehensive library of functionals for density functional theory
     Software X, 2018 7 
     doi.org/10.1016/j.softx.2017.11.002
  4. Caldeweyher,E.; Bannwarth,C.; Grimme,S.
     Extension of the D3 dispersion coefficient model
     J. Chem. Phys., 2017 147 034112-XXXX
     doi.org/10.1063/1.4993215
  5. Caldeweyher,E.; Ehlert,S.; Hansen,A.; Neugebauer,H.; Spicher,S.; Bannwarth,C.; Grimme,S.
     A generally applicable atomic-charge dependent London dispersion correction
     J. Chem. Phys., 2019 150 154122-XXXX
     doi.org/10.1063/1.5090222
  6. Caldeweyher,E.; Mewes,J.; Ehlert,S.; Grimme,S.
     Extension and evaluation of the D4 London-dispersion model for periodic systems
     Phys. Chem. Chem. Phys., 2020 22(16)8499-8512
     doi.org/10.1039/D0CP00502A

List of suggested additional citations. These are papers that are important in the 'surrounding' of 
of this run, or papers that preceded the highly important papers. If you like your results we are grateful for a citation.

  1. Neese,F.
     The ORCA program system
     WIRES Comput. Molec. Sci., 2012 2(1)73-78
     doi.org/10.1002/wcms.81
  2. Neese,F.
     Software update: the ORCA program system, version 4.0
     WIRES Comput. Molec. Sci., 2018 8(1)1-6
     doi.org/10.1002/wcms.1327
  3. Neese,F.; Wennmohs,F.; Becker,U.; Riplinger,C.
     The ORCA quantum chemistry program package
     J. Chem. Phys., 2020 152 Art. No. L224108
     doi.org/10.1063/5.0004608

List of optional additional citations

  1. Neese,F.
     Approximate second-order SCF convergence for spin unrestricted wavefunctions
     Chem. Phys. Lett., 2000 325(1-3)93-98
     doi.org/10.1016/s0009-2614(00)00662-x

Timings for individual modules:

Sum of individual times          ...       21.753 sec (=   0.363 min)
Startup calculation              ...        1.058 sec (=   0.018 min)   4.9 %
SCF iterations                   ...       20.584 sec (=   0.343 min)  94.6 %
Property calculations            ...        0.111 sec (=   0.002 min)   0.5 %
                             ****ORCA TERMINATED NORMALLY****
TOTAL RUN TIME: 0 days 0 hours 0 minutes 22 seconds 449 msec
