
                                 *****************
                                 * O   R   C   A *
                                 *****************

                                            #,                                       
                                            ###                                      
                                            ####                                     
                                            #####                                    
                                            ######                                   
                                           ########,                                 
                                     ,,################,,,,,                         
                               ,,#################################,,                 
                          ,,##########################################,,             
                       ,#########################################, ''#####,          
                    ,#############################################,,   '####,        
                  ,##################################################,,,,####,       
                ,###########''''           ''''###############################       
              ,#####''   ,,,,##########,,,,          '''####'''          '####       
            ,##' ,,,,###########################,,,                        '##       
           ' ,,###''''                  '''############,,,                           
         ,,##''                                '''############,,,,        ,,,,,,###''
      ,#''                                            '''#######################'''  
     '                                                          ''''####''''         
             ,#######,   #######,   ,#######,      ##                                
            ,#'     '#,  ##    ##  ,#'     '#,    #''#        ,####,   ,####,        
            ##       ##  ##   ,#'  ##            #'  '#       #'       #'  '#        
            ##       ##  #######   ##           ,######,      #####,   #    #        
            '#,     ,#'  ##    ##  '#,     ,#' ,#      #,     #,   #   #,  ,#        
             '#######'   ##     ##  '#######'  #'      '#     '####' # '####'        



                #########################################################
                #                        -***-                          #
                #          Department of theory and spectroscopy        #
                #                                                       #
                #                      Frank Neese                      #
                #                                                       #
                #     Directorship, Architecture, Infrastructure        #
                #                    SHARK, DRIVERS                     #
                #        Core code/Algorithms in most modules           #
                #                                                       #
                #        Max Planck Institute fuer Kohlenforschung      #
                #                Kaiser Wilhelm Platz 1                 #
                #                 D-45470 Muelheim/Ruhr                 #
                #                      Germany                          #
                #                                                       #
                #                  All rights reserved                  #
                #                        -***-                          #
                #########################################################


                         Program Version 6.0.0  -   RELEASE  -


 With contributions from (in alphabetic order):
   Daniel Aravena         : Magnetic Suceptibility
   Michael Atanasov       : Ab Initio Ligand Field Theory (pilot matlab implementation)
   Alexander A. Auer      : GIAO ZORA, VPT2 properties, NMR spectrum
   Ute Becker             : All parallelization in ORCA, NUMFREQ, NUMCALC
   Giovanni Bistoni       : ED, misc. LED, open-shell LED, HFLD
   Martin Brehm           : Molecular dynamics
   Dmytro Bykov           : pre 5.0 version of the SCF Hessian
   Marcos Casanova-Páez   : Triplet and SCS-CIS(D). UHF-(DLPNO)-IP/EA/STEOM-CCSD. UHF-CVS-IP/STEOM-CCSD
   Vijay G. Chilkuri      : MRCI spin determinant printing, contributions to CSF-ICE
   Pauline Colinet        : FMM embedding
   Dipayan Datta          : RHF DLPNO-CCSD density
   Achintya Kumar Dutta   : EOM-CC, STEOM-CC
   Nicolas Foglia         : Exact transition moments, OPA infrastructure, MCD improvements
   Dmitry Ganyushin       : Spin-Orbit,Spin-Spin,Magnetic field MRCI
   Miquel Garcia          : C-PCM and meta-GGA Hessian, CCSD/C-PCM, Gaussian charge scheme
   Tiago L. C. Gouveia    : GS-ROHF, GS-ROCIS
   Yang Guo               : DLPNO-NEVPT2, F12-NEVPT2, CIM, IAO-localization
   Andreas Hansen         : Spin unrestricted coupled pair/coupled cluster methods
   Ingolf Harden          : AUTO-CI MPn and infrastructure 
   Benjamin Helmich-Paris : MC-RPA, TRAH-(SCF,CASSCF), AVAS, COSX integrals, SCF dyn. polar.
   Lee Huntington         : MR-EOM, pCC
   Robert Izsak           : Overlap fitted RIJCOSX, COSX-SCS-MP3, EOM
   Riya Kayal             : Wick's Theorem for AUTO-CI, AUTO-CI UHF-CCSDT
   Emily Kempfer          : AUTO-CI, RHF CISDT and CCSDT
   Christian Kollmar      : KDIIS, OOCD, Brueckner-CCSD(T), CCSD density, CASPT2, CASPT2-K, improved NEVPT2
   Axel Koslowski         : Symmetry handling
   Simone Kossmann        : Meta GGA functionals, TD-DFT gradient, OOMP2, (MP2 Hessian; deprecated post 5.0)
   Lucas Lang             : DCDCAS
   Marvin Lechner         : AUTO-CI (C++ implementation), FIC-MRCC
   Spencer Leger          : CASSCF response
   Dagmar Lenk            : GEPOL surface, SMD, ORCA-2-JSON
   Dimitrios Liakos       : Extrapolation schemes; Compound Job, initial MDCI parallelization
   Dimitrios Manganas     : Further ROCIS development; embedding schemes. LFT, Crystal Embedding
   Dimitrios Pantazis     : SARC Basis sets
   Anastasios Papadopoulos: AUTO-CI, single reference methods and gradients
   Taras Petrenko         : pre 6.0 DFT Hessian and TD-DFT gradient, (ASA, deprecated), ECA, 1-Electron XAS/XES, NRVS
   Peter Pinski           : DLPNO-MP2, DLPNO-MP2 Gradient
   Christoph Reimann      : Effective Core Potentials
   Marius Retegan         : Local ZFS, SOC
   Christoph Riplinger    : Optimizer, TS searches, QM/MM, DLPNO-CCSD(T), (RO)-DLPNO pert. Triples
   Michael Roemelt        : Original ROCIS implementation
   Masaaki Saitow         : Open-shell DLPNO-CCSD energy and density
   Barbara Sandhoefer     : DKH picture change effects
   Kantharuban Sivalingam : CASSCF convergence/infrastructure, NEVPT2 and variants, FIC-MRCI
   Bernardo de Souza      : ESD, SOC TD-DFT
   Georgi Stoychev        : AutoAux, RI-MP2 NMR, DLPNO-MP2 response, X2C
   Van Anh Tran           : RI-MP2 g-tensors
   Willem Van den Heuvel  : Paramagnetic NMR
   Zikuan Wang            : NOTCH, Electric field optimization 
   Frank Wennmohs         : Technical directorship and infrastructure
   Hang Xu                : AUTO-CI-Response properties 


 We gratefully acknowledge several colleagues who have allowed us to
 interface, adapt or use parts of their codes:
   Stefan Grimme, W. Hujo, H. Kruse, P. Pracht,  : VdW corrections, initial TS optimization,
                  C. Bannwarth, S. Ehlert,         DFT functionals, gCP, sTDA/sTD-DF
                  L. Wittmann, M. Mueller
   Ed Valeev, F. Pavosevic, A. Kumar             : LibInt (2-el integral package), F12 methods
   Garnet Chan, S. Sharma, J. Yang, R. Olivares  : DMRG
   Ulf Ekstrom                                   : XCFun DFT Library
   Mihaly Kallay                                 : mrcc  (arbitrary order and MRCC methods)
   Frank Weinhold                                : gennbo (NPA and NBO analysis)
   Simon Mueller                                 : openCOSMO-RS
   Christopher J. Cramer and Donald G. Truhlar   : smd solvation model
   Lars Goerigk                                  : TD-DFT with DH, B97 family of functionals
   V. Asgeirsson, H. Jonsson                     : NEB implementation
   FAccTs GmbH                                   : IRC, NEB, NEB-TS, DLPNO-Multilevel, CI-OPT
                                                   MM, QMMM, 2- and 3-layer-ONIOM, Crystal-QMMM,
                                                   LR-CPCM, SF, NACMEs, symmetry and pop. for TD-DFT,
                                                   nearIR, NL-DFT gradient (VV10), updates on ESD,
                                                   ML-optimized integration grids, MBIS, APM,
                                                   GOAT, DOCKER, SOLVATOR, interface openCOSMO-RS
   S Lehtola, MJT Oliveira, MAL Marques          : LibXC Library
   Liviu Ungur et al                             : ANISO software


 Your calculation uses the libint2 library for the computation of 2-el integrals
 For citations please refer to: http://libint.valeyev.net

 Your ORCA version has been built with support for libXC version: 6.2.2
 For citations please refer to: https://libxc.gitlab.io

 This ORCA versions uses:
   CBLAS   interface :  Fast vector & matrix operations
   LAPACKE interface :  Fast linear algebra routines
   SCALAPACK package :  Parallel linear algebra routines
   Shared memory     :  Shared parallel matrices
   BLAS/LAPACK       :  OpenBLAS 0.3.27  USE64BITINT DYNAMIC_ARCH NO_AFFINITY SkylakeX SINGLE_THREADED
        Core in use  :  SkylakeX
   Copyright (c) 2011-2014, The OpenBLAS Project


Your calculation utilizes the geometrical counterpoise correction gCP
Please cite in your paper:
H.Kruse, S. Grimme J.Chem.Phys., 136, (2012), 154101 
   

Your calculation utilizes the atom-pairwise dispersion correction
based on EEQ partial charges (D4)


================================================================================

----- Orbital basis set information -----
Your calculation utilizes the basis: def2-mTZVPP
   Stefan Grimme, Andreas Hansen, Sebastian Ehlert, and Jan-Michael Mewes 
   J. Chem. Phys. 154, 064103 (2021). DOI: 10.1063/5.0040021

----- AuxJ basis set information -----
Your calculation utilizes the auxiliary basis: def2/J
   F. Weigend, Phys. Chem. Chem. Phys. 8, 1057 (2006).

================================================================================
                                        WARNINGS
                       Please study these warnings very carefully!
================================================================================

Using LibXC functional ID 497 : Re-regularized SCAN exchange by Furness et al
[ 1]  J. W. Furness, A. D. Kaplan, J. Ning, J. P. Perdew, and J. Sun.,  J. Phys. Chem. Lett. 11, 8208-8215 (2020)
[ 2]  J. W. Furness, A. D. Kaplan, J. Ning, J. P. Perdew, and J. Sun.,  J. Phys. Chem. Lett. 11, 9248-9248 (2020)
Using LibXC functional ID 498 : Re-regularized SCAN correlation by Furness et al
[ 1]  J. W. Furness, A. D. Kaplan, J. Ning, J. P. Perdew, and J. Sun.,  J. Phys. Chem. Lett. 11, 8208-8215 (2020)
[ 2]  J. W. Furness, A. D. Kaplan, J. Ning, J. P. Perdew, and J. Sun.,  J. Phys. Chem. Lett. 11, 9248-9248 (2020)
Using LibXC functional ID 497 : Re-regularized SCAN exchange by Furness et al
[ 1]  J. W. Furness, A. D. Kaplan, J. Ning, J. P. Perdew, and J. Sun.,  J. Phys. Chem. Lett. 11, 8208-8215 (2020)
[ 2]  J. W. Furness, A. D. Kaplan, J. Ning, J. P. Perdew, and J. Sun.,  J. Phys. Chem. Lett. 11, 9248-9248 (2020)
Using LibXC functional ID 498 : Re-regularized SCAN correlation by Furness et al
[ 1]  J. W. Furness, A. D. Kaplan, J. Ning, J. P. Perdew, and J. Sun.,  J. Phys. Chem. Lett. 11, 8208-8215 (2020)
[ 2]  J. W. Furness, A. D. Kaplan, J. Ning, J. P. Perdew, and J. Sun.,  J. Phys. Chem. Lett. 11, 9248-9248 (2020)

================================================================================
                                       INPUT FILE
================================================================================
NAME = sp_gas.inp
|  1> ! r2scan-3c def2/J RI DEFGRID2 scfconv6 printgap
|  2> %output
|  3>     printlevel normal
|  4> end
|  5> * xyz 0 1
|  6> C 1.3945234115 1.4983871642 0.8402625086
|  7> C 1.4348201906 0.1697474505 0.0937883706
|  8> C 0.0847560872 -0.5361654061 -0.1463231845
|  9> C 0.3800311992 -1.7654812036 -1.0199296923
| 10> C -0.5055186066 -1.029487873 1.1763511797
| 11> C -0.9082324775 0.359183622 -0.9218121179
| 12> C -1.8363620849 1.2432956563 -0.0920017542
| 13> H 0.9040269793 1.396157844 1.8045129597
| 14> H 0.8798683368 2.258800891 0.2598089501
| 15> H 2.4113704554 1.8439473908 1.0163379334
| 16> H 1.908312744 0.3376601758 -0.8772922099
| 17> H 2.0757966513 -0.518715648 0.6507962906
| 18> H 1.1400678342 -2.3912413851 -0.5571010461
| 19> H 0.7393152597 -1.4607928843 -2.0006637756
| 20> H -0.5180727002 -2.3642105182 -1.1543434076
| 21> H -1.447232462 -1.5444481916 1.0006431792
| 22> H 0.1810640495 -1.7287922631 1.6491140629
| 23> H -0.6845405087 -0.2103831741 1.8655719896
| 24> H -0.3364225687 0.9882567953 -1.6081133753
| 25> H -1.5409854498 -0.2875608304 -1.5348936256
| 26> H -2.5250453945 0.6410699854 0.4940127928
| 27> H -1.2873546482 1.8922071105 0.5821779259
| 28> H -2.4247214397 1.869259905 -0.7603845068
| 29> *
| 30> 
| 31>                          ****END OF INPUT****
================================================================================

                       ****************************
                       * Single Point Calculation *
                       ****************************

---------------------------------
CARTESIAN COORDINATES (ANGSTROEM)
---------------------------------
  C      1.394523    1.498387    0.840263
  C      1.434820    0.169747    0.093788
  C      0.084756   -0.536165   -0.146323
  C      0.380031   -1.765481   -1.019930
  C     -0.505519   -1.029488    1.176351
  C     -0.908232    0.359184   -0.921812
  C     -1.836362    1.243296   -0.092002
  H      0.904027    1.396158    1.804513
  H      0.879868    2.258801    0.259809
  H      2.411370    1.843947    1.016338
  H      1.908313    0.337660   -0.877292
  H      2.075797   -0.518716    0.650796
  H      1.140068   -2.391241   -0.557101
  H      0.739315   -1.460793   -2.000664
  H     -0.518073   -2.364211   -1.154343
  H     -1.447232   -1.544448    1.000643
  H      0.181064   -1.728792    1.649114
  H     -0.684541   -0.210383    1.865572
  H     -0.336423    0.988257   -1.608113
  H     -1.540985   -0.287561   -1.534894
  H     -2.525045    0.641070    0.494013
  H     -1.287355    1.892207    0.582178
  H     -2.424721    1.869260   -0.760385

----------------------------
CARTESIAN COORDINATES (A.U.)
----------------------------
  NO LB      ZA    FRAG     MASS         X           Y           Z
   0 C     6.0000    0    12.011    2.635267    2.831541    1.587866
   1 C     6.0000    0    12.011    2.711417    0.320776    0.177234
   2 C     6.0000    0    12.011    0.160166   -1.013206   -0.276511
   3 C     6.0000    0    12.011    0.718155   -3.336276   -1.927388
   4 C     6.0000    0    12.011   -0.955292   -1.945450    2.222982
   5 C     6.0000    0    12.011   -1.716311    0.678759   -1.741972
   6 C     6.0000    0    12.011   -3.470221    2.349488   -0.173858
   7 H     1.0000    0     1.008    1.708363    2.638356    3.410035
   8 H     1.0000    0     1.008    1.662710    4.268515    0.490968
   9 H     1.0000    0     1.008    4.556830    3.484556    1.920600
  10 H     1.0000    0     1.008    3.606188    0.638085   -1.657842
  11 H     1.0000    0     1.008    3.922687   -0.980231    1.229827
  12 H     1.0000    0     1.008    2.154416   -4.518791   -1.052768
  13 H     1.0000    0     1.008    1.397103   -2.760498   -3.780707
  14 H     1.0000    0     1.008   -0.979016   -4.467710   -2.181393
  15 H     1.0000    0     1.008   -2.734873   -2.918584    1.890942
  16 H     1.0000    0     1.008    0.342161   -3.266944    3.116374
  17 H     1.0000    0     1.008   -1.293594   -0.397567    3.525420
  18 H     1.0000    0     1.008   -0.635747    1.867535   -3.038894
  19 H     1.0000    0     1.008   -2.912040   -0.543411   -2.900529
  20 H     1.0000    0     1.008   -4.771644    1.211447    0.933549
  21 H     1.0000    0     1.008   -2.432748    3.575753    1.100157
  22 H     1.0000    0     1.008   -4.582059    3.532389   -1.436918

--------------------------------
INTERNAL COORDINATES (ANGSTROEM)
--------------------------------
 C      0   0   0     0.000000000000     0.00000000     0.00000000
 C      1   0   0     1.524510071442     0.00000000     0.00000000
 C      2   1   0     1.542283891926   116.87160828     0.00000000
 C      3   2   1     1.536747556439   106.64546794   174.80323635
 C      3   2   1     1.530117232176   110.52893663   291.85550509
 C      3   2   1     1.545658195582   112.04563371    57.37092101
 C      6   3   2     1.526978682572   116.95095934   269.14453886
 H      1   2   3     1.086653816243   111.37278393    55.97924911
 H      1   2   3     1.086289655385   111.15879378   294.17404559
 H      1   2   3     1.088297907797   109.34470906   175.18769117
 H      2   1   3     1.093337722420   108.20977171   122.26611718
 H      2   1   3     1.093201758190   108.35279460   238.16013434
 H      4   3   2     1.087861134077   110.64207762    54.90229601
 H      4   3   2     1.088007054294   110.60104954   294.90702207
 H      4   3   2     1.087719841292   110.60524312   174.81958580
 H      5   3   2     1.087603979684   110.30550277   181.15752748
 H      5   3   2     1.088084149964   109.83870374   300.33031017
 H      5   3   2     1.085360158653   111.66863249    60.43786156
 H      6   3   2     1.092569926859   108.20735810    32.67321823
 H      6   3   2     1.092942654373   108.09506811   148.14979858
 H      7   6   3     1.086449956928   110.94474037   294.59567438
 H      7   6   3     1.084902521890   112.11268771    56.06570365
 H      7   6   3     1.088454626985   109.13698879   175.83403238

---------------------------
INTERNAL COORDINATES (A.U.)
---------------------------
 C      0   0   0     0.000000000000     0.00000000     0.00000000
 C      1   0   0     2.880906523431     0.00000000     0.00000000
 C      2   1   0     2.914494176499   116.87160828     0.00000000
 C      3   2   1     2.904032018642   106.64546794   174.80323635
 C      3   2   1     2.891502521606   110.52893663   291.85550509
 C      3   2   1     2.920870686301   112.04563371    57.37092101
 C      6   3   2     2.885571522398   116.95095934   269.14453886
 H      1   2   3     2.053478115080   111.37278393    55.97924911
 H      1   2   3     2.052789950789   111.15879378   294.17404559
 H      1   2   3     2.056584997855   109.34470906   175.18769117
 H      2   1   3     2.066108867260   108.20977171   122.26611718
 H      2   1   3     2.065851932101   108.35279460   238.16013434
 H      4   3   2     2.055759615143   110.64207762    54.90229601
 H      4   3   2     2.056035364390   110.60104954   294.90702207
 H      4   3   2     2.055492610474   110.60524312   174.81958580
 H      5   3   2     2.055273663766   110.30550277   181.15752748
 H      5   3   2     2.056181054092   109.83870374   300.33031017
 H      5   3   2     2.051033456523   111.66863249    60.43786156
 H      6   3   2     2.064657943922   108.20735810    32.67321823
 H      6   3   2     2.065362296846   108.09506811   148.14979858
 H      7   6   3     2.053092876804   110.94474037   294.59567438
 H      7   6   3     2.050168648373   112.11268771    56.06570365
 H      7   6   3     2.056881154200   109.13698879   175.83403238

---------------------
BASIS SET INFORMATION
---------------------
There are 2 groups of distinct atoms

 Group   1 Type C   : 11s6p1d contracted to 5s3p1d pattern {62111/411/1}
 Group   2 Type H   : 4s1p contracted to 2s1p pattern {31/1}

Atom   0C    basis set group =>   1
Atom   1C    basis set group =>   1
Atom   2C    basis set group =>   1
Atom   3C    basis set group =>   1
Atom   4C    basis set group =>   1
Atom   5C    basis set group =>   1
Atom   6C    basis set group =>   1
Atom   7H    basis set group =>   2
Atom   8H    basis set group =>   2
Atom   9H    basis set group =>   2
Atom  10H    basis set group =>   2
Atom  11H    basis set group =>   2
Atom  12H    basis set group =>   2
Atom  13H    basis set group =>   2
Atom  14H    basis set group =>   2
Atom  15H    basis set group =>   2
Atom  16H    basis set group =>   2
Atom  17H    basis set group =>   2
Atom  18H    basis set group =>   2
Atom  19H    basis set group =>   2
Atom  20H    basis set group =>   2
Atom  21H    basis set group =>   2
Atom  22H    basis set group =>   2
---------------------------------
AUXILIARY/J BASIS SET INFORMATION
---------------------------------
There are 2 groups of distinct atoms

 Group   1 Type C   : 12s5p4d2f1g contracted to 6s4p3d1f1g pattern {711111/2111/211/2/1}
 Group   2 Type H   : 5s2p1d contracted to 3s1p1d pattern {311/2/1}

Atom   0C    basis set group =>   1
Atom   1C    basis set group =>   1
Atom   2C    basis set group =>   1
Atom   3C    basis set group =>   1
Atom   4C    basis set group =>   1
Atom   5C    basis set group =>   1
Atom   6C    basis set group =>   1
Atom   7H    basis set group =>   2
Atom   8H    basis set group =>   2
Atom   9H    basis set group =>   2
Atom  10H    basis set group =>   2
Atom  11H    basis set group =>   2
Atom  12H    basis set group =>   2
Atom  13H    basis set group =>   2
Atom  14H    basis set group =>   2
Atom  15H    basis set group =>   2
Atom  16H    basis set group =>   2
Atom  17H    basis set group =>   2
Atom  18H    basis set group =>   2
Atom  19H    basis set group =>   2
Atom  20H    basis set group =>   2
Atom  21H    basis set group =>   2
Atom  22H    basis set group =>   2

Checking for AutoStart:
The File: sp_gas.gbw exists
Trying to determine its content:
     ... Fine, the file contains calculation information
     ... Fine, the calculation information was read
     ... Fine, the file contains a basis set
     ... Fine, the basis set was read
     ... Fine, the file contains a geometry
     ... Fine, the geometry was read
     ... Fine, the file contains a set of orbitals
     ... Fine, the orbitals can be read
     => possible old guess file was deleted
     => GBW file was renamed to GES file
     => GES file is set as startup file
     => Guess is set to MORead
     ... now leaving AutoStart

------------------------------------------------------------------------------
                             ORCA STARTUP CALCULATIONS
                           -- RI-GTO INTEGRALS CHOSEN --
------------------------------------------------------------------------------
------------------------------------------------------------------------------
                   ___                                                        
                  /   \      - P O W E R E D   B Y -                         
                 /     \                                                     
                 |  |  |   _    _      __       _____    __    __             
                 |  |  |  | |  | |    /  \     |  _  \  |  |  /  |          
                  \  \/   | |  | |   /    \    | | | |  |  | /  /          
                 / \  \   | |__| |  /  /\  \   | |_| |  |  |/  /          
                |  |  |   |  __  | /  /__\  \  |    /   |      \           
                |  |  |   | |  | | |   __   |  |    \   |  |\   \          
                \     /   | |  | | |  |  |  |  | |\  \  |  | \   \       
                 \___/    |_|  |_| |__|  |__|  |_| \__\ |__|  \__/        
                                                                              
                      - O R C A' S   B I G   F R I E N D -                    
                                      &                                       
                       - I N T E G R A L  F E E D E R -                       
                                                                              
 v1 FN, 2020, v2 2021, v3 2022-2024                                           
------------------------------------------------------------------------------


----------------------
SHARK INTEGRAL PACKAGE
----------------------

Number of atoms                             ...     23
Number of basis functions                   ...    213
Number of shells                            ...    111
Maximum angular momentum                    ...      2
Integral batch strategy                     ... SHARK/LIBINT Hybrid
RI-J (if used) integral strategy            ... SPLIT-RIJ (Revised 2003 algorithm where possible)
Printlevel                                  ...      1
Contraction scheme used                     ... SEGMENTED contraction
Prescreening option                         ... SCHWARTZ
   Thresh                                   ... 1.000e-10
   Tcut                                     ... 1.000e-11
   Tpresel                                  ... 1.000e-11 
Coulomb Range Separation                    ... NOT USED
Exchange Range Separation                   ... NOT USED
Multipole approximations                    ... NOT USED
Finite Nucleus Model                        ... NOT USED
CABS basis                                  ... NOT available
Auxiliary Coulomb fitting basis             ... AVAILABLE
   # of basis functions in Aux-J            ...    519
   # of shells in Aux-J                     ...    185
   Maximum angular momentum in Aux-J        ...      4
Auxiliary J/K fitting basis                 ... NOT available
Auxiliary Correlation fitting basis         ... NOT available
Auxiliary 'external' fitting basis          ... NOT available

Checking pre-screening integrals            ... done (  0.0 sec) Dimension = 111
Check shell pair data                       ... done (  0.0 sec)
Shell pair information
Shell pair cut-off parameter TPreSel        ...   1.0e-11
Total number of shell pairs                 ...      6216
Shell pairs after pre-screening             ...      5811
Total number of primitive shell pairs       ...     21523
Primitive shell pairs kept                  ...     14521
          la=0 lb=0:   2118 shell pairs
          la=1 lb=0:   2301 shell pairs
          la=1 lb=1:    655 shell pairs
          la=2 lb=0:    455 shell pairs
          la=2 lb=1:    254 shell pairs
          la=2 lb=2:     28 shell pairs

Calculating one electron integrals          ... done (  0.0 sec)
Calculating RI/J V-Matrix + Cholesky decomp.... done (  0.1 sec)
Calculating Nuclear repulsion               ... done (  0.0 sec) ENN=    343.772183912635 Eh

Diagonalization of the overlap matrix:
Smallest eigenvalue                        ... 1.675e-04
Time for diagonalization                   ...    0.010 sec
Threshold for overlap eigenvalues          ... 1.000e-07
Number of eigenvalues below threshold      ... 0
Time for construction of square roots      ...    0.018 sec
Total time needed                          ...    0.037 sec

-------------------
DFT GRID GENERATION
-------------------

General Integration Accuracy     IntAcc      ... 4.388
Radial Grid Type                 RadialGrid  ... OptM3 with GC (2021)
Angular Grid (max. ang.)         AngularGrid ... 4 (Lebedev-302)
Angular grid pruning method      GridPruning ... 4 (adaptive)
Weight generation scheme         WeightScheme... mBecke (2022)
Basis function cutoff            BFCut       ... 1.0000e-10
Integration weight cutoff        WCut        ... 1.0000e-14
Partially contracted basis set               ... off
Rotationally invariant grid construction     ... off
Angular grids for H and He will be reduced by one unit

Total number of grid points                  ...    92719
Total number of batches                      ...     1461
Average number of points per batch           ...       63
Average number of grid points per atom       ...     4031
Initializing property integral containers    ... done (  0.0 sec)

SHARK setup successfully completed in   1.4 seconds

Maximum memory used throughout the entire STARTUP-calculation: 39.6 MB
-------------------------------------------------------------------------------
                                 ORCA GUESS
                   Start orbitals & Density for SCF / CASSCF
-------------------------------------------------------------------------------

------------
SCF SETTINGS
------------
Hamiltonian:
 Density Functional     Method          .... DFT(GTOs)
  Functional kind                       .... Exchange
  Functional name                       .... Re-regularized SCAN exchange by Furness et al
  Functional family                     .... MGGA
  Functional refs                              
    [ 0] J. W. Furness, A. D. Kaplan, J. Ning, J. P. Perdew, and J. Sun.,  J. Phys. Chem. Lett. 11, 8208-8215 (2020), doi: 10.1021/acs.jpclett.0c02405
    [ 1] J. W. Furness, A. D. Kaplan, J. Ning, J. P. Perdew, and J. Sun.,  J. Phys. Chem. Lett. 11, 9248-9248 (2020), doi: 10.1021/acs.jpclett.0c03077
  Functional external parameters        .... 6
    Parameter  0 _c1        =  6.670000e-01 : c1 parameter        
    Parameter  1 _c2        =  8.000000e-01 : c2 parameter        
    Parameter  2 _d         =  1.240000e+00 : d parameter         
    Parameter  3 _k1        =  6.500000e-02 : k1 parameter        
    Parameter  4 _eta       =  1.000000e-03 : eta parameter       
    Parameter  5 _dp2       =  3.610000e-01 : dp2 parameter       
  Functional kind                       .... Correlation
  Functional name                       .... Re-regularized SCAN correlation by Furness et al
  Functional family                     .... MGGA
  Functional refs                              
    [ 0] J. W. Furness, A. D. Kaplan, J. Ning, J. P. Perdew, and J. Sun.,  J. Phys. Chem. Lett. 11, 8208-8215 (2020), doi: 10.1021/acs.jpclett.0c02405
    [ 1] J. W. Furness, A. D. Kaplan, J. Ning, J. P. Perdew, and J. Sun.,  J. Phys. Chem. Lett. 11, 9248-9248 (2020), doi: 10.1021/acs.jpclett.0c03077
  Functional external parameters        .... 1
    Parameter  0 _eta       =  1.000000e-03 : Regularization parameter
 Gradients option       PostSCFGGA      .... off
 RI-approximation to the Coulomb term is turned on
   Number of AuxJ basis functions       .... 519


General Settings:
 Integral files         IntName         .... sp_gas
 Hartree-Fock type      HFTyp           .... RHF
 Total Charge           Charge          ....    0
 Multiplicity           Mult            ....    1
 Number of Electrons    NEL             ....   58
 Basis Dimension        Dim             ....  213
 Nuclear Repulsion      ENuc            ....    343.7721839126 Eh

Convergence Acceleration:
 AO-DIIS                CNVDIIS         .... on
   Start iteration      DIISMaxIt       ....    12
   Startup error        DIISStart       ....  0.200000
   # of expansion vecs  DIISMaxEq       ....     5
   Bias factor          DIISBfac        ....   1.050
   Max. coefficient     DIISMaxC        ....  10.000
 MO-DIIS                CNVKDIIS        .... off
 Trust-Rad. Augm. Hess. CNVTRAH         .... auto
   Auto Start mean grad. ratio tolernc. ....  1.125000
   Auto Start start iteration           ....     1
   Auto Start num. interpolation iter.  ....    10
   Max. Number of Micro iterations      ....    24
   Max. Number of Macro iterations      .... Maxiter - #DIIS iter
   Number of Davidson start vectors     ....     2
   Converg. threshold    (grad. norm)   ....   3.330e-04
   Grad. Scal. Fac. for Micro threshold ....   0.100
   Minimum threshold for Micro iter.    ....   1.000e-02
   NR start threshold (gradient norm)   ....   1.000e-04
   Initial trust radius                 ....   0.400
   Minimum AH scaling param. (alpha)    ....   1.000
   Maximum AH scaling param. (alpha)    .... 1000.000
   Quad. conv. algorithm                .... NR
   White noise on init. David. guess    .... on
   Maximum white noise                  ....   0.010
   Pseudo random numbers                .... off
   Inactive MOs                         .... canonical
   Orbital update algorithm             .... Taylor
   Preconditioner                       .... Diag
   Full preconditioner red. dimension   ....   250
   COSX micro iterations for RIJONX calc.... off
 SOSCF                  CNVSOSCF        .... on
   Start iteration      SOSCFMaxIt      ....   150
   Startup grad/error   SOSCFStart      ....  0.003300
   Hessian update       SOSCFHessUp     .... L-BFGS
 Level Shifting         CNVShift        .... on
   Level shift para.    LevelShift      ....    0.2500
   Turn off err/grad.   ShiftErr        ....    0.0010
 Zerner damping         CNVZerner       .... off
 Static damping         CNVDamp         .... on
   Fraction old density DampFac         ....    0.7000
   Max. Damping (<1)    DampMax         ....    0.9800
   Min. Damping (>=0)   DampMin         ....    0.0000
   Turn off err/grad.   DampErr         ....    0.1000

SCF Procedure:
 Maximum # iterations   MaxIter         ....   125
 SCF integral mode      SCFMode         .... Direct
   Integral package                     .... SHARK and LIBINT hybrid scheme
 Reset frequency        DirectResetFreq ....    20
 Integral Threshold     Thresh          ....  1.000e-10 Eh
 Primitive CutOff       TCut            ....  1.000e-11 Eh

Convergence Tolerance:
 Convergence Check Mode ConvCheckMode   .... Total+1el-Energy
 Convergence forced     ConvForced      .... 0
 Energy Change          TolE            ....  1.000e-06 Eh
 1-El. energy change                    ....  1.000e-03 Eh
 Orbital Gradient       TolG            ....  3.330e-04
 Orbital Rotation angle TolX            ....  3.330e-04
 DIIS Error             TolErr          ....  1.000e-06

---------------------
INITIAL GUESS: MOREAD
---------------------
Guess MOs are being read from file: sp_gas.ges
Input Geometry matches current geometry (good)
Atom 0: N(Shells)= 9 and 6 - projection required
Input basis set needs projection
NBasis(read)= 130
NBasis(calc)= 213
Basis set overlap was calculated
Using GuessMode=FMatrix for the initial guess
C*T matrix was formed
Effective Fockian was calculated
Effective Fockian was diagonalized
Initial density was built
                      ------------------
                      INITIAL GUESS DONE (   0.0 sec)
                      ------------------
             **** ENERGY FILE WAS UPDATED (sp_gas.en.tmp) ****
Finished Guess after   0.3 sec
Maximum memory used throughout the entire GUESS-calculation: 15.1 MB

-------------------------------------------------------------------------------------------
                                      ORCA LEAN-SCF
                              memory conserving SCF solver
-------------------------------------------------------------------------------------------

----------------------------------------D-I-I-S--------------------------------------------
Iteration    Energy (Eh)           Delta-E    RMSDP     MaxDP     DIISErr   Damp  Time(sec)
-------------------------------------------------------------------------------------------
               ***  Starting incremental Fock matrix formation  ***
    1    -276.1384027740193687     0.00e+00  4.18e-03  1.27e-01  2.87e-01  0.700   2.9
    2    -276.1831197071876431    -4.47e-02  3.33e-03  9.02e-02  2.02e-01  0.700   2.6
                               ***Turning on AO-DIIS***
    3    -276.2147892944561818    -3.17e-02  2.45e-03  6.58e-02  1.41e-01  0.700   2.5
    4    -276.2370303917007277    -2.22e-02  1.75e-03  4.67e-02  9.90e-02  0.700   2.5
    5    -276.2526346292861490    -1.56e-02  4.14e-03  1.10e-01  6.93e-02  0.000   2.5
                              *** Initializing SOSCF ***
---------------------------------------S-O-S-C-F--------------------------------------
Iteration    Energy (Eh)           Delta-E    RMSDP     MaxDP     MaxGrad    Time(sec)
--------------------------------------------------------------------------------------
    6    -276.2891732103179265    -3.65e-02  5.69e-05  1.86e-03  2.00e-04     2.6
               *** Restarting incremental Fock matrix formation ***
    7    -276.2891739795779813    -7.69e-07  2.34e-05  5.03e-04  4.19e-05     3.1
                  *** Gradient check signals convergence ***

               *****************************************************
               *                     SUCCESS                       *
               *           SCF CONVERGED AFTER   7 CYCLES          *
               *****************************************************

             **** ENERGY FILE WAS UPDATED (sp_gas.en.tmp) ****

----------------
TOTAL SCF ENERGY
----------------

Total Energy       :       -276.28917397957798 Eh           -7518.21064 eV

Components:
Nuclear Repulsion  :        343.77218391263500 Eh            9354.51670 eV
Electronic Energy  :       -620.06135789221298 Eh          -16872.72734 eV
One Electron Energy:      -1051.70854479458694 Eh          -28618.44444 eV
Two Electron Energy:        431.64718690237396 Eh           11745.71710 eV

Virial components:
Potential Energy   :       -551.25633956823197 Eh          -15000.44761 eV
Kinetic Energy     :        274.96716558865398 Eh            7482.23697 eV
Virial Ratio       :          2.00480787728998

DFT components:
N(Alpha)           :       28.999932646573 electrons
N(Beta)            :       28.999932646573 electrons
N(Total)           :       57.999865293147 electrons
E(X)               :      -42.136845019302 Eh       
E(C)               :       -1.783234347857 Eh       
E(XC)              :      -43.920079367159 Eh       

---------------
SCF CONVERGENCE
---------------

  Last Energy change         ...    7.6926e-07  Tolerance :   1.0000e-06
  Last MAX-Density change    ...    5.0252e-04  Tolerance :   1.0000e-05
  Last RMS-Density change    ...    2.3368e-05  Tolerance :   1.0000e-06
  Last DIIS Error            ...    1.9955e-04  Tolerance :   1.0000e-06
  Last Orbital Gradient      ...    4.1895e-05  Tolerance :   3.3300e-04
  Last Orbital Rotation      ...    7.4532e-05  Tolerance :   3.3300e-04


----------------
ORBITAL ENERGIES
----------------

  NO   OCC          E(Eh)            E(eV) 
   0   2.0000     -10.036898      -273.1179 
   1   2.0000     -10.020344      -272.6674 
   2   2.0000     -10.020059      -272.6597 
   3   2.0000     -10.013938      -272.4931 
   4   2.0000     -10.012347      -272.4498 
   5   2.0000     -10.011092      -272.4157 
   6   2.0000     -10.010444      -272.3980 
   7   2.0000      -0.793018       -21.5791 
   8   2.0000      -0.712045       -19.3757 
   9   2.0000      -0.694058       -18.8863 
  10   2.0000      -0.649156       -17.6644 
  11   2.0000      -0.596400       -16.2289 
  12   2.0000      -0.576608       -15.6903 
  13   2.0000      -0.489759       -13.3270 
  14   2.0000      -0.435113       -11.8400 
  15   2.0000      -0.426534       -11.6066 
  16   2.0000      -0.411234       -11.1902 
  17   2.0000      -0.388499       -10.5716 
  18   2.0000      -0.373204       -10.1554 
  19   2.0000      -0.369028       -10.0418 
  20   2.0000      -0.349922        -9.5219 
  21   2.0000      -0.344955        -9.3867 
  22   2.0000      -0.329652        -8.9703 
  23   2.0000      -0.326510        -8.8848 
  24   2.0000      -0.312193        -8.4952 
  25   2.0000      -0.304185        -8.2773 
  26   2.0000      -0.278771        -7.5857 
  27   2.0000      -0.275042        -7.4843 
  28   2.0000      -0.267958        -7.2915 
  29   0.0000       0.078196         2.1278 
  30   0.0000       0.099244         2.7006 
  31   0.0000       0.117953         3.2097 
  32   0.0000       0.121092         3.2951 
  33   0.0000       0.128324         3.4919 
  34   0.0000       0.136344         3.7101 
  35   0.0000       0.138879         3.7791 
  36   0.0000       0.143288         3.8991 
  37   0.0000       0.148996         4.0544 
  38   0.0000       0.153643         4.1808 
  39   0.0000       0.162069         4.4101 
*Only the first 10 virtual orbitals were printed.

                    ********************************
                    * MULLIKEN POPULATION ANALYSIS *
                    ********************************

-----------------------
MULLIKEN ATOMIC CHARGES
-----------------------
   0 C :   -0.534120
   1 C :   -0.250320
   2 C :    0.211189
   3 C :   -0.509331
   4 C :   -0.548646
   5 C :   -0.329245
   6 C :   -0.488175
   7 H :    0.156787
   8 H :    0.155292
   9 H :    0.146651
  10 H :    0.149627
  11 H :    0.144137
  12 H :    0.149700
  13 H :    0.154063
  14 H :    0.153679
  15 H :    0.160208
  16 H :    0.151356
  17 H :    0.160462
  18 H :    0.153609
  19 H :    0.152170
  20 H :    0.152119
  21 H :    0.162584
  22 H :    0.146204
Sum of atomic charges:   -0.0000000

--------------------------------
MULLIKEN REDUCED ORBITAL CHARGES
--------------------------------
  0 C s       :     3.369084  s :     3.369084
      pz      :     1.040941  p :     3.137714
      px      :     1.118777
      py      :     0.977996
      dz2     :     0.005496  d :     0.027322
      dxz     :     0.004306
      dyz     :     0.006291
      dx2y2   :     0.005716
      dxy     :     0.005513

  1 C s       :     3.216723  s :     3.216723
      pz      :     1.065226  p :     2.996415
      px      :     0.977753
      py      :     0.953436
      dz2     :     0.005957  d :     0.037181
      dxz     :     0.007441
      dyz     :     0.007576
      dx2y2   :     0.006948
      dxy     :     0.009259

  2 C s       :     2.970174  s :     2.970174
      pz      :     0.908223  p :     2.764877
      px      :     0.945115
      py      :     0.911538
      dz2     :     0.009702  d :     0.053760
      dxz     :     0.010741
      dyz     :     0.012413
      dx2y2   :     0.009088
      dxy     :     0.011816

  3 C s       :     3.355124  s :     3.355124
      pz      :     1.041433  p :     3.126896
      px      :     1.096671
      py      :     0.988791
      dz2     :     0.006231  d :     0.027311
      dxz     :     0.004012
      dyz     :     0.005816
      dx2y2   :     0.002807
      dxy     :     0.008445

  4 C s       :     3.369162  s :     3.369162
      pz      :     0.988675  p :     3.152185
      px      :     1.082021
      py      :     1.081489
      dz2     :     0.005301  d :     0.027299
      dxz     :     0.004803
      dyz     :     0.008183
      dx2y2   :     0.002610
      dxy     :     0.006402

  5 C s       :     3.256325  s :     3.256325
      pz      :     1.008238  p :     3.036377
      px      :     1.011923
      py      :     1.016215
      dz2     :     0.003279  d :     0.036544
      dxz     :     0.009632
      dyz     :     0.009502
      dx2y2   :     0.003805
      dxy     :     0.010326

  6 C s       :     3.342801  s :     3.342801
      pz      :     1.046521  p :     3.117989
      px      :     1.039672
      py      :     1.031796
      dz2     :     0.001684  d :     0.027384
      dxz     :     0.007832
      dyz     :     0.008210
      dx2y2   :     0.002036
      dxy     :     0.007623

  7 H s       :     0.824799  s :     0.824799
      pz      :     0.009408  p :     0.018414
      px      :     0.005275
      py      :     0.003731

  8 H s       :     0.826294  s :     0.826294
      pz      :     0.005679  p :     0.018413
      px      :     0.005465
      py      :     0.007269

  9 H s       :     0.835065  s :     0.835065
      pz      :     0.003931  p :     0.018284
      px      :     0.009887
      py      :     0.004466

 10 H s       :     0.832591  s :     0.832591
      pz      :     0.009249  p :     0.017782
      px      :     0.004931
      py      :     0.003601

 11 H s       :     0.838103  s :     0.838103
      pz      :     0.005355  p :     0.017760
      px      :     0.006077
      py      :     0.006329

 12 H s       :     0.832084  s :     0.832084
      pz      :     0.004835  p :     0.018216
      px      :     0.007272
      py      :     0.006109

 13 H s       :     0.827738  s :     0.827738
      pz      :     0.009630  p :     0.018199
      px      :     0.004510
      py      :     0.004059

 14 H s       :     0.828120  s :     0.828120
      pz      :     0.003791  p :     0.018201
      px      :     0.008494
      py      :     0.005916

 15 H s       :     0.821581  s :     0.821581
      pz      :     0.003755  p :     0.018212
      px      :     0.009109
      py      :     0.005347

 16 H s       :     0.830416  s :     0.830416
      pz      :     0.005073  p :     0.018228
      px      :     0.006438
      py      :     0.006717

 17 H s       :     0.820935  s :     0.820935
      pz      :     0.006636  p :     0.018603
      px      :     0.003970
      py      :     0.007997

 18 H s       :     0.828531  s :     0.828531
      pz      :     0.006509  p :     0.017860
      px      :     0.005425
      py      :     0.005925

 19 H s       :     0.829929  s :     0.829929
      pz      :     0.005989  p :     0.017901
      px      :     0.005872
      py      :     0.006040

 20 H s       :     0.829502  s :     0.829502
      pz      :     0.005924  p :     0.018379
      px      :     0.006577
      py      :     0.005878

 21 H s       :     0.818791  s :     0.818791
      pz      :     0.006623  p :     0.018625
      px      :     0.005702
      py      :     0.006300

 22 H s       :     0.835527  s :     0.835527
      pz      :     0.006257  p :     0.018269
      px      :     0.005879
      py      :     0.006133


------------------------
MULLIKEN OVERLAP CHARGES
------------------------
B(  0-C ,  1-C ) :   0.2971 B(  0-C ,  2-C ) :  -0.1509 B(  0-C ,  7-H ) :   0.8915 
B(  0-C ,  8-H ) :   0.8578 B(  0-C ,  9-H ) :   0.7847 B(  0-C , 11-H ) :  -0.0515 
B(  1-C ,  2-C ) :   0.4093 B(  1-C ,  3-C ) :  -0.2849 B(  1-C ,  4-C ) :  -0.2676 
B(  1-C ,  5-C ) :  -0.1312 B(  1-C ,  7-H ) :  -0.1377 B(  1-C ,  8-H ) :  -0.0855 
B(  1-C ,  9-H ) :  -0.0662 B(  1-C , 10-H ) :   0.8249 B(  1-C , 11-H ) :   0.8544 
B(  2-C ,  3-C ) :   0.7050 B(  2-C ,  4-C ) :   0.4345 B(  2-C ,  5-C ) :   0.2000 
B(  2-C ,  6-C ) :  -0.0816 B(  2-C , 10-H ) :  -0.0813 B(  2-C , 11-H ) :  -0.1186 
B(  2-C , 12-H ) :  -0.0986 B(  2-C , 13-H ) :  -0.1022 B(  2-C , 14-H ) :  -0.0823 
B(  2-C , 15-H ) :  -0.1190 B(  2-C , 16-H ) :  -0.0925 B(  2-C , 18-H ) :  -0.1300 
B(  2-C , 19-H ) :  -0.0989 B(  3-C ,  4-C ) :  -0.3152 B(  3-C ,  5-C ) :  -0.2503 
B(  3-C , 12-H ) :   0.8337 B(  3-C , 13-H ) :   0.8229 B(  3-C , 14-H ) :   0.8268 
B(  4-C ,  5-C ) :  -0.1971 B(  4-C , 15-H ) :   0.8267 B(  4-C , 16-H ) :   0.8129 
B(  4-C , 17-H ) :   0.7938 B(  5-C ,  6-C ) :   0.3179 B(  5-C , 18-H ) :   0.8400 
B(  5-C , 19-H ) :   0.8351 B(  5-C , 20-H ) :  -0.0707 B(  5-C , 21-H ) :  -0.1245 
B(  5-C , 22-H ) :  -0.0867 B(  6-C , 19-H ) :  -0.0625 B(  6-C , 20-H ) :   0.8463 
B(  6-C , 21-H ) :   0.8776 B(  6-C , 22-H ) :   0.8086 B(  7-H ,  8-H ) :  -0.0533 



                     *******************************
                     * LOEWDIN POPULATION ANALYSIS *
                     *******************************

----------------------
LOEWDIN ATOMIC CHARGES
----------------------
   0 C :   -0.423946
   1 C :   -0.302004
   2 C :   -0.207338
   3 C :   -0.410813
   4 C :   -0.407087
   5 C :   -0.302258
   6 C :   -0.422661
   7 H :    0.149895
   8 H :    0.150628
   9 H :    0.151029
  10 H :    0.157455
  11 H :    0.156595
  12 H :    0.154877
  13 H :    0.156917
  14 H :    0.154031
  15 H :    0.157793
  16 H :    0.157701
  17 H :    0.156190
  18 H :    0.159007
  19 H :    0.159720
  20 H :    0.150817
  21 H :    0.152119
  22 H :    0.151333

-------------------------------
LOEWDIN REDUCED ORBITAL CHARGES
-------------------------------
  0 C s       :     2.968907  s :     2.968907
      pz      :     1.136463  p :     3.391261
      px      :     1.158780
      py      :     1.096018
      dz2     :     0.012464  d :     0.063778
      dxz     :     0.010705
      dyz     :     0.014695
      dx2y2   :     0.013569
      dxy     :     0.012346

  1 C s       :     2.933762  s :     2.933762
      pz      :     1.125650  p :     3.287579
      px      :     1.079285
      py      :     1.082644
      dz2     :     0.013145  d :     0.080663
      dxz     :     0.016131
      dyz     :     0.016867
      dx2y2   :     0.014616
      dxy     :     0.019904

  2 C s       :     2.884658  s :     2.884658
      pz      :     1.074802  p :     3.216548
      px      :     1.075620
      py      :     1.066125
      dz2     :     0.018759  d :     0.106132
      dxz     :     0.020881
      dyz     :     0.025525
      dx2y2   :     0.017100
      dxy     :     0.023867

  3 C s       :     2.971022  s :     2.971022
      pz      :     1.127116  p :     3.375369
      px      :     1.153801
      py      :     1.094453
      dz2     :     0.014495  d :     0.064422
      dxz     :     0.009531
      dyz     :     0.013889
      dx2y2   :     0.006355
      dxy     :     0.020152

  4 C s       :     2.961574  s :     2.961574
      pz      :     1.095180  p :     3.381177
      px      :     1.144157
      py      :     1.141840
      dz2     :     0.011967  d :     0.064336
      dxz     :     0.011068
      dyz     :     0.019305
      dx2y2   :     0.006328
      dxy     :     0.015668

  5 C s       :     2.931222  s :     2.931222
      pz      :     1.100849  p :     3.292090
      px      :     1.090723
      py      :     1.100518
      dz2     :     0.005684  d :     0.078947
      dxz     :     0.021706
      dyz     :     0.021352
      dx2y2   :     0.006389
      dxy     :     0.023815

  6 C s       :     2.969196  s :     2.969196
      pz      :     1.139352  p :     3.389708
      px      :     1.123767
      py      :     1.126589
      dz2     :     0.002967  d :     0.063757
      dxz     :     0.018996
      dyz     :     0.019841
      dx2y2   :     0.003476
      dxy     :     0.018477

  7 H s       :     0.806284  s :     0.806284
      pz      :     0.023245  p :     0.043821
      px      :     0.012176
      py      :     0.008400

  8 H s       :     0.805476  s :     0.805476
      pz      :     0.013663  p :     0.043896
      px      :     0.012632
      py      :     0.017602

  9 H s       :     0.805525  s :     0.805525
      pz      :     0.008660  p :     0.043446
      px      :     0.024572
      py      :     0.010214

 10 H s       :     0.799373  s :     0.799373
      pz      :     0.022878  p :     0.043172
      px      :     0.011839
      py      :     0.008455

 11 H s       :     0.800130  s :     0.800130
      pz      :     0.012957  p :     0.043275
      px      :     0.014923
      py      :     0.015394

 12 H s       :     0.801395  s :     0.801395
      pz      :     0.011468  p :     0.043727
      px      :     0.017620
      py      :     0.014640

 13 H s       :     0.799396  s :     0.799396
      pz      :     0.023963  p :     0.043687
      px      :     0.010212
      py      :     0.009513

 14 H s       :     0.802253  s :     0.802253
      pz      :     0.008497  p :     0.043716
      px      :     0.021022
      py      :     0.014197

 15 H s       :     0.798474  s :     0.798474
      pz      :     0.008810  p :     0.043733
      px      :     0.022462
      py      :     0.012460

 16 H s       :     0.798603  s :     0.798603
      pz      :     0.012024  p :     0.043696
      px      :     0.015620
      py      :     0.016051

 17 H s       :     0.799101  s :     0.799101
      pz      :     0.016198  p :     0.044709
      px      :     0.008868
      py      :     0.019643

 18 H s       :     0.797439  s :     0.797439
      pz      :     0.015847  p :     0.043555
      px      :     0.013140
      py      :     0.014568

 19 H s       :     0.796850  s :     0.796850
      pz      :     0.014419  p :     0.043430
      px      :     0.014354
      py      :     0.014657

 20 H s       :     0.805432  s :     0.805432
      pz      :     0.013904  p :     0.043751
      px      :     0.015720
      py      :     0.014127

 21 H s       :     0.803334  s :     0.803334
      pz      :     0.015781  p :     0.044547
      px      :     0.013530
      py      :     0.015236

 22 H s       :     0.805258  s :     0.805258
      pz      :     0.015217  p :     0.043409
      px      :     0.013747
      py      :     0.014445


---------------------------------
LOEWDIN BOND ORDERS (THRESH 0.050000)
---------------------------------
B(  0-C ,  1-C ) :   1.1363 B(  0-C ,  2-C ) :   0.0579 B(  0-C ,  7-H ) :   0.9257 
B(  0-C ,  8-H ) :   0.9241 B(  0-C ,  9-H ) :   0.9257 B(  1-C ,  2-C ) :   1.0469 
B(  1-C ,  3-C ) :   0.0823 B(  1-C ,  4-C ) :   0.0650 B(  1-C ,  5-C ) :   0.0631 
B(  1-C , 10-H ) :   0.8834 B(  1-C , 11-H ) :   0.8837 B(  2-C ,  3-C ) :   1.0755 
B(  2-C ,  4-C ) :   1.0777 B(  2-C ,  5-C ) :   1.0376 B(  2-C ,  6-C ) :   0.0578 
B(  3-C ,  4-C ) :   0.0741 B(  3-C ,  5-C ) :   0.0812 B(  3-C , 12-H ) :   0.9166 
B(  3-C , 13-H ) :   0.9166 B(  3-C , 14-H ) :   0.9183 B(  4-C ,  5-C ) :   0.0590 
B(  4-C , 15-H ) :   0.9158 B(  4-C , 16-H ) :   0.9151 B(  4-C , 17-H ) :   0.9129 
B(  5-C ,  6-C ) :   1.1343 B(  5-C , 18-H ) :   0.8845 B(  5-C , 19-H ) :   0.8821 
B(  6-C , 20-H ) :   0.9253 B(  6-C , 21-H ) :   0.9228 B(  6-C , 22-H ) :   0.9263 


------------------------------------------
LOEWDIN REDUCED ORBITAL POPULATIONS PER MO
-------------------------------------------
THRESHOLD FOR PRINTING IS 0.1%%
                      0         1         2         3         4         5   
                 -10.03690 -10.02034 -10.02006 -10.01394 -10.01235 -10.01109
                   2.00000   2.00000   2.00000   2.00000   2.00000   2.00000
                  --------  --------  --------  --------  --------  --------
 0 C  s               0.0       0.0       0.0      99.7       0.0       0.0
 1 C  s               0.0       0.0      99.7       0.0       0.0       0.0
 2 C  s              99.6       0.0       0.0       0.0       0.0       0.0
 4 C  s               0.0       0.0       0.0       0.0       0.0      99.7
 5 C  s               0.0      99.7       0.0       0.0       0.0       0.0
 6 C  s               0.0       0.0       0.0       0.0      99.7       0.0

                      6         7         8         9        10        11   
                 -10.01044  -0.79302  -0.71205  -0.69406  -0.64916  -0.59640
                   2.00000   2.00000   2.00000   2.00000   2.00000   2.00000
                  --------  --------  --------  --------  --------  --------
 0 C  s               0.0       3.5      15.7      12.2       0.0       7.3
 0 C  pz              0.0       0.3       0.2       0.1       0.1       0.8
 0 C  py              0.0       1.1       0.9       0.1       0.0       1.8
 1 C  s               0.0      11.4      13.7       3.1       0.3       3.5
 1 C  pz              0.0       0.0       0.7       0.5       1.0       1.3
 1 C  px              0.0       2.3       0.3       0.5       0.1       0.5
 1 C  py              0.0       0.2       1.3       4.4       0.1       1.6
 2 C  s               0.0      24.6       0.0       3.1       0.0       3.1
 2 C  pz              0.0       0.0       0.9       0.1      14.2       0.2
 2 C  px              0.0       0.0       6.6       0.0       2.0       0.1
 2 C  py              0.1       0.0       0.0       8.0       0.1       6.9
 2 C  dyz             0.0       0.0       0.0       0.0       0.2       0.1
 2 C  dxy             0.0       0.0       0.1       0.0       0.0       0.0
 3 C  s              99.7       8.2       0.0      10.6      14.9      11.8
 3 C  pz              0.0       1.0       0.0       0.3       0.9       0.3
 3 C  px              0.0       0.1       0.3       0.0       0.1       0.0
 3 C  py              0.0       2.1       0.0       0.1       0.0       3.1
 4 C  s               0.0       8.2       0.0       5.9      27.9       1.3
 4 C  pz              0.0       2.4       0.1       0.3       0.9       0.4
 4 C  px              0.0       0.5       0.4       0.1       0.1       0.2
 4 C  py              0.0       0.4       0.0       0.4       0.0       0.4
 5 C  s               0.0      11.0      12.6       4.5       0.8       4.7
 5 C  pz              0.0       1.1       0.2       0.1       1.0       0.6
 5 C  px              0.0       0.8       1.8       1.5       0.2       2.7
 5 C  py              0.0       0.6       0.5       3.3       0.1       0.8
 6 C  s               0.0       3.4      15.2      12.4       0.1       7.2
 6 C  pz              0.0       0.2       0.5       0.2       0.3       0.9
 6 C  px              0.0       0.7       0.2       0.1       0.0       1.0
 6 C  py              0.0       0.6       0.4       0.0       0.0       0.8
 7 H  s               0.0       0.4       2.6       2.2       0.1       2.6
 7 H  pz              0.0       0.0       0.2       0.2       0.0       0.1
 8 H  s               0.0       0.4       2.4       2.5       0.0       2.4
 8 H  py              0.0       0.0       0.1       0.1       0.0       0.1
 9 H  s               0.0       0.4       2.9       2.3       0.0       2.6
 9 H  px              0.0       0.0       0.2       0.2       0.0       0.2
10 H  s               0.0       1.3       2.3       0.6       0.2       1.2
10 H  pz              0.0       0.1       0.2       0.1       0.0       0.1
11 H  s               0.0       1.3       2.5       0.4       0.0       0.7
11 H  py              0.0       0.0       0.1       0.0       0.0       0.0
12 H  s               0.0       1.0       0.0       2.0       3.2       4.1
12 H  px              0.0       0.0       0.0       0.1       0.1       0.2
13 H  s               0.0       1.0       0.0       1.8       4.1       3.1
13 H  pz              0.0       0.1       0.0       0.1       0.3       0.2
14 H  s               0.0       1.0       0.0       2.0       3.2       4.3
14 H  px              0.0       0.1       0.0       0.1       0.2       0.2
15 H  s               0.0       0.9       0.0       1.1       6.4       0.6
15 H  px              0.0       0.1       0.0       0.1       0.4       0.0
15 H  py              0.0       0.0       0.0       0.0       0.1       0.0
16 H  s               0.0       1.0       0.0       1.2       6.4       0.6
16 H  px              0.0       0.0       0.0       0.0       0.2       0.0
16 H  py              0.0       0.0       0.0       0.0       0.2       0.0
17 H  s               0.0       1.0       0.0       0.8       7.2       0.5
17 H  pz              0.0       0.0       0.0       0.0       0.2       0.0
17 H  py              0.0       0.0       0.0       0.0       0.4       0.0
18 H  s               0.0       1.3       1.9       1.0       0.3       1.9
19 H  s               0.0       1.3       2.3       0.6       0.4       1.0
20 H  s               0.0       0.4       2.6       2.1       0.1       2.6
21 H  s               0.0       0.4       2.3       2.4       0.0       2.7
22 H  s               0.0       0.4       2.7       2.4       0.0       2.5

                     12        13        14        15        16        17   
                  -0.57661  -0.48976  -0.43511  -0.42653  -0.41123  -0.38850
                   2.00000   2.00000   2.00000   2.00000   2.00000   2.00000
                  --------  --------  --------  --------  --------  --------
 0 C  s               8.2       0.4       0.1       0.0       0.2       0.1
 0 C  pz              1.0       0.8       1.6       7.8       3.1       7.1
 0 C  px              0.0       1.9       6.5       0.7       1.5       0.0
 0 C  py              3.8       1.7       0.9       0.2       9.0       0.7
 1 C  s               9.1       2.6       0.2       0.3       0.3       0.2
 1 C  pz              0.6       0.1       4.1       9.7       8.0       0.5
 1 C  px              0.6      10.2       5.6       1.4       0.2       0.3
 1 C  py              4.5       0.3       0.8       6.1       0.1       2.9
 2 C  s               0.0      11.6       0.3       0.0       0.5       0.1
 2 C  pz              1.4       0.2       0.2       3.7       1.7       4.4
 2 C  px              8.5       0.1       2.6       4.3       1.2       2.8
 2 C  py              0.0       0.1       5.7       0.8       5.9       0.0
 3 C  s               0.0       0.6       0.3       0.0       0.5       0.0
 3 C  pz              0.2       2.3       3.0       3.3       6.0       5.7
 3 C  px              1.3       0.3       3.8       2.5       0.0       3.4
 3 C  py              0.0       3.1       0.1       0.6       4.4      16.3
 3 C  dyz             0.0       0.1       0.1       0.0       0.1       0.0
 4 C  s               0.1       2.7       0.5       0.1       0.2       0.1
 4 C  pz              0.0       7.6       6.8       0.1       0.7       7.2
 4 C  px              0.4       1.2       0.0      13.6       0.5       0.0
 4 C  py              0.0       2.5       0.6       0.1      14.6       1.0
 4 C  dz2             0.0       0.1       0.0       0.0       0.0       0.0
 4 C  dxz             0.0       0.1       0.0       0.0       0.0       0.0
 5 C  s               7.1       3.1       0.0       0.6       0.2       0.2
 5 C  pz              1.8       8.1       0.0       3.3       3.5       2.9
 5 C  px              0.7       2.4       9.8       0.6       0.4       0.1
 5 C  py              1.8       1.1       9.0       4.7       0.6       4.4
 5 C  dxy             0.0       0.2       0.0       0.0       0.0       0.0
 6 C  s               8.7       0.5       0.0       0.0       0.1       0.1
 6 C  pz              1.2       3.8       0.3       6.1       2.4       0.2
 6 C  px              1.8       0.1       5.2       0.4       1.3      10.2
 6 C  py              1.5       0.6       4.3       1.0       5.6       0.3
 7 H  s               3.2       0.9       0.0       3.1       1.6       2.9
 7 H  pz              0.2       0.0       0.0       0.1       0.0       0.0
 8 H  s               3.3       0.8       2.0       0.5       3.1       0.3
 8 H  pz              0.1       0.0       0.0       0.0       0.0       0.0
 9 H  s               3.0       0.0       1.8       0.0       1.7       0.5
 9 H  px              0.2       0.0       0.0       0.0       0.1       0.0
10 H  s               3.2       3.4       0.1       6.0       1.6       0.0
10 H  pz              0.2       0.2       0.0       0.2       0.0       0.0
11 H  s               4.2       3.0       3.4       1.4       0.9       0.0
11 H  pz              0.1       0.1       0.0       0.0       0.0       0.0
11 H  px              0.1       0.0       0.0       0.1       0.0       0.0
11 H  py              0.1       0.1       0.1       0.0       0.0       0.0
12 H  s               0.1       0.8       0.5       2.1       0.3       1.9
12 H  px              0.0       0.0       0.0       0.0       0.0       0.2
13 H  s               0.0       1.1       2.5       0.6       1.8       5.7
13 H  pz              0.0       0.0       0.1       0.0       0.0       0.2
14 H  s               0.1       0.8       0.2       0.5       1.6       5.5
14 H  px              0.0       0.0       0.0       0.0       0.1       0.1
15 H  s               0.1       2.6       0.0       3.9       0.9       0.1
16 H  s               0.0       3.0       0.6       1.9       2.9       0.3
16 H  px              0.0       0.1       0.0       0.0       0.1       0.0
17 H  s               0.0       1.6       3.0       0.3       4.2       3.0
17 H  py              0.0       0.1       0.1       0.0       0.0       0.1
18 H  s               2.4       3.5       3.8       2.1       0.9       0.2
18 H  pz              0.1       0.0       0.1       0.0       0.0       0.0
18 H  px              0.0       0.1       0.0       0.1       0.0       0.0
18 H  py              0.1       0.0       0.0       0.0       0.0       0.0
19 H  s               3.2       3.9       4.0       0.2       0.0       1.4
19 H  pz              0.1       0.0       0.1       0.0       0.0       0.0
19 H  px              0.1       0.0       0.0       0.0       0.0       0.0
19 H  py              0.1       0.1       0.0       0.1       0.0       0.0
20 H  s               3.3       0.5       1.8       2.2       0.4       3.0
20 H  py              0.1       0.0       0.0       0.0       0.0       0.0
21 H  s               3.0       1.5       2.4       0.2       0.0       0.8
21 H  px              0.1       0.0       0.0       0.0       0.0       0.0
22 H  s               3.3       0.0       0.1       0.8       3.6       0.8
22 H  pz              0.1       0.0       0.0       0.0       0.0       0.0

                     18        19        20        21        22        23   
                  -0.37320  -0.36903  -0.34992  -0.34496  -0.32965  -0.32651
                   2.00000   2.00000   2.00000   2.00000   2.00000   2.00000
                  --------  --------  --------  --------  --------  --------
 0 C  s               0.0       0.1       0.0       0.0       0.3       0.0
 0 C  pz              6.0       3.0       3.9       1.6       0.0       1.5
 0 C  px              1.8      15.1      20.1       0.0       3.5       1.5
 0 C  py              4.1       3.4       0.1       0.8      10.2       0.5
 0 C  dz2             0.0       0.0       0.1       0.0       0.0       0.0
 0 C  dyz             0.0       0.0       0.0       0.0       0.2       0.0
 0 C  dx2y2           0.0       0.2       0.0       0.0       0.0       0.0
 1 C  s               0.0       0.7       0.2       0.0       0.1       0.0
 1 C  pz              3.1       0.2       0.0       0.1       1.7       1.2
 1 C  px              1.7       5.6       0.1       0.5       4.2       0.4
 1 C  py              0.1       4.3       1.6       0.0       7.1       0.6
 1 C  dyz             0.0       0.0       0.0       0.0       0.2       0.0
 1 C  dxy             0.0       0.0       0.1       0.0       0.0       0.0
 2 C  s               0.0       0.0       0.8       0.2       0.0       0.0
 2 C  pz              2.1       0.2       2.4       0.3       0.2       1.2
 2 C  px              1.1       0.3       0.6       0.0       0.0       0.3
 2 C  py              0.1       0.1       0.4       0.1       2.5       0.3
 2 C  dz2             0.0       0.0       0.2       0.0       0.0       0.0
 2 C  dxz             0.0       0.0       0.0       0.2       0.0       0.0
 2 C  dxy             0.0       0.3       0.0       0.0       0.0       0.0
 3 C  pz              2.4       1.2       2.5       0.1       1.3      14.8
 3 C  px             12.3      11.3       0.5       4.6       2.0       0.7
 3 C  py              2.0       0.2       0.0       0.0       0.0       6.3
 3 C  dz2             0.0       0.0       0.0       0.0       0.0       0.3
 3 C  dxz             0.0       0.0       0.0       0.0       0.0       0.2
 3 C  dxy             0.1       0.1       0.0       0.0       0.0       0.0
 4 C  s               0.0       0.0       0.3       0.1       0.0       0.1
 4 C  pz              0.0       0.1       0.2       5.4       0.1       2.5
 4 C  px              0.7       0.9       7.1      21.9       0.8       0.4
 4 C  py              0.7       0.1      11.9       1.3      16.4       2.5
 4 C  dyz             0.0       0.0       0.0       0.0       0.2       0.1
 4 C  dxy             0.0       0.0       0.0       0.4       0.0       0.0
 5 C  s               0.1       0.6       0.1       0.2       0.1       0.0
 5 C  pz              0.9       3.3       0.3       0.1       1.7       5.6
 5 C  px              7.6       0.9       0.0       0.0       2.9       7.5
 5 C  py              0.1       1.4       0.2       2.2       0.9       0.1
 5 C  dyz             0.0       0.0       0.0       0.1       0.0       0.1
 6 C  s               0.0       0.0       0.0       0.0       0.2       0.2
 6 C  pz              0.7       3.8       5.7      15.0       0.2       4.9
 6 C  px              1.6      10.4       0.9       1.9       1.7       8.6
 6 C  py             17.8       1.0       1.0       1.1       4.1       0.1
 6 C  dxz             0.2       0.0       0.0       0.0       0.1       0.0
 6 C  dyz             0.0       0.1       0.0       0.1       0.0       0.1
 6 C  dxy             0.0       0.0       0.1       0.2       0.0       0.1
 7 H  s               1.1       0.1       7.3       0.9       0.2       0.4
 7 H  pz              0.0       0.1       0.2       0.0       0.0       0.0
 8 H  s               4.9       0.9       0.5       0.9       5.3       2.1
 8 H  px              0.1       0.0       0.1       0.0       0.0       0.0
 8 H  py              0.1       0.1       0.0       0.0       0.0       0.0
 9 H  s               0.4       9.5       8.4       0.0       0.6       0.7
 9 H  px              0.0       0.1       0.1       0.0       0.0       0.0
 9 H  py              0.1       0.0       0.0       0.0       0.1       0.0
10 H  s               0.4       0.1       0.1       0.0       1.6       0.2
11 H  s               1.6       1.5       1.0       0.3       2.8       1.1
11 H  pz              0.0       0.0       0.0       0.0       0.1       0.0
12 H  s               7.1       2.9       0.4       1.3       0.1       4.0
12 H  px              0.0       0.0       0.0       0.0       0.0       0.2
13 H  s               0.2       0.0       0.8       0.1       1.5      11.5
13 H  pz              0.0       0.0       0.0       0.0       0.0       0.1
13 H  px              0.1       0.1       0.0       0.0       0.0       0.0
14 H  s               2.3       4.7       0.4       1.3       0.8       1.5
14 H  pz              0.0       0.0       0.0       0.0       0.0       0.1
14 H  py              0.1       0.1       0.0       0.0       0.0       0.0
15 H  s               0.7       0.1       7.7       8.7       0.8       0.3
15 H  px              0.0       0.0       0.1       0.1       0.1       0.0
15 H  py              0.0       0.0       0.0       0.2       0.1       0.0
16 H  s               0.0       0.3       0.0      11.7       5.4       0.4
16 H  py              0.0       0.0       0.1       0.2       0.0       0.0
17 H  s               0.0       0.0       3.0       0.0       7.4       3.3
17 H  pz              0.0       0.0       0.1       0.1       0.1       0.0
17 H  px              0.0       0.0       0.1       0.1       0.0       0.0
18 H  s               1.3       0.2       0.0       0.1       0.4       5.0
18 H  py              0.0       0.0       0.0       0.0       0.0       0.1
19 H  s               0.9       1.6       0.5       1.6       2.9       0.0
20 H  s               2.7       0.1       0.9       1.6       3.2       5.2
20 H  pz              0.1       0.0       0.0       0.0       0.0       0.0
20 H  px              0.0       0.1       0.0       0.1       0.0       0.0
21 H  s               5.9       1.9       1.4       3.9       1.8       0.1
21 H  pz              0.1       0.0       0.0       0.0       0.0       0.1
21 H  py              0.0       0.1       0.0       0.1       0.0       0.0
22 H  s               1.0       5.5       3.9       7.4       0.2       0.0

                     24        25        26        27        28        29   
                  -0.31219  -0.30418  -0.27877  -0.27504  -0.26796   0.07820
                   2.00000   2.00000   2.00000   2.00000   2.00000   0.00000
                  --------  --------  --------  --------  --------  --------
 0 C  s               0.1       0.1       0.1       0.2       0.0       8.4
 0 C  pz             12.4       1.2       3.1       0.7       0.5       0.2
 0 C  px              0.1       0.0       0.4       0.0       4.4       0.1
 0 C  py              1.3       8.7       0.1       5.0       0.2       1.1
 0 C  dz2             0.1       0.1       0.1       0.0       0.0       0.0
 0 C  dxz             0.1       0.1       0.1       0.0       0.0       0.1
 0 C  dyz             0.0       0.1       0.0       0.0       0.0       0.2
 0 C  dx2y2           0.1       0.0       0.0       0.0       0.1       0.1
 0 C  dxy             0.0       0.0       0.0       0.0       0.3       0.1
 1 C  s               0.0       0.0       0.2       0.1       0.8       8.0
 1 C  pz             13.1       3.5       5.5       0.2       1.3       0.3
 1 C  px              0.0       0.2       2.0       0.1      17.2       2.7
 1 C  py              1.2      11.0       0.4       4.7       0.9       0.2
 1 C  dz2             0.1       0.1       0.1       0.0       0.0       0.1
 1 C  dxz             0.1       0.1       0.4       0.0       0.0       0.0
 1 C  dyz             0.0       0.2       0.1       0.1       0.0       0.2
 1 C  dx2y2           0.1       0.0       0.0       0.2       0.0       0.0
 1 C  dxy             0.0       0.0       0.0       0.1       0.4       0.1
 2 C  s               0.0       0.0       0.1       0.1       0.0       2.7
 2 C  pz              0.3       1.2      15.2       0.0       3.4       0.1
 2 C  px              0.4       1.7       3.1       2.6      15.1       0.2
 2 C  py              0.3       0.3       0.4      19.3       1.7       0.3
 2 C  dz2             0.1       0.0       0.3       0.0       0.1       0.0
 2 C  dxz             0.0       0.0       0.2       0.2       0.0       0.0
 2 C  dyz             0.0       0.0       0.4       0.4       0.0       0.2
 2 C  dx2y2           0.0       0.0       0.0       0.2       0.1       0.1
 2 C  dxy             0.0       0.0       0.1       0.0       0.5       0.0
 3 C  s               0.0       0.0       0.5       1.1       0.2       3.7
 3 C  pz              0.0       3.2       5.0       2.0       0.9       1.2
 3 C  px              7.9       3.7       1.0       1.2       0.7       0.2
 3 C  py              0.4       0.2       1.4      12.8       1.4       2.2
 3 C  dz2             0.0       0.0       0.2       0.1       0.0       0.0
 3 C  dyz             0.0       0.0       0.0       0.1       0.0       0.3
 3 C  dx2y2           0.0       0.0       0.1       0.0       0.0       0.1
 3 C  dxy             0.2       0.2       0.0       0.0       0.2       0.0
 4 C  s               0.0       0.0       0.9       0.0       0.0       9.5
 4 C  pz              1.0       0.8      17.7       0.2       0.3       0.4
 4 C  px              0.8       1.3       4.4       0.2       1.8       0.5
 4 C  py              0.4       0.0       0.5       2.8       0.4       0.7
 4 C  dz2             0.0       0.0       0.0       0.0       0.1       0.1
 4 C  dxz             0.0       0.0       0.0       0.1       0.0       0.2
 4 C  dyz             0.0       0.0       0.1       0.2       0.0       0.0
 4 C  dxy             0.0       0.1       0.0       0.0       0.2       0.0
 5 C  s               0.1       0.1       0.2       0.4       0.2       8.2
 5 C  pz              8.2       0.7       5.9       2.4       3.5       3.0
 5 C  px              0.5       3.1       0.3       2.9       7.8       0.0
 5 C  py              4.1       6.4       0.1      12.1       0.4       0.1
 5 C  dz2             0.0       0.0       0.1       0.0       0.0       0.0
 5 C  dxz             0.1       0.2       0.0       0.4       0.1       0.0
 5 C  dyz             0.0       0.1       0.1       0.0       0.3       0.0
 5 C  dxy             0.2       0.0       0.3       0.0       0.2       0.3
 6 C  s               0.3       0.0       0.2       0.1       0.0       4.8
 6 C  pz              5.8       0.3       3.1       0.2       1.3       0.6
 6 C  px              0.7       3.1       1.4       2.4       2.7       0.4
 6 C  py              5.6       4.8       0.1       4.9       0.5       0.2
 6 C  dxz             0.1       0.2       0.0       0.2       0.0       0.1
 6 C  dyz             0.0       0.1       0.0       0.0       0.2       0.2
 6 C  dxy             0.1       0.0       0.1       0.1       0.1       0.0
 7 H  s               6.2       1.9       2.5       0.0       0.3       1.3
 7 H  pz              0.0       0.0       0.0       0.0       0.0       0.3
 7 H  py              0.0       0.1       0.0       0.1       0.0       0.3
 8 H  s               1.2       4.6       0.4       0.6       1.3       1.7
 8 H  pz              0.0       0.0       0.0       0.0       0.0       0.7
 8 H  px              0.0       0.1       0.0       0.0       0.0       0.2
 9 H  s               0.2       0.3       0.1       0.3       4.6       1.3
 9 H  pz              0.1       0.0       0.0       0.0       0.0       0.0
 9 H  px              0.0       0.0       0.0       0.0       0.0       0.6
10 H  s               6.7       3.6       7.1       0.0       0.1       2.2
10 H  pz              0.0       0.0       0.0       0.0       0.0       1.0
10 H  px              0.1       0.0       0.0       0.0       0.2       0.0
10 H  py              0.1       0.1       0.0       0.1       0.0       0.1
11 H  s               0.9       6.0       0.7       2.2       3.9       2.3
11 H  pz              0.1       0.0       0.0       0.0       0.0       0.5
11 H  px              0.0       0.1       0.0       0.0       0.1       0.1
11 H  py              0.0       0.0       0.0       0.0       0.1       0.5
12 H  s               2.3       2.7       0.0       2.9       0.3       1.2
12 H  pz              0.0       0.0       0.0       0.1       0.0       0.5
12 H  px              0.0       0.0       0.0       0.0       0.0       0.2
13 H  s               0.6       0.4       3.1       0.0       0.0       1.4
13 H  pz              0.0       0.0       0.0       0.0       0.0       0.2
13 H  py              0.0       0.0       0.0       0.1       0.0       0.5
14 H  s               5.1       2.7       0.1       0.4       1.6       1.1
14 H  px              0.0       0.0       0.0       0.0       0.0       0.7
14 H  py              0.0       0.0       0.0       0.1       0.0       0.0
15 H  s               0.3       1.2       0.5       0.2       2.5       2.7
15 H  pz              0.0       0.0       0.2       0.0       0.0       0.3
15 H  px              0.0       0.0       0.0       0.0       0.0       0.6
15 H  py              0.0       0.0       0.0       0.0       0.0       0.1
16 H  s               1.0       0.7       0.1       1.9       0.6       1.7
16 H  pz              0.0       0.0       0.2       0.0       0.0       0.1
16 H  px              0.0       0.0       0.1       0.0       0.0       0.6
16 H  py              0.0       0.0       0.0       0.0       0.0       0.2
17 H  s               0.0       0.3       2.3       1.6       0.4       1.0
17 H  py              0.0       0.0       0.1       0.0       0.0       0.6
18 H  s               0.6       5.8       3.8       2.4       0.7       2.7
18 H  pz              0.0       0.0       0.0       0.0       0.1       0.1
18 H  px              0.0       0.0       0.0       0.1       0.0       0.6
18 H  py              0.1       0.0       0.0       0.0       0.0       0.5
19 H  s               3.6       2.7       0.2       0.5       6.9       2.0
19 H  px              0.1       0.0       0.0       0.0       0.0       0.4
19 H  py              0.0       0.0       0.0       0.1       0.1       0.6
20 H  s               0.1       5.5       1.1       0.6       0.5       0.8
20 H  py              0.1       0.0       0.0       0.0       0.0       0.5
21 H  s               3.3       2.5       0.2       0.0       3.2       0.5
21 H  px              0.1       0.0       0.0       0.0       0.0       0.4
22 H  s               0.0       0.4       0.2       3.8       1.4       0.8
22 H  pz              0.1       0.0       0.0       0.1       0.0       0.2

                     30        31        32        33        34        35   
                   0.09924   0.11795   0.12109   0.12832   0.13634   0.13888
                   0.00000   0.00000   0.00000   0.00000   0.00000   0.00000
                  --------  --------  --------  --------  --------  --------
[...]
 4 C  dxy             0.2       0.1       0.0       0.0       0.0       0.0
 5 C  s               0.1       1.7       1.9      14.7      11.8       4.9
 5 C  pz              0.1       3.7       0.0       0.0       0.0       0.0
 5 C  px              2.9       0.6       0.0       0.0       0.0       0.0
 5 C  py              1.0       1.7       0.0       0.0       0.0       0.0
 5 C  dxz             1.5       2.4       0.0       0.0       0.0       0.0
 5 C  dyz             5.8       1.5       0.0       0.0       0.0       0.0
 5 C  dxy             0.0       6.1       0.0       0.0       0.0       0.0
 6 C  s               0.2       0.6      41.8       2.2      33.6      13.6
 6 C  pz              0.3       0.7       0.0       0.0       0.0       0.0
 6 C  px              1.0       0.6       0.0       0.0       0.0       0.0
 6 C  py              0.3       0.9       0.0       0.0       0.0       0.0
 6 C  dxz             0.0       1.6       0.0       0.0       0.0       0.0
 6 C  dyz             3.1       0.0       0.0       0.0       0.0       0.0
 6 C  dxy             0.3       1.4       0.0       0.0       0.0       0.0
 7 H  s               1.4       0.0       0.0       0.0       0.0       0.0
 7 H  pz              2.7       0.0       0.0       0.0       0.0       0.0
 7 H  px              0.6       0.0       0.0       0.0       0.0       0.0
 8 H  s               0.3       0.4       0.0       0.0       0.0       0.0
 8 H  pz              0.1       0.2       0.0       0.0       0.0       0.0
 8 H  px              0.1       0.3       0.0       0.0       0.0       0.0
 8 H  py              0.5       0.5       0.0       0.0       0.0       0.0
 9 H  s               0.1       0.1       0.0       0.0       0.0       0.0
 9 H  px              0.2       0.1       0.0       0.0       0.0       0.0
 9 H  py              0.1       0.1       0.0       0.0       0.0       0.0
10 H  s               4.3       0.1       0.0       0.0       0.0       0.0
10 H  pz              8.9       0.7       0.0       0.0       0.0       0.0
10 H  px              2.2       0.0       0.0       0.0       0.0       0.0
10 H  py              0.0       0.1       0.0       0.0       0.0       0.0
11 H  s               1.1       2.2       0.0       0.0       0.0       0.0
11 H  pz              0.2       1.9       0.0       0.0       0.0       0.0
11 H  px              1.3       1.3       0.0       0.0       0.0       0.0
11 H  py              0.7       3.2       0.0       0.0       0.0       0.0
12 H  s               0.2       0.0       0.0       0.0       0.0       0.0
12 H  px              0.2       0.0       0.0       0.0       0.0       0.0
12 H  py              0.2       0.0       0.0       0.0       0.0       0.0
13 H  s               0.0       0.3       0.0       0.0       0.0       0.0
13 H  pz              0.0       0.5       0.0       0.0       0.0       0.0
14 H  s               0.6       0.4       0.0       0.0       0.0       0.0
14 H  px              1.0       0.9       0.0       0.0       0.0       0.0
14 H  py              0.6       0.1       0.0       0.0       0.0       0.0
15 H  s               0.1       0.7       0.0       0.0       0.0       0.0
15 H  pz              0.0       0.1       0.0       0.0       0.0       0.0
15 H  px              0.4       1.7       0.0       0.0       0.0       0.0
15 H  py              0.0       0.3       0.0       0.0       0.0       0.0
16 H  s               0.5       0.2       0.0       0.0       0.0       0.0
16 H  pz              0.2       0.1       0.0       0.0       0.0       0.0
16 H  px              0.8       0.5       0.0       0.0       0.0       0.0
16 H  py              0.3       0.1       0.0       0.0       0.0       0.0
17 H  s               0.3       0.4       0.0       0.0       0.0       0.0
17 H  pz              0.4       0.3       0.0       0.0       0.0       0.0
17 H  px              0.2       0.0       0.0       0.0       0.0       0.0
17 H  py              0.1       0.2       0.0       0.0       0.0       0.0
18 H  s               2.2       0.1       0.0       0.0       0.0       0.0
18 H  pz              1.9       0.3       0.0       0.0       0.0       0.0
18 H  px              1.1       0.0       0.0       0.0       0.0       0.0
18 H  py              1.3       0.1       0.0       0.0       0.0       0.0
19 H  s               1.8       3.9       0.0       0.0       0.0       0.0
19 H  pz              2.0       2.6       0.0       0.0       0.0       0.0
19 H  px              0.7       4.3       0.0       0.0       0.0       0.0
19 H  py              1.4       3.8       0.0       0.0       0.0       0.0
20 H  pz              0.1       0.0       0.0       0.0       0.0       0.0
20 H  py              0.1       0.3       0.0       0.0       0.0       0.0
21 H  s               0.6       0.4       0.0       0.0       0.0       0.0
21 H  pz              0.4       0.5       0.0       0.0       0.0       0.0
21 H  px              0.1       0.6       0.0       0.0       0.0       0.0
21 H  py              1.1       0.3       0.0       0.0       0.0       0.0
22 H  s               0.9       0.0       0.0       0.0       0.0       0.0
22 H  pz              0.9       0.3       0.0       0.0       0.0       0.0
22 H  px              0.8       0.0       0.0       0.0       0.0       0.0
22 H  py              0.5       0.0       0.0       0.0       0.0       0.0

                    210       211       212   
                  22.09929  22.14026  22.19970
                   0.00000   0.00000   0.00000
                  --------  --------  --------
 0 C  s               0.5       0.4       0.9
 1 C  s               2.3      45.5       0.3
 2 C  s               2.5       0.9      85.2
 3 C  s               3.8      10.6       3.7
 4 C  s              34.6      23.6       9.2
 5 C  s              48.6      17.7       0.2
 6 C  s               7.3       0.9       0.2


                      *****************************
                      * MAYER POPULATION ANALYSIS *
                      *****************************

  NA   - Mulliken gross atomic population
  ZA   - Total nuclear charge
  QA   - Mulliken gross atomic charge
  VA   - Mayer's total valence
  BVA  - Mayer's bonded valence
  FA   - Mayer's free valence

  ATOM       NA         ZA         QA         VA         BVA        FA
  0 C      6.5341     6.0000    -0.5341     3.8200     3.8200    -0.0000
  1 C      6.2503     6.0000    -0.2503     3.5044     3.5044    -0.0000
  2 C      5.7888     6.0000     0.2112     3.3052     3.3052     0.0000
  3 C      6.5093     6.0000    -0.5093     3.7167     3.7167     0.0000
  4 C      6.5486     6.0000    -0.5486     3.7095     3.7095    -0.0000
  5 C      6.3292     6.0000    -0.3292     3.5677     3.5677     0.0000
  6 C      6.4882     6.0000    -0.4882     3.7927     3.7927     0.0000
  7 H      0.8432     1.0000     0.1568     0.9594     0.9594    -0.0000
  8 H      0.8447     1.0000     0.1553     0.9582     0.9582     0.0000
  9 H      0.8533     1.0000     0.1467     0.9616     0.9616    -0.0000
 10 H      0.8504     1.0000     0.1496     0.9624     0.9624    -0.0000
 11 H      0.8559     1.0000     0.1441     0.9663     0.9663    -0.0000
 12 H      0.8503     1.0000     0.1497     0.9647     0.9647     0.0000
 13 H      0.8459     1.0000     0.1541     0.9632     0.9632     0.0000
 14 H      0.8463     1.0000     0.1537     0.9631     0.9631    -0.0000
 15 H      0.8398     1.0000     0.1602     0.9603     0.9603    -0.0000
 16 H      0.8486     1.0000     0.1514     0.9649     0.9649     0.0000
 17 H      0.8395     1.0000     0.1605     0.9583     0.9583     0.0000
 18 H      0.8464     1.0000     0.1536     0.9616     0.9616    -0.0000
 19 H      0.8478     1.0000     0.1522     0.9601     0.9601     0.0000
 20 H      0.8479     1.0000     0.1521     0.9611     0.9611     0.0000
 21 H      0.8374     1.0000     0.1626     0.9582     0.9582     0.0000
 22 H      0.8538     1.0000     0.1462     0.9620     0.9620     0.0000

  Mayer bond orders larger than 0.100000
B(  0-C ,  1-C ) :   0.8651 B(  0-C ,  7-H ) :   0.9908 B(  0-C ,  8-H ) :   0.9793 
B(  0-C ,  9-H ) :   0.9680 B(  1-C ,  2-C ) :   0.8920 B(  1-C , 10-H ) :   0.9744 
B(  1-C , 11-H ) :   0.9814 B(  2-C ,  3-C ) :   0.9365 B(  2-C ,  4-C ) :   0.9045 
B(  2-C ,  5-C ) :   0.8487 B(  3-C , 12-H ) :   0.9788 B(  3-C , 13-H ) :   0.9789 
B(  3-C , 14-H ) :   0.9780 B(  4-C , 15-H ) :   0.9820 B(  4-C , 16-H ) :   0.9740 
B(  4-C , 17-H ) :   0.9676 B(  5-C ,  6-C ) :   0.8805 B(  5-C , 18-H ) :   0.9814 
B(  5-C , 19-H ) :   0.9753 B(  6-C , 20-H ) :   0.9753 B(  6-C , 21-H ) :   0.9821 
B(  6-C , 22-H ) :   0.9738 

-------
TIMINGS
-------

Total SCF time: 0 days 0 hours 0 min 19 sec 

Total time                  ....      19.208 sec
Sum of individual times     ....      18.805 sec  ( 97.9%)

SCF preparation             ....       0.204 sec  (  1.1%)
Fock matrix formation       ....      17.811 sec  ( 92.7%)
  Startup                   ....       0.051 sec  (  0.3% of F)
  Split-RI-J                ....       3.498 sec  ( 19.6% of F)
  XC integration            ....      13.844 sec  ( 77.7% of F)
    XC Preparation          ....       0.000 sec  (  0.0% of XC)
    Basis function eval.    ....       2.543 sec  ( 18.4% of XC)
    Density eval.           ....       4.213 sec  ( 30.4% of XC)
    XC-Functional eval.     ....       1.684 sec  ( 12.2% of XC)
    XC-Potential eval.      ....       4.726 sec  ( 34.1% of XC)
Diagonalization             ....       0.000 sec  (  0.0%)
Density matrix formation    ....       0.171 sec  (  0.9%)
Total Energy calculation    ....       0.025 sec  (  0.1%)
Population analysis         ....       0.161 sec  (  0.8%)
Orbital Transformation      ....       0.064 sec  (  0.3%)
Orbital Orthonormalization  ....       0.000 sec  (  0.0%)
DIIS solution               ....       0.317 sec  (  1.7%)
  MO trafo                  ....       0.000 sec  (  0.0 % of DIIS)
  Orb grad                  ....       0.000 sec  (  0.0 % of DIIS)
  Energy W gradient         ....       0.000 sec  (  0.0 % of DIIS)
  DIIS error                ....       0.017 sec  (  5.2 % of DIIS)
  DIIS work                 ....       0.253 sec  ( 79.8 % of DIIS)
  Form Q                    ....       0.000 sec  (  0.0 % of DIIS)
  Form QpQm                 ....       0.000 sec  (  0.0 % of DIIS)
  Exp/Cayley                ....       0.000 sec  (  0.0 % of DIIS)
  Orb update                ....       0.000 sec  (  0.0 % of DIIS)
  Wake-sleep                ....       0.015 sec  (  4.8 % of DIIS)
SOSCF solution              ....       0.052 sec  (  0.3%)
  MO trafo                  ....       0.040 sec  ( 76.5 % of SOSCF)
  Orb grad                  ....       0.001 sec  (  1.1 % of SOSCF)
  Rot update                ....       0.000 sec  (  0.1 % of SOSCF)
  Step                      ....       0.012 sec  ( 22.2 % of SOSCF)
Finished LeanSCF after  19.3 sec

Maximum memory used throughout the entire LEANSCF-calculation: 25.0 MB


-------------------------------------------------------------------------------
                          DFT DISPERSION CORRECTION                            
                                                                               
                                DFTD4 V3.4.0                                   
-------------------------------------------------------------------------------
The R2SCAN3C composite method is recognized
Using three-body term ABC
Active option DFTDOPT                   ...         5   

-------------------------   ----------------
Dispersion correction           -0.006823373
-------------------------   ----------------

------------------   -----------------
gCP correction             0.011467264
------------------   -----------------

-------------------------   --------------------
FINAL SINGLE POINT ENERGY      -276.284530088865
-------------------------   --------------------


------------------------------------------------------------------------------
                              ORCA PROPERTY CALCULATIONS
------------------------------------------------------------------------------

GBWName                                 ... sp_gas.gbw
Number of atoms                         ...     23
Number of basis functions               ...    213
Max core memory                         ...   1024 MB

Electric properties:
Dipole moment                           ... YES
Quadrupole moment                       ...  NO
Static polarizability (Dipole/Dipole)   ...  NO
Static polarizability (Dipole/Quad.)    ...  NO
Static polarizability (Quad./Quad.)     ...  NO
Static polarizability (Velocity)        ...  NO

Atomic electric properties:
Dipole moment                           ...  NO
Quadrupole moment                       ...  NO
Static polarizability                   ...  NO

Choice of electric origin               ... Center of mass
Position of electric origin             ...    -0.000001     0.000001     0.000002

General magnetic properties:
Magnetizability                         ...  NO

EPR properties:
g-Tensor (aka g-matrix)                 ...  NO
Zero-Field splitting spin-orbit         ...  NO
Zero-field splitting spin-spin          ...  NO
Hyperfine couplings                     ...  NO (   0 nuclei)
Quadrupole couplings                    ...  NO (   0 nuclei)
Contact density                         ...  NO (   0 nuclei)

NMR properties:
Chemical shifts                         ...  NO (   0 nuclei)
Spin-rotation constants                 ...  NO (   0 nuclei)
Spin-spin couplings                     ...  NO (   0 nuclei,    0 pairs)

Choice of magnetic origin               ... GIAO
Position of magnetic origin             ...     0.000000     0.000000     0.000000

Properties with geometric perturbations:
SCF Hessian                             ...  NO
IR spectrum                             ...  NO
VCD spectrum                            ...  NO
X-ray spectroscopy properties:
SCF XES/XAS/RIXS spectra                ...  NO


-------------
DIPOLE MOMENT
-------------

Method             : SCF
Type of density    : Electron Density
Multiplicity       :   1
Irrep              :   0
Energy             :  -276.2891739795779813 Eh
Relativity type    : 
Basis              : AO
                                X                 Y                 Z
Electronic contribution:      0.506351358      -0.663871761      -0.791577457
Nuclear contribution   :     -0.492115266       0.676616291       0.778846743
                        -----------------------------------------
Total Dipole Moment    :      0.014236092       0.012744529      -0.012730715
                        -----------------------------------------
Magnitude (a.u.)       :      0.022959974
Magnitude (Debye)      :      0.058359617



--------------------
Rotational spectrum 
--------------------
 
Rotational constants in cm-1:             0.082257             0.080936             0.057696 
Rotational constants in MHz :          2465.996362          2426.406063          1729.675258 

Dipole components along the rotational axes: 
x,y,z [a.u.] :    -0.002520     0.012635    -0.019004 
x,y,z [Debye]:    -0.006404     0.032116    -0.048305 

 

Dipole moment calculation done in   0.0 sec 

Maximum memory used throughout the entire PROP-calculation: 13.8 MB

--------------------------------
SUGGESTED CITATIONS FOR THIS RUN
--------------------------------

Below you find a list of papers that are relevant to this ORCA run
We neither can nor want to force you to cite these papers, but we appreciate if you do
You receive ORCA, which is the product of decades of hard work by many enthusiastic individuals, for free
The only thing we kindly ask in return is that you cite our papers,
We deeply appreciate it, if you show your appreciation for ORCA by not just citing the generic ORCA reference.

Please note that relegating all ORCA citations to the supporting information does *not* help us.
SI sections are not indexed - citations you put there will not count into any citation statistics
But we need these citations in order to attract the funding resources that allow us to do what we are doing

Therefore, if you are a happy ORCA user, please consider citing a few of the papers listed below in the main body of your paper

In addition to the list printed below, the program has created the file sp_gas.bibtex that contains the list in bibtex format
You can import this file easily into all common literature databanks and citation aid programs


List of essential papers. We consider these as the minimum necessary citations

  1. Neese,F.
     Software update: the ORCA program system, version 5.0
     WIRES Comput. Molec. Sci., 2022 12(1)e1606
     doi.org/10.1002/wcms.1606
  2. Grimme,S.; Hansen,A.; Ehlert,S.; Mewes,J.
     r2SCAN-3c: A 'Swiss army knife' composite electronic-structure method
     J. Chem. Phys., 2021 154 064103
     doi.org/10.1063/5.0040021

List of papers to cite with high priority. The work reported in these papers was absolutely
necessary for this run to complete.
Our perspective: the developers of density functionals and basis sets usually get cited in chemistry papers
Good! But without the algorithms to do something with them, the functionals or basis sets would not do anything.
Hence, in our opinion, the algorithm design and method developments papers are equally worthy of getting cited

  1. Neese,F.
     An improvement of the resolution of the identity approximation for the formation of the Coulomb matrix
     J. Comp. Chem., 2003 24(14)1740-1747
     doi.org/10.1002/jcc.10318
  2. Neese,F.
     The SHARK Integral Generation and Digestion System
     J. Comp. Chem., 2022  1-16
     doi.org/10.1002/jcc.26942
  3. Lehtola,S.; Steigemann,C.; Oliveira,M.; Marques,M.
     Recent developments in Libxc - A comprehensive library of functionals for density functional theory
     Software X, 2018 7 
     doi.org/10.1016/j.softx.2017.11.002
  4. Caldeweyher,E.; Bannwarth,C.; Grimme,S.
     Extension of the D3 dispersion coefficient model
     J. Chem. Phys., 2017 147 034112-XXXX
     doi.org/10.1063/1.4993215
  5. Caldeweyher,E.; Ehlert,S.; Hansen,A.; Neugebauer,H.; Spicher,S.; Bannwarth,C.; Grimme,S.
     A generally applicable atomic-charge dependent London dispersion correction
     J. Chem. Phys., 2019 150 154122-XXXX
     doi.org/10.1063/1.5090222
  6. Caldeweyher,E.; Mewes,J.; Ehlert,S.; Grimme,S.
     Extension and evaluation of the D4 London-dispersion model for periodic systems
     Phys. Chem. Chem. Phys., 2020 22(16)8499-8512
     doi.org/10.1039/D0CP00502A

List of suggested additional citations. These are papers that are important in the 'surrounding' of 
of this run, or papers that preceded the highly important papers. If you like your results we are grateful for a citation.

  1. Neese,F.
     The ORCA program system
     WIRES Comput. Molec. Sci., 2012 2(1)73-78
     doi.org/10.1002/wcms.81
  2. Neese,F.
     Software update: the ORCA program system, version 4.0
     WIRES Comput. Molec. Sci., 2018 8(1)1-6
     doi.org/10.1002/wcms.1327
  3. Neese,F.; Wennmohs,F.; Becker,U.; Riplinger,C.
     The ORCA quantum chemistry program package
     J. Chem. Phys., 2020 152 Art. No. L224108
     doi.org/10.1063/5.0004608

List of optional additional citations

  1. Neese,F.
     Approximate second-order SCF convergence for spin unrestricted wavefunctions
     Chem. Phys. Lett., 2000 325(1-3)93-98
     doi.org/10.1016/s0009-2614(00)00662-x

Timings for individual modules:

Sum of individual times          ...       21.179 sec (=   0.353 min)
Startup calculation              ...        1.408 sec (=   0.023 min)   6.6 %
SCF iterations                   ...       19.649 sec (=   0.327 min)  92.8 %
Property calculations            ...        0.122 sec (=   0.002 min)   0.6 %
                             ****ORCA TERMINATED NORMALLY****
TOTAL RUN TIME: 0 days 0 hours 0 minutes 21 seconds 918 msec
