      -----------------------------------------------------------      
     |                   =====================                   |     
     |                           x T B                           |     
     |                   =====================                   |     
     |                         S. Grimme                         |     
     |          Mulliken Center for Theoretical Chemistry        |     
     |                    University of Bonn                     |     
      -----------------------------------------------------------      

   * xtb version 6.7.1 (edcfbbe) compiled by 'albert@albert-system' on 2024-07-22

   xtb is free software: you can redistribute it and/or modify it under
   the terms of the GNU Lesser General Public License as published by
   the Free Software Foundation, either version 3 of the License, or
   (at your option) any later version.
   
   xtb is distributed in the hope that it will be useful,
   but WITHOUT ANY WARRANTY; without even the implied warranty of
   MERCHANTABILITY or FITNESS FOR A PARTICULAR PURPOSE.  See the
   GNU Lesser General Public License for more details.
   
   Cite this work as:
   * C. Bannwarth, E. Caldeweyher, S. Ehlert, A. Hansen, P. Pracht,
     J. Seibert, S. Spicher, S. Grimme, WIREs Comput. Mol. Sci., 2020, 11,
     e01493. DOI: 10.1002/wcms.1493
   
   for GFN2-xTB:
   * C. Bannwarth, S. Ehlert and S. Grimme., J. Chem. Theory Comput., 2019,
     15, 1652-1671. DOI: 10.1021/acs.jctc.8b01176
   for GFN1-xTB:
   * S. Grimme, C. Bannwarth, P. Shushkov, J. Chem. Theory Comput., 2017,
     13, 1989-2009. DOI: 10.1021/acs.jctc.7b00118
   for GFN0-xTB:
   * P. Pracht, E. Caldeweyher, S. Ehlert, S. Grimme, ChemRxiv, 2019, preprint.
     DOI: 10.26434/chemrxiv.8326202.v1
   for GFN-FF:
   * S. Spicher and S. Grimme, Angew. Chem. Int. Ed., 2020, 59, 15665-15673.
     DOI: 10.1002/anie.202004239
   
   for ALPB and GBSA implicit solvation:
   * S. Ehlert, M. Stahn, S. Spicher, S. Grimme, J. Chem. Theory Comput.,
     2021, 17, 4250-4261. DOI: 10.1021/acs.jctc.1c00471
   
   for ddCOSMO and CPCM-X implicit solvation:
   * M. Stahn, S. Ehlert, S. Grimme, J. Phys. Chem. A,
     2023, XX, XXXX-XXXX. DOI: 10.1021/acs.jpca.3c04382
   
   for DFT-D4:
   * E. Caldeweyher, C. Bannwarth and S. Grimme, J. Chem. Phys., 2017,
     147, 034112. DOI: 10.1063/1.4993215
   * E. Caldeweyher, S. Ehlert, A. Hansen, H. Neugebauer, S. Spicher,
     C. Bannwarth and S. Grimme, J. Chem. Phys., 2019, 150, 154122.
     DOI: 10.1063/1.5090222
   * E. Caldeweyher, J.-M. Mewes, S. Ehlert and S. Grimme, Phys. Chem. Chem. Phys.
     2020, 22, 8499-8512. DOI: 10.1039/D0CP00502A
   
   for sTDA-xTB:
   * S. Grimme and C. Bannwarth, J. Chem. Phys., 2016, 145, 054103.
     DOI: 10.1063/1.4959605
   
   in the mass-spec context:
   * V. Asgeirsson, C. Bauer and S. Grimme, Chem. Sci., 2017, 8, 4879.
     DOI: 10.1039/c7sc00601b
   * J. Koopman and S. Grimme, ACS Omega 2019, 4, 12, 15120-15133.
     DOI: 10.1021/acsomega.9b02011
   
   for metadynamics refer to:
   * S. Grimme, J. Chem. Theory Comput., 2019, 155, 2847-2862
     DOI: 10.1021/acs.jctc.9b00143
   
   for SPH calculations refer to:
   * S. Spicher and S. Grimme, J. Chem. Theory Comput., 2021, 17, 1701-1714
     DOI: 10.1021/acs.jctc.0c01306
   
   for ONIOM refer to:
   * C. Plett, A. Katbashev, S. Ehlert, S. Grimme, M. Bursch,
     Phys. Chem. Chem. Phys., 2023, 25, 17860-17868. DOI: 10.1039/D3CP02178E
   
   for DIPRO refer to:
   * J. Kohn, N. Gildemeister, S. Grimme, D. Fazzi, A. Hansen,
     J. Chem. Phys., 2023, just accepted.
   
   for PTB refer to:
   * S. Grimme, M. Mueller, A. Hansen, J. Chem. Phys., 2023, 158, 124111.
     DOI: 10.1063/5.0137838
   
   with help from (in alphabetical order)
   P. Atkinson, C. Bannwarth, F. Bohle, G. Brandenburg, E. Caldeweyher
   M. Checinski, S. Dohm, S. Ehlert, S. Ehrlich, I. Gerasimov, C. Hölzer
   A. Katbashev, J. Kohn, J. Koopman, C. Lavigne, S. Lehtola, F. März, M. Müller,
   F. Musil, H. Neugebauer, J. Pisarek, C. Plett, P. Pracht, F. Pultar,
   J. Seibert, P. Shushkov, S. Spicher, M. Stahn, M. Steiner, T. Strunk,
   J. Stückrath, T. Rose, and J. Unsleber
   
 * started run on 2025/04/11 at 12:11:08.677     
   ID    Z sym.   atoms
    1    6 C      1-4, 7
    2    8 O      5, 6
    3    1 H      8-17

           -------------------------------------------------
          |                Calculation Setup                |
           -------------------------------------------------

          program call               : /srv/scratch/z5358697/.xtb/bin/xtb xtb_opt.coord --opt normal --orca -I xtb_opt-xcontrol-inp
          hostname                   : k064
          coordinate file            : xtb_opt.coord
          omp threads                :                    16

           -------------------------------------------------
          |                   Orca driver                   |
           -------------------------------------------------
orca executable           : /apps/z_install_tree/linux-rocky8-ivybridge/gcc-12.2.0/orca-6.0.0-srtngmq3qlimg2qxbl6avaaiffipurdx/bin/orca
orca input file           : xtb_opt.inp
orca input line           : 
orca parallel             : true
orca number of threads    : 16
                         * ORCA takes the control...
  ------------------------------------------------------------------------

                                 *****************
                                 * O   R   C   A *
                                 *****************

                                            #,                                       
                                            ###                                      
                                            ####                                     
                                            #####                                    
                                            ######                                   
                                           ########,                                 
                                     ,,################,,,,,                         
                               ,,#################################,,                 
                          ,,##########################################,,             
                       ,#########################################, ''#####,          
                    ,#############################################,,   '####,        
                  ,##################################################,,,,####,       
                ,###########''''           ''''###############################       
              ,#####''   ,,,,##########,,,,          '''####'''          '####       
            ,##' ,,,,###########################,,,                        '##       
           ' ,,###''''                  '''############,,,                           
         ,,##''                                '''############,,,,        ,,,,,,###''
      ,#''                                            '''#######################'''  
     '                                                          ''''####''''         
             ,#######,   #######,   ,#######,      ##                                
            ,#'     '#,  ##    ##  ,#'     '#,    #''#        ,####,   ,####,        
            ##       ##  ##   ,#'  ##            #'  '#       #'       #'  '#        
            ##       ##  #######   ##           ,######,      #####,   #    #        
            '#,     ,#'  ##    ##  '#,     ,#' ,#      #,     #,   #   #,  ,#        
             '#######'   ##     ##  '#######'  #'      '#     '####' # '####'        



                #########################################################
                #                        -***-                          #
                #          Department of theory and spectroscopy        #
                #                                                       #
                #                      Frank Neese                      #
                #                                                       #
                #     Directorship, Architecture, Infrastructure        #
                #                    SHARK, DRIVERS                     #
                #        Core code/Algorithms in most modules           #
                #                                                       #
                #        Max Planck Institute fuer Kohlenforschung      #
                #                Kaiser Wilhelm Platz 1                 #
                #                 D-45470 Muelheim/Ruhr                 #
                #                      Germany                          #
                #                                                       #
                #                  All rights reserved                  #
                #                        -***-                          #
                #########################################################


                         Program Version 6.0.0  -   RELEASE  -


 With contributions from (in alphabetic order):
   Daniel Aravena         : Magnetic Suceptibility
   Michael Atanasov       : Ab Initio Ligand Field Theory (pilot matlab implementation)
   Alexander A. Auer      : GIAO ZORA, VPT2 properties, NMR spectrum
   Ute Becker             : All parallelization in ORCA, NUMFREQ, NUMCALC
   Giovanni Bistoni       : ED, misc. LED, open-shell LED, HFLD
   Martin Brehm           : Molecular dynamics
   Dmytro Bykov           : pre 5.0 version of the SCF Hessian
   Marcos Casanova-Páez   : Triplet and SCS-CIS(D). UHF-(DLPNO)-IP/EA/STEOM-CCSD. UHF-CVS-IP/STEOM-CCSD
   Vijay G. Chilkuri      : MRCI spin determinant printing, contributions to CSF-ICE
   Pauline Colinet        : FMM embedding
   Dipayan Datta          : RHF DLPNO-CCSD density
   Achintya Kumar Dutta   : EOM-CC, STEOM-CC
   Nicolas Foglia         : Exact transition moments, OPA infrastructure, MCD improvements
   Dmitry Ganyushin       : Spin-Orbit,Spin-Spin,Magnetic field MRCI
   Miquel Garcia          : C-PCM and meta-GGA Hessian, CCSD/C-PCM, Gaussian charge scheme
   Tiago L. C. Gouveia    : GS-ROHF, GS-ROCIS
   Yang Guo               : DLPNO-NEVPT2, F12-NEVPT2, CIM, IAO-localization
   Andreas Hansen         : Spin unrestricted coupled pair/coupled cluster methods
   Ingolf Harden          : AUTO-CI MPn and infrastructure 
   Benjamin Helmich-Paris : MC-RPA, TRAH-(SCF,CASSCF), AVAS, COSX integrals, SCF dyn. polar.
   Lee Huntington         : MR-EOM, pCC
   Robert Izsak           : Overlap fitted RIJCOSX, COSX-SCS-MP3, EOM
   Riya Kayal             : Wick's Theorem for AUTO-CI, AUTO-CI UHF-CCSDT
   Emily Kempfer          : AUTO-CI, RHF CISDT and CCSDT
   Christian Kollmar      : KDIIS, OOCD, Brueckner-CCSD(T), CCSD density, CASPT2, CASPT2-K, improved NEVPT2
   Axel Koslowski         : Symmetry handling
   Simone Kossmann        : Meta GGA functionals, TD-DFT gradient, OOMP2, (MP2 Hessian; deprecated post 5.0)
   Lucas Lang             : DCDCAS
   Marvin Lechner         : AUTO-CI (C++ implementation), FIC-MRCC
   Spencer Leger          : CASSCF response
   Dagmar Lenk            : GEPOL surface, SMD, ORCA-2-JSON
   Dimitrios Liakos       : Extrapolation schemes; Compound Job, initial MDCI parallelization
   Dimitrios Manganas     : Further ROCIS development; embedding schemes. LFT, Crystal Embedding
   Dimitrios Pantazis     : SARC Basis sets
   Anastasios Papadopoulos: AUTO-CI, single reference methods and gradients
   Taras Petrenko         : pre 6.0 DFT Hessian and TD-DFT gradient, (ASA, deprecated), ECA, 1-Electron XAS/XES, NRVS
   Peter Pinski           : DLPNO-MP2, DLPNO-MP2 Gradient
   Christoph Reimann      : Effective Core Potentials
   Marius Retegan         : Local ZFS, SOC
   Christoph Riplinger    : Optimizer, TS searches, QM/MM, DLPNO-CCSD(T), (RO)-DLPNO pert. Triples
   Michael Roemelt        : Original ROCIS implementation
   Masaaki Saitow         : Open-shell DLPNO-CCSD energy and density
   Barbara Sandhoefer     : DKH picture change effects
   Kantharuban Sivalingam : CASSCF convergence/infrastructure, NEVPT2 and variants, FIC-MRCI
   Bernardo de Souza      : ESD, SOC TD-DFT
   Georgi Stoychev        : AutoAux, RI-MP2 NMR, DLPNO-MP2 response, X2C
   Van Anh Tran           : RI-MP2 g-tensors
   Willem Van den Heuvel  : Paramagnetic NMR
   Zikuan Wang            : NOTCH, Electric field optimization 
   Frank Wennmohs         : Technical directorship and infrastructure
   Hang Xu                : AUTO-CI-Response properties 


 We gratefully acknowledge several colleagues who have allowed us to
 interface, adapt or use parts of their codes:
   Stefan Grimme, W. Hujo, H. Kruse, P. Pracht,  : VdW corrections, initial TS optimization,
                  C. Bannwarth, S. Ehlert,         DFT functionals, gCP, sTDA/sTD-DF
                  L. Wittmann, M. Mueller
   Ed Valeev, F. Pavosevic, A. Kumar             : LibInt (2-el integral package), F12 methods
   Garnet Chan, S. Sharma, J. Yang, R. Olivares  : DMRG
   Ulf Ekstrom                                   : XCFun DFT Library
   Mihaly Kallay                                 : mrcc  (arbitrary order and MRCC methods)
   Frank Weinhold                                : gennbo (NPA and NBO analysis)
   Simon Mueller                                 : openCOSMO-RS
   Christopher J. Cramer and Donald G. Truhlar   : smd solvation model
   Lars Goerigk                                  : TD-DFT with DH, B97 family of functionals
   V. Asgeirsson, H. Jonsson                     : NEB implementation
   FAccTs GmbH                                   : IRC, NEB, NEB-TS, DLPNO-Multilevel, CI-OPT
                                                   MM, QMMM, 2- and 3-layer-ONIOM, Crystal-QMMM,
                                                   LR-CPCM, SF, NACMEs, symmetry and pop. for TD-DFT,
                                                   nearIR, NL-DFT gradient (VV10), updates on ESD,
                                                   ML-optimized integration grids, MBIS, APM,
                                                   GOAT, DOCKER, SOLVATOR, interface openCOSMO-RS
   S Lehtola, MJT Oliveira, MAL Marques          : LibXC Library
   Liviu Ungur et al                             : ANISO software


 Your calculation uses the libint2 library for the computation of 2-el integrals
 For citations please refer to: http://libint.valeyev.net

 Your ORCA version has been built with support for libXC version: 6.2.2
 For citations please refer to: https://libxc.gitlab.io

 This ORCA versions uses:
   CBLAS   interface :  Fast vector & matrix operations
   LAPACKE interface :  Fast linear algebra routines
   SCALAPACK package :  Parallel linear algebra routines
   Shared memory     :  Shared parallel matrices
   BLAS/LAPACK       :  OpenBLAS 0.3.27  USE64BITINT DYNAMIC_ARCH NO_AFFINITY SkylakeX SINGLE_THREADED
        Core in use  :  SkylakeX
   Copyright (c) 2011-2014, The OpenBLAS Project




***************************************
The coordinates will be read from file: xtb_opt.xyz
***************************************


Your calculation utilizes the geometrical counterpoise correction gCP
Please cite in your paper:
H.Kruse, S. Grimme J.Chem.Phys., 136, (2012), 154101 
   

Your calculation utilizes the atom-pairwise dispersion correction
based on EEQ partial charges (D4)


Your calculation utilizes the SMD solvation module
Please cite in your paper:
A.V. Marenich, C.J. Cramer, D.G. Truhlar J. Phys. Chem. B, 113, (2009), 6378 

================================================================================

----- Orbital basis set information -----
Your calculation utilizes the basis: def2-mTZVPP
   Stefan Grimme, Andreas Hansen, Sebastian Ehlert, and Jan-Michael Mewes 
   J. Chem. Phys. 154, 064103 (2021). DOI: 10.1063/5.0040021

----- AuxJ basis set information -----
Your calculation utilizes the auxiliary basis: def2/J
   F. Weigend, Phys. Chem. Chem. Phys. 8, 1057 (2006).

================================================================================
                                        WARNINGS
                       Please study these warnings very carefully!
================================================================================

WARNING: Old DensityContainer found on disk!
         Will remove this file - 
         If you want to keep old densities, please start your calculation with a different basename. 

Using LibXC functional ID 497 : Re-regularized SCAN exchange by Furness et al
[ 1]  J. W. Furness, A. D. Kaplan, J. Ning, J. P. Perdew, and J. Sun.,  J. Phys. Chem. Lett. 11, 8208-8215 (2020)
[ 2]  J. W. Furness, A. D. Kaplan, J. Ning, J. P. Perdew, and J. Sun.,  J. Phys. Chem. Lett. 11, 9248-9248 (2020)
Using LibXC functional ID 498 : Re-regularized SCAN correlation by Furness et al
[ 1]  J. W. Furness, A. D. Kaplan, J. Ning, J. P. Perdew, and J. Sun.,  J. Phys. Chem. Lett. 11, 8208-8215 (2020)
[ 2]  J. W. Furness, A. D. Kaplan, J. Ning, J. P. Perdew, and J. Sun.,  J. Phys. Chem. Lett. 11, 9248-9248 (2020)
Using LibXC functional ID 497 : Re-regularized SCAN exchange by Furness et al
[ 1]  J. W. Furness, A. D. Kaplan, J. Ning, J. P. Perdew, and J. Sun.,  J. Phys. Chem. Lett. 11, 8208-8215 (2020)
[ 2]  J. W. Furness, A. D. Kaplan, J. Ning, J. P. Perdew, and J. Sun.,  J. Phys. Chem. Lett. 11, 9248-9248 (2020)
Using LibXC functional ID 498 : Re-regularized SCAN correlation by Furness et al
[ 1]  J. W. Furness, A. D. Kaplan, J. Ning, J. P. Perdew, and J. Sun.,  J. Phys. Chem. Lett. 11, 8208-8215 (2020)
[ 2]  J. W. Furness, A. D. Kaplan, J. Ning, J. P. Perdew, and J. Sun.,  J. Phys. Chem. Lett. 11, 9248-9248 (2020)

================================================================================
                                       INPUT FILE
================================================================================
NAME = xtb_opt.inp
|  1> ! r2scan-3c def2/J RI DEFGRID2 scfconv7 ENGRAD tightSCF miniprint
|  2> %cpcm
|  3>     smd true
|  4>     smdsolvent "water"
|  5> end
|  6> * xyzfile 0 1 xtb_opt.xyz
|  7> 
|  8>                          ****END OF INPUT****
================================================================================

                     *******************************
                     * Energy+Gradient Calculation *
                     *******************************

---------------------------------
CARTESIAN COORDINATES (ANGSTROEM)
---------------------------------
  C     -3.123520    0.616457    0.158595
  C     -1.712914    0.144128    0.488910
  C     -0.793779    0.223283   -0.743952
  C      0.580343   -0.277712   -0.415672
  O      0.994671   -1.400614   -0.657475
  O      1.309226    0.648266    0.234933
  C      2.642287    0.248559    0.644825
  H     -3.115710    1.652593   -0.196908
  H     -3.574501   -0.004547   -0.622824
  H     -3.767731    0.567587    1.042077
  H     -1.737068   -0.889897    0.852554
  H     -1.290246    0.758894    1.291369
  H     -0.733111    1.260920   -1.087775
  H     -1.193786   -0.395650   -1.551274
  H      3.295678    0.192790   -0.228840
  H      2.614843   -0.715007    1.156791
  H      2.982759    1.029968    1.322307

----------------------------
CARTESIAN COORDINATES (A.U.)
----------------------------
  NO LB      ZA    FRAG     MASS         X           Y           Z
   0 C     6.0000    0    12.011   -5.902597    1.164935    0.299702
   1 C     6.0000    0    12.011   -3.236939    0.272363    0.923907
   2 C     6.0000    0    12.011   -1.500024    0.421943   -1.405866
   3 C     6.0000    0    12.011    1.096688   -0.524800   -0.785507
   4 O     8.0000    0    15.999    1.879657   -2.646778   -1.242447
   5 O     8.0000    0    15.999    2.474078    1.225045    0.443960
   6 C     6.0000    0    12.011    4.993200    0.469708    1.218543
   7 H     1.0000    0     1.008   -5.887838    3.122948   -0.372103
   8 H     1.0000    0     1.008   -6.754827   -0.008593   -1.176968
   9 H     1.0000    0     1.008   -7.119980    1.072584    1.969240
  10 H     1.0000    0     1.008   -3.282583   -1.681661    1.611093
  11 H     1.0000    0     1.008   -2.438212    1.434101    2.440334
  12 H     1.0000    0     1.008   -1.385378    2.382794   -2.055598
  13 H     1.0000    0     1.008   -2.255929   -0.747671   -2.931484
  14 H     1.0000    0     1.008    6.227930    0.364320   -0.432445
  15 H     1.0000    0     1.008    4.941337   -1.351167    2.186018
  16 H     1.0000    0     1.008    5.636597    1.946357    2.498798

------------------------------------------------------------------------------
                   ___                                                        
                  /   \      - P O W E R E D   B Y -                         
                 /     \                                                     
                 |  |  |   _    _      __       _____    __    __             
                 |  |  |  | |  | |    /  \     |  _  \  |  |  /  |          
                  \  \/   | |  | |   /    \    | | | |  |  | /  /          
                 / \  \   | |__| |  /  /\  \   | |_| |  |  |/  /          
                |  |  |   |  __  | /  /__\  \  |    /   |      \           
                |  |  |   | |  | | |   __   |  |    \   |  |\   \          
                \     /   | |  | | |  |  |  |  | |\  \  |  | \   \       
                 \___/    |_|  |_| |__|  |__|  |_| \__\ |__|  \__/        
                                                                              
                      - O R C A' S   B I G   F R I E N D -                    
                                      &                                       
                       - I N T E G R A L  F E E D E R -                       
                                                                              
 v1 FN, 2020, v2 2021, v3 2022-2024                                           
------------------------------------------------------------------------------


----------------------
SHARK INTEGRAL PACKAGE
----------------------

Number of atoms                             ...     17
Number of basis functions                   ...    193
Number of shells                            ...     95
Maximum angular momentum                    ...      2
Integral batch strategy                     ... SHARK/LIBINT Hybrid
RI-J (if used) integral strategy            ... SPLIT-RIJ (Revised 2003 algorithm where possible)
Printlevel                                  ...      1
Contraction scheme used                     ... SEGMENTED contraction
Prescreening option                         ... SCHWARTZ
   Thresh                                   ... 3.000e-11
   Tcut                                     ... 1.000e-12
   Tpresel                                  ... 1.000e-12 
Coulomb Range Separation                    ... NOT USED
Exchange Range Separation                   ... NOT USED
Multipole approximations                    ... NOT USED
Finite Nucleus Model                        ... NOT USED
CABS basis                                  ... NOT available
Auxiliary Coulomb fitting basis             ... AVAILABLE
   # of basis functions in Aux-J            ...    453
   # of shells in Aux-J                     ...    155
   Maximum angular momentum in Aux-J        ...      4
Auxiliary J/K fitting basis                 ... NOT available
Auxiliary Correlation fitting basis         ... NOT available
Auxiliary 'external' fitting basis          ... NOT available

Checking pre-screening integrals            ... done (  0.0 sec) Dimension = 95
Check shell pair data                       ... done (  0.0 sec)
Shell pair information
Shell pair cut-off parameter TPreSel        ...   1.0e-12
Total number of shell pairs                 ...      4560
Shell pairs after pre-screening             ...      4090
Total number of primitive shell pairs       ...     16115
Primitive shell pairs kept                  ...     10453
          la=0 lb=0:   1357 shell pairs
          la=1 lb=0:   1531 shell pairs
          la=1 lb=1:    449 shell pairs
          la=2 lb=0:    452 shell pairs
          la=2 lb=1:    258 shell pairs
          la=2 lb=2:     43 shell pairs

Calculating one electron integrals          ... done (  0.0 sec)
Calculating RI/J V-Matrix + Cholesky decomp.... done (  0.1 sec)
Calculating Nuclear repulsion               ... done (  0.0 sec) ENN=    311.620277073995 Eh

Diagonalization of the overlap matrix:
Smallest eigenvalue                        ... 1.368e-04
Time for diagonalization                   ...    0.009 sec
Threshold for overlap eigenvalues          ... 1.000e-07
Number of eigenvalues below threshold      ... 0
Time for construction of square roots      ...    0.020 sec
Total time needed                          ...    0.040 sec

-------------------
DFT GRID GENERATION
-------------------

General Integration Accuracy     IntAcc      ... 4.388
Radial Grid Type                 RadialGrid  ... OptM3 with GC (2021)
Angular Grid (max. ang.)         AngularGrid ... 4 (Lebedev-302)
Angular grid pruning method      GridPruning ... 4 (adaptive)
Weight generation scheme         WeightScheme... mBecke (2022)
Basis function cutoff            BFCut       ... 1.0000e-11
Integration weight cutoff        WCut        ... 1.0000e-14
Partially contracted basis set               ... off
Rotationally invariant grid construction     ... off
Angular grids for H and He will be reduced by one unit
Diffuse basis detected: some atoms will have their outermost
                        angular grid increased by 1.

Total number of grid points                  ...    75151
Total number of batches                      ...     1183
Average number of points per batch           ...       63
Average number of grid points per atom       ...     4421
Initializing property integral containers    ... done (  0.1 sec)

SHARK setup successfully completed in   1.2 seconds

Maximum memory used throughout the entire STARTUP-calculation: 33.7 MB
Occupation numbers will be reassigned to an Aufbau configuration
             **** ENERGY FILE WAS UPDATED (xtb_opt.en.tmp) ****
Finished Guess after   0.4 sec
Maximum memory used throughout the entire GUESS-calculation: 13.0 MB
--------------------
CPCM SOLVATION MODEL
--------------------
CPCM parameters:
  Epsilon                                         ...      78.3550
  Refrac                                          ...       1.3328
  Rsolv                                           ...       1.3000
  Surface type                                    ... GAUSSIAN VDW
  Discretization scheme                           ... Constant charge density
    Threshold for H atoms                         ...       5.0000 (charges/Ang^2)
    Threshold for non-H atoms                     ...       5.0000 (charges/Ang^2)
  Epsilon function type                           ...         CPCM
Solvent:                                          ... WATER
SMD-CDS solvent descriptors:
  Soln                                            ...       1.3328
  Soln25                                          ...       1.3323
  Sola                                            ...       0.0000
  Solb                                            ...       0.0000
  Solg                                            ...       0.0000
  Solc                                            ...       0.0000
  Solh                                            ...       0.0000
Radii:
  Scheme                                          ... Element-dependent radii
  Radius for C  used is    3.4960 Bohr (=   1.8500 Ang.)
  Radius for O  used is    2.8724 Bohr (=   1.5200 Ang.)
  Radius for H  used is    2.2677 Bohr (=   1.2000 Ang.)
Calculating surface                               ...        done! (  0.0s)
Cavity surface points                             ...         1296
Cavity Volume                                     ...     766.5938
Cavity Surface-area                               ...     522.6077
Calculating surface distance matrix               ...        done! (  0.0s)
Performing Cholesky decomposition & store         ...        done! (  0.1s)
Overall time for CPCM initialization              ...                 0.1s

----------------------------------------D-I-I-S--------------------------------------------
Iteration    Energy (Eh)           Delta-E    RMSDP     MaxDP     DIISErr   Damp  Time(sec)
-------------------------------------------------------------------------------------------
               ***  Starting incremental Fock matrix formation  ***
                              *** Initializing SOSCF ***
---------------------------------------S-O-S-C-F--------------------------------------
Iteration    Energy (Eh)           Delta-E    RMSDP     MaxDP     MaxGrad    Time(sec)
--------------------------------------------------------------------------------------
    1    -346.9519378703010943     0.00e+00  2.27e-07  6.15e-06  9.09e-07     3.2
               *** Restarting incremental Fock matrix formation ***
    2    -346.9519378703005259     5.68e-13  3.06e-07  9.33e-06  2.85e-06     2.9
                  *** Gradient check signals convergence ***

               *****************************************************
               *                     SUCCESS                       *
               *           SCF CONVERGED AFTER   2 CYCLES          *
               *****************************************************


SMD CDS free energy correction energy :                 5.05889     Kcal/mol
Total Energy after SMD CDS correction =              -346.943876015 Eh
             **** ENERGY FILE WAS UPDATED (xtb_opt.en.tmp) ****

----------------
TOTAL SCF ENERGY
----------------

Total Energy       :       -346.94387601490376 Eh           -9440.82283 eV

Components:
Nuclear Repulsion  :        311.62027707399466 Eh            8479.61883 eV
Electronic Energy  :       -658.55607238571815 Eh          -17920.22178 eV
One Electron Energy:      -1088.73901541055898 Eh          -29626.09477 eV
Two Electron Energy:        430.18294302484082 Eh           11705.87299 eV
CPCM Dielectric    :         -0.01614255857699 Eh              -0.43926 eV
SMD CDS (Gcds)     :          0.00806185539678 Eh               0.21937 eV

Virial components:
Potential Energy   :       -692.30249535595294 Eh          -18838.50863 eV
Kinetic Energy     :        345.35861934104912 Eh            9397.68580 eV
Virial Ratio       :          2.00459017550186

DFT components:
N(Alpha)           :       28.000027779583 electrons
N(Beta)            :       28.000027779583 electrons
N(Total)           :       56.000055559166 electrons
E(X)               :      -46.119965903448 Eh       
E(C)               :       -1.785183432676 Eh       
E(XC)              :      -47.905149336123 Eh       

CPCM Solvation Model Properties:
Surface-charge          :         -0.04450053511270
Corrected charge        :          0.00000000000000
Outlying charge corr.   :          0.00015688879453 Eh               0.00427 eV
Free-energy (cav+disp)  :          0.00806185539678 Eh               0.21937 eV

---------------
SCF CONVERGENCE
---------------

  Last Energy change         ...   -5.6843e-13  Tolerance :   1.0000e-07
  Last MAX-Density change    ...    9.3324e-06  Tolerance :   1.0000e-07
  Last RMS-Density change    ...    3.0555e-07  Tolerance :   5.0000e-09
  Last DIIS Error            ...    9.7341e-06  Tolerance :   1.0000e-07
  Last Orbital Gradient      ...    2.8486e-06  Tolerance :   1.0000e-04
  Last Orbital Rotation      ...    6.8105e-06  Tolerance :   1.0000e-04


----------------
ORBITAL ENERGIES
----------------

  NO   OCC          E(Eh)            E(eV) 
   0   2.0000     -19.004217      -517.1310 
   1   2.0000     -18.946123      -515.5502 
   2   2.0000     -10.164585      -276.5924 
   3   2.0000     -10.077789      -274.2306 
   4   2.0000     -10.037750      -273.1411 
   5   2.0000     -10.032998      -273.0118 
   6   2.0000     -10.015253      -272.5289 
   7   2.0000      -1.071088       -29.1458 
   8   2.0000      -0.984630       -26.7931 
   9   2.0000      -0.766597       -20.8602 
  10   2.0000      -0.702420       -19.1138 
  11   2.0000      -0.652929       -17.7671 
  12   2.0000      -0.564645       -15.3648 
  13   2.0000      -0.530387       -14.4326 
  14   2.0000      -0.468713       -12.7543 
  15   2.0000      -0.455696       -12.4001 
  16   2.0000      -0.446811       -12.1583 
  17   2.0000      -0.422793       -11.5048 
  18   2.0000      -0.391530       -10.6541 
  19   2.0000      -0.385921       -10.5015 
  20   2.0000      -0.355451        -9.6723 
  21   2.0000      -0.351037        -9.5522 
  22   2.0000      -0.333920        -9.0864 
  23   2.0000      -0.319804        -8.7023 
  24   2.0000      -0.306129        -8.3302 
  25   2.0000      -0.300044        -8.1646 
  26   2.0000      -0.279949        -7.6178 
  27   2.0000      -0.250927        -6.8281 
  28   0.0000      -0.028547        -0.7768 
  29   0.0000       0.066103         1.7988 
  30   0.0000       0.098841         2.6896 
  31   0.0000       0.113907         3.0996 
  32   0.0000       0.136371         3.7108 
  33   0.0000       0.141884         3.8608 
  34   0.0000       0.146330         3.9819 
  35   0.0000       0.152806         4.1581 
  36   0.0000       0.171078         4.6553 
  37   0.0000       0.182941         4.9781 
  38   0.0000       0.189109         5.1459 
*Only the first 10 virtual orbitals were printed.
Total SCF time: 0 days 0 hours 0 min 6 sec 
Finished LeanSCF after   7.0 sec

Maximum memory used throughout the entire LEANSCF-calculation: 24.0 MB


-------------------------------------------------------------------------------
                          DFT DISPERSION CORRECTION                            
                                                                               
                                DFTD4 V3.4.0                                   
-------------------------------------------------------------------------------
-------------------------   ----------------
Dispersion correction           -0.003939322
-------------------------   ----------------

------------------   -----------------
gCP correction             0.010389927
------------------   -----------------

-------------------------   --------------------
FINAL SINGLE POINT ENERGY      -346.937425410403
-------------------------   --------------------

------------------------------------------------------------------------------
                         ORCA SCF GRADIENT CALCULATION
------------------------------------------------------------------------------

Nuc. rep. gradient        (SHARK) ... done (  0.0 sec)
HCore & Overlap gradient  (SHARK) ... done (  0.2 sec)
Split-RIJ-J gradient      (SHARK) ... done (  1.4 sec)
XC gradient                       ... done (  5.6 sec)
CPCM gradient                     ... done (  0.8 sec)
SMD gradient                      ... done (  0.0 sec)
Dispersion correction             ... done (  0.0 sec)

-------------------
DISPERSION GRADIENT
-------------------

   1   C   :   -0.000072386    0.000015796    0.000007917
   2   C   :   -0.000054722    0.000002064    0.000017115
   3   C   :   -0.000028122    0.000004336   -0.000034002
   4   C   :    0.000045659   -0.000016128   -0.000015414
   5   O   :    0.000038604   -0.000056420   -0.000029298
   6   O   :    0.000060611    0.000013615    0.000006535
   7   C   :    0.000076258    0.000001899    0.000018954
   8   H   :   -0.000027788    0.000012407    0.000002646
   9   H   :   -0.000029300    0.000001823    0.000000410
  10   H   :   -0.000025985    0.000004181    0.000010269
  11   H   :   -0.000025078   -0.000009959    0.000010625
  12   H   :   -0.000024829    0.000008819    0.000015563
  13   H   :   -0.000005675    0.000014471   -0.000017161
  14   H   :   -0.000005750   -0.000009010   -0.000020876
  15   H   :    0.000023787    0.000003695    0.000005794
  16   H   :    0.000027495   -0.000000753    0.000008617
  17   H   :    0.000027222    0.000009164    0.000012306

Difference to translation invariance:
           :   -0.0000000000    0.0000000000    0.0000000000

Difference to rotation invariance:
           :    0.0000000000    0.0000000000   -0.0000000000

Norm of the Dispersion gradient    ...    0.0001920430
RMS gradient                       ...    0.0000268914
MAX gradient                       ...    0.0000762582
gCP correction                   ... done

------------------
CARTESIAN GRADIENT
------------------

   1   C   :    0.000377428   -0.000129894    0.000053405
   2   C   :   -0.000320948    0.000074260   -0.000188912
   3   C   :    0.000085953   -0.000368020    0.000094431
   4   C   :    0.000768137    0.001257228    0.000187214
   5   O   :   -0.000471351   -0.000130888    0.000608713
   6   O   :   -0.000426533   -0.001167733   -0.000700355
   7   C   :    0.000370120    0.000175021   -0.000016580
   8   H   :   -0.000031159    0.000101214   -0.000051919
   9   H   :   -0.000121559    0.000015995    0.000000534
  10   H   :   -0.000039819    0.000069548    0.000068224
  11   H   :    0.000000735   -0.000025053    0.000095649
  12   H   :    0.000062732    0.000043348    0.000049606
  13   H   :   -0.000026717    0.000042719   -0.000052211
  14   H   :    0.000064494    0.000007610   -0.000111994
  15   H   :   -0.000161093    0.000533377    0.000344827
  16   H   :    0.000218424   -0.000007186   -0.000416543
  17   H   :   -0.000348844   -0.000491547    0.000035910

Difference to translation invariance:
           :    0.0000000000    0.0000000000    0.0000000000

Difference to rotation invariance:
           :    0.0000363649    0.0000248103   -0.0002766773

Norm of the Cartesian gradient     ...    0.0025637685
RMS gradient                       ...    0.0003589994
MAX gradient                       ...    0.0012572277

-------
TIMINGS
-------

Total SCF gradient time     ....        8.662 sec

Densities                   ....       0.001 sec  (  0.0%)
One electron gradient       ....       0.242 sec  (  2.8%)
RI-J Coulomb gradient       ....       1.358 sec  ( 15.7%)
XC gradient                 ....       5.566 sec  ( 64.3%)
CPCM gradient               ....       0.764 sec  (  8.8%)
   A-Matrix (El+Nuc)        ....       0.063 sec  (  0.7%)
   Potential                ....       0.701 sec  (  8.1%)
SMD gradient                ....       0.014 sec  (  0.2%)

Maximum memory used throughout the entire SCFGRAD-calculation: 33.1 MB

------------------------------------------------------------------------------
                              ORCA PROPERTY CALCULATIONS
------------------------------------------------------------------------------

GBWName                                 ... xtb_opt.gbw
Number of atoms                         ...     17
Number of basis functions               ...    193
Max core memory                         ...   1024 MB

Electric properties:
Dipole moment                           ... YES
Quadrupole moment                       ...  NO
Static polarizability (Dipole/Dipole)   ...  NO
Static polarizability (Dipole/Quad.)    ...  NO
Static polarizability (Quad./Quad.)     ...  NO
Static polarizability (Velocity)        ...  NO

Atomic electric properties:
Dipole moment                           ...  NO
Quadrupole moment                       ...  NO
Static polarizability                   ...  NO

Choice of electric origin               ... Center of mass
Position of electric origin             ...     0.025377     0.053945    -0.058709

General magnetic properties:
Magnetizability                         ...  NO

EPR properties:
g-Tensor (aka g-matrix)                 ...  NO
Zero-Field splitting spin-orbit         ...  NO
Zero-field splitting spin-spin          ...  NO
Hyperfine couplings                     ...  NO (   0 nuclei)
Quadrupole couplings                    ...  NO (   0 nuclei)
Contact density                         ...  NO (   0 nuclei)

NMR properties:
Chemical shifts                         ...  NO (   0 nuclei)
Spin-rotation constants                 ...  NO (   0 nuclei)
Spin-spin couplings                     ...  NO (   0 nuclei,    0 pairs)

Choice of magnetic origin               ... GIAO
Position of magnetic origin             ...     0.000000     0.000000     0.000000

Properties with geometric perturbations:
SCF Hessian                             ...  NO
IR spectrum                             ...  NO
VCD spectrum                            ...  NO
X-ray spectroscopy properties:
SCF XES/XAS/RIXS spectra                ...  NO


-------------
DIPOLE MOMENT
-------------

Method             : SCF
Type of density    : Electron Density
Multiplicity       :   1
Irrep              :   0
Energy             :  -346.9438760149037648 Eh
Relativity type    : 
Basis              : AO
                                X                 Y                 Z
Electronic contribution:      6.053368119      -1.936228702      -1.667944803
Nuclear contribution   :     -6.208165161       2.964095822       2.141358176
                        -----------------------------------------
Total Dipole Moment    :     -0.154797042       1.027867119       0.473413374
                        -----------------------------------------
Magnitude (a.u.)       :      1.142187884
Magnitude (Debye)      :      2.903210878



--------------------
Rotational spectrum 
--------------------
 
Rotational constants in cm-1:             0.200829             0.043754             0.039157 
Rotational constants in MHz :          6020.691838          1311.705352          1173.910029 

Dipole components along the rotational axes: 
x,y,z [a.u.] :    -0.263610     1.091450    -0.209382 
x,y,z [Debye]:    -0.670043     2.774244    -0.532207 

 

Dipole moment calculation done in   0.0 sec 

Maximum memory used throughout the entire PROP-calculation: 11.5 MB

--------------------------------
SUGGESTED CITATIONS FOR THIS RUN
--------------------------------

Below you find a list of papers that are relevant to this ORCA run
We neither can nor want to force you to cite these papers, but we appreciate if you do
You receive ORCA, which is the product of decades of hard work by many enthusiastic individuals, for free
The only thing we kindly ask in return is that you cite our papers,
We deeply appreciate it, if you show your appreciation for ORCA by not just citing the generic ORCA reference.

Please note that relegating all ORCA citations to the supporting information does *not* help us.
SI sections are not indexed - citations you put there will not count into any citation statistics
But we need these citations in order to attract the funding resources that allow us to do what we are doing

Therefore, if you are a happy ORCA user, please consider citing a few of the papers listed below in the main body of your paper

In addition to the list printed below, the program has created the file xtb_opt.bibtex that contains the list in bibtex format
You can import this file easily into all common literature databanks and citation aid programs


List of essential papers. We consider these as the minimum necessary citations

  1. Neese,F.
     Software update: the ORCA program system, version 5.0
     WIRES Comput. Molec. Sci., 2022 12(1)e1606
     doi.org/10.1002/wcms.1606
  2. Grimme,S.; Hansen,A.; Ehlert,S.; Mewes,J.
     r2SCAN-3c: A 'Swiss army knife' composite electronic-structure method
     J. Chem. Phys., 2021 154 064103
     doi.org/10.1063/5.0040021

List of papers to cite with high priority. The work reported in these papers was absolutely
necessary for this run to complete.
Our perspective: the developers of density functionals and basis sets usually get cited in chemistry papers
Good! But without the algorithms to do something with them, the functionals or basis sets would not do anything.
Hence, in our opinion, the algorithm design and method developments papers are equally worthy of getting cited

  1. Neese,F.
     An improvement of the resolution of the identity approximation for the formation of the Coulomb matrix
     J. Comp. Chem., 2003 24(14)1740-1747
     doi.org/10.1002/jcc.10318
  2. Garcia-Rates,M.; Neese,F.
     Effect of the Solute Cavity on the Solvation Energy and its Derivatives within the Framework of the Gaussian Charge Scheme
     J. Comput. Chem., 2020 41 922-939
     doi.org/10.1002/jcc.26139
  3. Neese,F.
     The SHARK Integral Generation and Digestion System
     J. Comp. Chem., 2022  1-16
     doi.org/10.1002/jcc.26942
  4. Lehtola,S.; Steigemann,C.; Oliveira,M.; Marques,M.
     Recent developments in Libxc - A comprehensive library of functionals for density functional theory
     Software X, 2018 7 
     doi.org/10.1016/j.softx.2017.11.002
  5. Caldeweyher,E.; Bannwarth,C.; Grimme,S.
     Extension of the D3 dispersion coefficient model
     J. Chem. Phys., 2017 147 034112-XXXX
     doi.org/10.1063/1.4993215
  6. Caldeweyher,E.; Ehlert,S.; Hansen,A.; Neugebauer,H.; Spicher,S.; Bannwarth,C.; Grimme,S.
     A generally applicable atomic-charge dependent London dispersion correction
     J. Chem. Phys., 2019 150 154122-XXXX
     doi.org/10.1063/1.5090222
  7. Caldeweyher,E.; Mewes,J.; Ehlert,S.; Grimme,S.
     Extension and evaluation of the D4 London-dispersion model for periodic systems
     Phys. Chem. Chem. Phys., 2020 22(16)8499-8512
     doi.org/10.1039/D0CP00502A

List of suggested additional citations. These are papers that are important in the 'surrounding' of 
of this run, or papers that preceded the highly important papers. If you like your results we are grateful for a citation.

  1. Neese,F.
     The ORCA program system
     WIRES Comput. Molec. Sci., 2012 2(1)73-78
     doi.org/10.1002/wcms.81
  2. Neese,F.
     Software update: the ORCA program system, version 4.0
     WIRES Comput. Molec. Sci., 2018 8(1)1-6
     doi.org/10.1002/wcms.1327
  3. Neese,F.; Wennmohs,F.; Becker,U.; Riplinger,C.
     The ORCA quantum chemistry program package
     J. Chem. Phys., 2020 152 Art. No. L224108
     doi.org/10.1063/5.0004608

List of optional additional citations

  1. Neese,F.
     Approximate second-order SCF convergence for spin unrestricted wavefunctions
     Chem. Phys. Lett., 2000 325(1-3)93-98
     doi.org/10.1016/s0009-2614(00)00662-x

Timings for individual modules:

Sum of individual times          ...       17.660 sec (=   0.294 min)
Startup calculation              ...        1.286 sec (=   0.021 min)   7.3 %
SCF iterations                   ...        7.464 sec (=   0.124 min)  42.3 %
Property calculations            ...        0.129 sec (=   0.002 min)   0.7 %
SCF Gradient evaluation          ...        8.781 sec (=   0.146 min)  49.7 %
                             ****ORCA TERMINATED NORMALLY****
TOTAL RUN TIME: 0 days 0 hours 0 minutes 18 seconds 738 msec
  ------------------------------------------------------------------------
          * successful ORCA run, taking over control again...

         :::::::::::::::::::::::::::::::::::::::::::::::::::::
         ::                  ORCA SUMMARY                   ::
         :::::::::::::::::::::::::::::::::::::::::::::::::::::
         :: total energy            -346.937425410403 Eh    ::
         :: gradient norm              0.002563768460 Eh/a0 ::
         :: HOMO-LUMO gap              0.000000000000 eV    ::
         :::::::::::::::::::::::::::::::::::::::::::::::::::::

      ----------------------------------------------------------- 
     |                       L-ANC optimizer                     |
      ----------------------------------------------------------- 
          low memory version by Sebastian Ehlert

          ...................................................
          :                      SETUP                      :
          :.................................................:
          :   energy convergence        0.5000000E-05 Eh    :
          :   grad. convergence         0.1000000E-02 Eh/a0 :
          :   optimization log               true           :
          :   writing optlog all                1     steps :
          :   Hessian reset                     8     steps :
          :   maximium step len.        1.0000000     a0    :
          :   LBFGS images                      8           :
          ...................................................
 * calculating model hessian...
Using Lindh-Hessian (1995)
 Shifting diagonal of input Hessian by   1.000000000000000E-002
 Lowest  eigenvalues of input Hessian
    0.000000    0.000000    0.000000    0.000000    0.000000    0.000000
    0.012037    0.012779    0.014912    0.020018    0.021082    0.026896
    0.029457    0.032236    0.046115    0.051275    0.061247    0.062505
 Highest eigenvalues
    1.181133    1.192057    1.233892    1.265737    1.742747    2.273536
 

........................................................................
.............................. CYCLE    1 ..............................
........................................................................
                         * ORCA takes the control...
  ------------------------------------------------------------------------

                                 *****************
                                 * O   R   C   A *
                                 *****************

                                            #,                                       
                                            ###                                      
                                            ####                                     
                                            #####                                    
                                            ######                                   
                                           ########,                                 
                                     ,,################,,,,,                         
                               ,,#################################,,                 
                          ,,##########################################,,             
                       ,#########################################, ''#####,          
                    ,#############################################,,   '####,        
                  ,##################################################,,,,####,       
                ,###########''''           ''''###############################       
              ,#####''   ,,,,##########,,,,          '''####'''          '####       
            ,##' ,,,,###########################,,,                        '##       
           ' ,,###''''                  '''############,,,                           
         ,,##''                                '''############,,,,        ,,,,,,###''
      ,#''                                            '''#######################'''  
     '                                                          ''''####''''         
             ,#######,   #######,   ,#######,      ##                                
            ,#'     '#,  ##    ##  ,#'     '#,    #''#        ,####,   ,####,        
            ##       ##  ##   ,#'  ##            #'  '#       #'       #'  '#        
            ##       ##  #######   ##           ,######,      #####,   #    #        
            '#,     ,#'  ##    ##  '#,     ,#' ,#      #,     #,   #   #,  ,#        
             '#######'   ##     ##  '#######'  #'      '#     '####' # '####'        



                #########################################################
                #                        -***-                          #
                #          Department of theory and spectroscopy        #
                #                                                       #
                #                      Frank Neese                      #
                #                                                       #
                #     Directorship, Architecture, Infrastructure        #
                #                    SHARK, DRIVERS                     #
                #        Core code/Algorithms in most modules           #
                #                                                       #
                #        Max Planck Institute fuer Kohlenforschung      #
                #                Kaiser Wilhelm Platz 1                 #
                #                 D-45470 Muelheim/Ruhr                 #
                #                      Germany                          #
                #                                                       #
                #                  All rights reserved                  #
                #                        -***-                          #
                #########################################################


                         Program Version 6.0.0  -   RELEASE  -


 With contributions from (in alphabetic order):
   Daniel Aravena         : Magnetic Suceptibility
   Michael Atanasov       : Ab Initio Ligand Field Theory (pilot matlab implementation)
   Alexander A. Auer      : GIAO ZORA, VPT2 properties, NMR spectrum
   Ute Becker             : All parallelization in ORCA, NUMFREQ, NUMCALC
   Giovanni Bistoni       : ED, misc. LED, open-shell LED, HFLD
   Martin Brehm           : Molecular dynamics
   Dmytro Bykov           : pre 5.0 version of the SCF Hessian
   Marcos Casanova-Páez   : Triplet and SCS-CIS(D). UHF-(DLPNO)-IP/EA/STEOM-CCSD. UHF-CVS-IP/STEOM-CCSD
   Vijay G. Chilkuri      : MRCI spin determinant printing, contributions to CSF-ICE
   Pauline Colinet        : FMM embedding
   Dipayan Datta          : RHF DLPNO-CCSD density
   Achintya Kumar Dutta   : EOM-CC, STEOM-CC
   Nicolas Foglia         : Exact transition moments, OPA infrastructure, MCD improvements
   Dmitry Ganyushin       : Spin-Orbit,Spin-Spin,Magnetic field MRCI
   Miquel Garcia          : C-PCM and meta-GGA Hessian, CCSD/C-PCM, Gaussian charge scheme
   Tiago L. C. Gouveia    : GS-ROHF, GS-ROCIS
   Yang Guo               : DLPNO-NEVPT2, F12-NEVPT2, CIM, IAO-localization
   Andreas Hansen         : Spin unrestricted coupled pair/coupled cluster methods
   Ingolf Harden          : AUTO-CI MPn and infrastructure 
   Benjamin Helmich-Paris : MC-RPA, TRAH-(SCF,CASSCF), AVAS, COSX integrals, SCF dyn. polar.
   Lee Huntington         : MR-EOM, pCC
   Robert Izsak           : Overlap fitted RIJCOSX, COSX-SCS-MP3, EOM
   Riya Kayal             : Wick's Theorem for AUTO-CI, AUTO-CI UHF-CCSDT
   Emily Kempfer          : AUTO-CI, RHF CISDT and CCSDT
   Christian Kollmar      : KDIIS, OOCD, Brueckner-CCSD(T), CCSD density, CASPT2, CASPT2-K, improved NEVPT2
   Axel Koslowski         : Symmetry handling
   Simone Kossmann        : Meta GGA functionals, TD-DFT gradient, OOMP2, (MP2 Hessian; deprecated post 5.0)
   Lucas Lang             : DCDCAS
   Marvin Lechner         : AUTO-CI (C++ implementation), FIC-MRCC
   Spencer Leger          : CASSCF response
   Dagmar Lenk            : GEPOL surface, SMD, ORCA-2-JSON
   Dimitrios Liakos       : Extrapolation schemes; Compound Job, initial MDCI parallelization
   Dimitrios Manganas     : Further ROCIS development; embedding schemes. LFT, Crystal Embedding
   Dimitrios Pantazis     : SARC Basis sets
   Anastasios Papadopoulos: AUTO-CI, single reference methods and gradients
   Taras Petrenko         : pre 6.0 DFT Hessian and TD-DFT gradient, (ASA, deprecated), ECA, 1-Electron XAS/XES, NRVS
   Peter Pinski           : DLPNO-MP2, DLPNO-MP2 Gradient
   Christoph Reimann      : Effective Core Potentials
   Marius Retegan         : Local ZFS, SOC
   Christoph Riplinger    : Optimizer, TS searches, QM/MM, DLPNO-CCSD(T), (RO)-DLPNO pert. Triples
   Michael Roemelt        : Original ROCIS implementation
   Masaaki Saitow         : Open-shell DLPNO-CCSD energy and density
   Barbara Sandhoefer     : DKH picture change effects
   Kantharuban Sivalingam : CASSCF convergence/infrastructure, NEVPT2 and variants, FIC-MRCI
   Bernardo de Souza      : ESD, SOC TD-DFT
   Georgi Stoychev        : AutoAux, RI-MP2 NMR, DLPNO-MP2 response, X2C
   Van Anh Tran           : RI-MP2 g-tensors
   Willem Van den Heuvel  : Paramagnetic NMR
   Zikuan Wang            : NOTCH, Electric field optimization 
   Frank Wennmohs         : Technical directorship and infrastructure
   Hang Xu                : AUTO-CI-Response properties 


 We gratefully acknowledge several colleagues who have allowed us to
 interface, adapt or use parts of their codes:
   Stefan Grimme, W. Hujo, H. Kruse, P. Pracht,  : VdW corrections, initial TS optimization,
                  C. Bannwarth, S. Ehlert,         DFT functionals, gCP, sTDA/sTD-DF
                  L. Wittmann, M. Mueller
   Ed Valeev, F. Pavosevic, A. Kumar             : LibInt (2-el integral package), F12 methods
   Garnet Chan, S. Sharma, J. Yang, R. Olivares  : DMRG
   Ulf Ekstrom                                   : XCFun DFT Library
   Mihaly Kallay                                 : mrcc  (arbitrary order and MRCC methods)
   Frank Weinhold                                : gennbo (NPA and NBO analysis)
   Simon Mueller                                 : openCOSMO-RS
   Christopher J. Cramer and Donald G. Truhlar   : smd solvation model
   Lars Goerigk                                  : TD-DFT with DH, B97 family of functionals
   V. Asgeirsson, H. Jonsson                     : NEB implementation
   FAccTs GmbH                                   : IRC, NEB, NEB-TS, DLPNO-Multilevel, CI-OPT
                                                   MM, QMMM, 2- and 3-layer-ONIOM, Crystal-QMMM,
                                                   LR-CPCM, SF, NACMEs, symmetry and pop. for TD-DFT,
                                                   nearIR, NL-DFT gradient (VV10), updates on ESD,
                                                   ML-optimized integration grids, MBIS, APM,
                                                   GOAT, DOCKER, SOLVATOR, interface openCOSMO-RS
   S Lehtola, MJT Oliveira, MAL Marques          : LibXC Library
   Liviu Ungur et al                             : ANISO software


 Your calculation uses the libint2 library for the computation of 2-el integrals
 For citations please refer to: http://libint.valeyev.net

 Your ORCA version has been built with support for libXC version: 6.2.2
 For citations please refer to: https://libxc.gitlab.io

 This ORCA versions uses:
   CBLAS   interface :  Fast vector & matrix operations
   LAPACKE interface :  Fast linear algebra routines
   SCALAPACK package :  Parallel linear algebra routines
   Shared memory     :  Shared parallel matrices
   BLAS/LAPACK       :  OpenBLAS 0.3.27  USE64BITINT DYNAMIC_ARCH NO_AFFINITY SkylakeX SINGLE_THREADED
        Core in use  :  SkylakeX
   Copyright (c) 2011-2014, The OpenBLAS Project




***************************************
The coordinates will be read from file: xtb_opt.xyz
***************************************


Your calculation utilizes the geometrical counterpoise correction gCP
Please cite in your paper:
H.Kruse, S. Grimme J.Chem.Phys., 136, (2012), 154101 
   

Your calculation utilizes the atom-pairwise dispersion correction
based on EEQ partial charges (D4)


Your calculation utilizes the SMD solvation module
Please cite in your paper:
A.V. Marenich, C.J. Cramer, D.G. Truhlar J. Phys. Chem. B, 113, (2009), 6378 

================================================================================

----- Orbital basis set information -----
Your calculation utilizes the basis: def2-mTZVPP
   Stefan Grimme, Andreas Hansen, Sebastian Ehlert, and Jan-Michael Mewes 
   J. Chem. Phys. 154, 064103 (2021). DOI: 10.1063/5.0040021

----- AuxJ basis set information -----
Your calculation utilizes the auxiliary basis: def2/J
   F. Weigend, Phys. Chem. Chem. Phys. 8, 1057 (2006).

================================================================================
                                        WARNINGS
                       Please study these warnings very carefully!
================================================================================

WARNING: Old DensityContainer found on disk!
         Will remove this file - 
         If you want to keep old densities, please start your calculation with a different basename. 

Using LibXC functional ID 497 : Re-regularized SCAN exchange by Furness et al
[ 1]  J. W. Furness, A. D. Kaplan, J. Ning, J. P. Perdew, and J. Sun.,  J. Phys. Chem. Lett. 11, 8208-8215 (2020)
[ 2]  J. W. Furness, A. D. Kaplan, J. Ning, J. P. Perdew, and J. Sun.,  J. Phys. Chem. Lett. 11, 9248-9248 (2020)
Using LibXC functional ID 498 : Re-regularized SCAN correlation by Furness et al
[ 1]  J. W. Furness, A. D. Kaplan, J. Ning, J. P. Perdew, and J. Sun.,  J. Phys. Chem. Lett. 11, 8208-8215 (2020)
[ 2]  J. W. Furness, A. D. Kaplan, J. Ning, J. P. Perdew, and J. Sun.,  J. Phys. Chem. Lett. 11, 9248-9248 (2020)
Using LibXC functional ID 497 : Re-regularized SCAN exchange by Furness et al
[ 1]  J. W. Furness, A. D. Kaplan, J. Ning, J. P. Perdew, and J. Sun.,  J. Phys. Chem. Lett. 11, 8208-8215 (2020)
[ 2]  J. W. Furness, A. D. Kaplan, J. Ning, J. P. Perdew, and J. Sun.,  J. Phys. Chem. Lett. 11, 9248-9248 (2020)
Using LibXC functional ID 498 : Re-regularized SCAN correlation by Furness et al
[ 1]  J. W. Furness, A. D. Kaplan, J. Ning, J. P. Perdew, and J. Sun.,  J. Phys. Chem. Lett. 11, 8208-8215 (2020)
[ 2]  J. W. Furness, A. D. Kaplan, J. Ning, J. P. Perdew, and J. Sun.,  J. Phys. Chem. Lett. 11, 9248-9248 (2020)

================================================================================
                                       INPUT FILE
================================================================================
NAME = xtb_opt.inp
|  1> ! r2scan-3c def2/J RI DEFGRID2 scfconv7 ENGRAD tightSCF miniprint
|  2> %cpcm
|  3>     smd true
|  4>     smdsolvent "water"
|  5> end
|  6> * xyzfile 0 1 xtb_opt.xyz
|  7> 
|  8>                          ****END OF INPUT****
================================================================================

                     *******************************
                     * Energy+Gradient Calculation *
                     *******************************

---------------------------------
CARTESIAN COORDINATES (ANGSTROEM)
---------------------------------
  C     -3.123768    0.615431    0.158717
  C     -1.712830    0.143550    0.489575
  C     -0.793913    0.224723   -0.743200
  C      0.580389   -0.276660   -0.415797
  O      0.998770   -1.396291   -0.666193
  O      1.309580    0.650304    0.235045
  C      2.641569    0.247911    0.645897
  H     -3.116050    1.651812   -0.195744
  H     -3.573074   -0.005263   -0.623825
  H     -3.768610    0.565075    1.041534
  H     -1.736606   -0.890967    0.851582
  H     -1.290897    0.757734    1.292723
  H     -0.733358    1.262841   -1.085297
  H     -1.194242   -0.393288   -1.551023
  H      3.292854    0.177461   -0.229088
  H      2.608859   -0.709853    1.168997
  H      2.988768    1.035494    1.313738

----------------------------
CARTESIAN COORDINATES (A.U.)
----------------------------
  NO LB      ZA    FRAG     MASS         X           Y           Z
   0 C     6.0000    0    12.011   -5.903065    1.162995    0.299932
   1 C     6.0000    0    12.011   -3.236780    0.271271    0.925163
   2 C     6.0000    0    12.011   -1.500278    0.424664   -1.404445
   3 C     6.0000    0    12.011    1.096776   -0.522811   -0.785743
   4 O     8.0000    0    15.999    1.887402   -2.638607   -1.258923
   5 O     8.0000    0    15.999    2.474747    1.228897    0.444171
   6 C     6.0000    0    12.011    4.991842    0.468484    1.220569
   7 H     1.0000    0     1.008   -5.888481    3.121472   -0.369902
   8 H     1.0000    0     1.008   -6.752132   -0.009945   -1.178858
   9 H     1.0000    0     1.008   -7.121640    1.067837    1.968213
  10 H     1.0000    0     1.008   -3.281711   -1.683684    1.609257
  11 H     1.0000    0     1.008   -2.439442    1.431909    2.442893
  12 H     1.0000    0     1.008   -1.385845    2.386425   -2.050915
  13 H     1.0000    0     1.008   -2.256791   -0.743207   -2.931009
  14 H     1.0000    0     1.008    6.222593    0.335353   -0.432914
  15 H     1.0000    0     1.008    4.930028   -1.341427    2.209084
  16 H     1.0000    0     1.008    5.647954    1.956801    2.482605

------------------------------------------------------------------------------
                   ___                                                        
                  /   \      - P O W E R E D   B Y -                         
                 /     \                                                     
                 |  |  |   _    _      __       _____    __    __             
                 |  |  |  | |  | |    /  \     |  _  \  |  |  /  |          
                  \  \/   | |  | |   /    \    | | | |  |  | /  /          
                 / \  \   | |__| |  /  /\  \   | |_| |  |  |/  /          
                |  |  |   |  __  | /  /__\  \  |    /   |      \           
                |  |  |   | |  | | |   __   |  |    \   |  |\   \          
                \     /   | |  | | |  |  |  |  | |\  \  |  | \   \       
                 \___/    |_|  |_| |__|  |__|  |_| \__\ |__|  \__/        
                                                                              
                      - O R C A' S   B I G   F R I E N D -                    
                                      &                                       
                       - I N T E G R A L  F E E D E R -                       
                                                                              
 v1 FN, 2020, v2 2021, v3 2022-2024                                           
------------------------------------------------------------------------------


----------------------
SHARK INTEGRAL PACKAGE
----------------------

Number of atoms                             ...     17
Number of basis functions                   ...    193
Number of shells                            ...     95
Maximum angular momentum                    ...      2
Integral batch strategy                     ... SHARK/LIBINT Hybrid
RI-J (if used) integral strategy            ... SPLIT-RIJ (Revised 2003 algorithm where possible)
Printlevel                                  ...      1
Contraction scheme used                     ... SEGMENTED contraction
Prescreening option                         ... SCHWARTZ
   Thresh                                   ... 3.000e-11
   Tcut                                     ... 1.000e-12
   Tpresel                                  ... 1.000e-12 
Coulomb Range Separation                    ... NOT USED
Exchange Range Separation                   ... NOT USED
Multipole approximations                    ... NOT USED
Finite Nucleus Model                        ... NOT USED
CABS basis                                  ... NOT available
Auxiliary Coulomb fitting basis             ... AVAILABLE
   # of basis functions in Aux-J            ...    453
   # of shells in Aux-J                     ...    155
   Maximum angular momentum in Aux-J        ...      4
Auxiliary J/K fitting basis                 ... NOT available
Auxiliary Correlation fitting basis         ... NOT available
Auxiliary 'external' fitting basis          ... NOT available

Checking pre-screening integrals            ... done (  0.0 sec) Dimension = 95
Check shell pair data                       ... done (  0.0 sec)
Shell pair information
Shell pair cut-off parameter TPreSel        ...   1.0e-12
Total number of shell pairs                 ...      4560
Shell pairs after pre-screening             ...      4090
Total number of primitive shell pairs       ...     16115
Primitive shell pairs kept                  ...     10452
          la=0 lb=0:   1357 shell pairs
          la=1 lb=0:   1531 shell pairs
          la=1 lb=1:    449 shell pairs
          la=2 lb=0:    452 shell pairs
          la=2 lb=1:    258 shell pairs
          la=2 lb=2:     43 shell pairs

Calculating one electron integrals          ... done (  0.0 sec)
Calculating RI/J V-Matrix + Cholesky decomp.... done (  0.1 sec)
Calculating Nuclear repulsion               ... done (  0.0 sec) ENN=    311.581635195363 Eh

Diagonalization of the overlap matrix:
Smallest eigenvalue                        ... 1.365e-04
Time for diagonalization                   ...    0.007 sec
Threshold for overlap eigenvalues          ... 1.000e-07
Number of eigenvalues below threshold      ... 0
Time for construction of square roots      ...    0.017 sec
Total time needed                          ...    0.035 sec

-------------------
DFT GRID GENERATION
-------------------

General Integration Accuracy     IntAcc      ... 4.388
Radial Grid Type                 RadialGrid  ... OptM3 with GC (2021)
Angular Grid (max. ang.)         AngularGrid ... 4 (Lebedev-302)
Angular grid pruning method      GridPruning ... 4 (adaptive)
Weight generation scheme         WeightScheme... mBecke (2022)
Basis function cutoff            BFCut       ... 1.0000e-11
Integration weight cutoff        WCut        ... 1.0000e-14
Partially contracted basis set               ... off
Rotationally invariant grid construction     ... off
Angular grids for H and He will be reduced by one unit
Diffuse basis detected: some atoms will have their outermost
                        angular grid increased by 1.

Total number of grid points                  ...    75153
Total number of batches                      ...     1182
Average number of points per batch           ...       63
Average number of grid points per atom       ...     4421
Initializing property integral containers    ... done (  0.0 sec)

SHARK setup successfully completed in   1.3 seconds

Maximum memory used throughout the entire STARTUP-calculation: 33.7 MB
Occupation numbers will be reassigned to an Aufbau configuration
             **** ENERGY FILE WAS UPDATED (xtb_opt.en.tmp) ****
Finished Guess after   0.6 sec
Maximum memory used throughout the entire GUESS-calculation: 13.0 MB
--------------------
CPCM SOLVATION MODEL
--------------------
CPCM parameters:
  Epsilon                                         ...      78.3550
  Refrac                                          ...       1.3328
  Rsolv                                           ...       1.3000
  Surface type                                    ... GAUSSIAN VDW
  Discretization scheme                           ... Constant charge density
    Threshold for H atoms                         ...       5.0000 (charges/Ang^2)
    Threshold for non-H atoms                     ...       5.0000 (charges/Ang^2)
  Epsilon function type                           ...         CPCM
Solvent:                                          ... WATER
SMD-CDS solvent descriptors:
  Soln                                            ...       1.3328
  Soln25                                          ...       1.3323
  Sola                                            ...       0.0000
  Solb                                            ...       0.0000
  Solg                                            ...       0.0000
  Solc                                            ...       0.0000
  Solh                                            ...       0.0000
Radii:
  Scheme                                          ... Element-dependent radii
  Radius for C  used is    3.4960 Bohr (=   1.8500 Ang.)
  Radius for O  used is    2.8724 Bohr (=   1.5200 Ang.)
  Radius for H  used is    2.2677 Bohr (=   1.2000 Ang.)
Calculating surface                               ...        done! (  0.0s)
Cavity surface points                             ...         1298
Cavity Volume                                     ...     766.8975
Cavity Surface-area                               ...     522.6239
Calculating surface distance matrix               ...        done! (  0.0s)
Performing Cholesky decomposition & store         ...        done! (  0.1s)
Overall time for CPCM initialization              ...                 0.1s

----------------------------------------D-I-I-S--------------------------------------------
Iteration    Energy (Eh)           Delta-E    RMSDP     MaxDP     DIISErr   Damp  Time(sec)
-------------------------------------------------------------------------------------------
               ***  Starting incremental Fock matrix formation  ***
    1    -346.9518861848443976     0.00e+00  2.55e-05  6.55e-04  3.95e-03  0.700   3.0
                              *** Initializing SOSCF ***
---------------------------------------S-O-S-C-F--------------------------------------
Iteration    Energy (Eh)           Delta-E    RMSDP     MaxDP     MaxGrad    Time(sec)
--------------------------------------------------------------------------------------
    2    -346.9519106544253191    -2.45e-05  8.06e-05  1.92e-03  3.01e-03     2.4
               *** Restarting incremental Fock matrix formation ***
    3    -346.9519724594395029    -6.18e-05  1.46e-05  3.09e-04  1.25e-04     2.8
    4    -346.9519730452821022    -5.86e-07  6.20e-06  1.52e-04  7.41e-05     2.7
    5    -346.9519729404611326     1.05e-07  4.24e-06  1.01e-04  1.18e-04     2.4
    6    -346.9519731170427121    -1.77e-07  1.46e-06  3.40e-05  9.17e-06     2.4
                  *** Gradient check signals convergence ***

               *****************************************************
               *                     SUCCESS                       *
               *           SCF CONVERGED AFTER   6 CYCLES          *
               *****************************************************


SMD CDS free energy correction energy :                 5.05477     Kcal/mol
Total Energy after SMD CDS correction =              -346.943917833 Eh
             **** ENERGY FILE WAS UPDATED (xtb_opt.en.tmp) ****

----------------
TOTAL SCF ENERGY
----------------

Total Energy       :       -346.94391783319907 Eh           -9440.82397 eV

Components:
Nuclear Repulsion  :        311.58163519536288 Eh            8478.56734 eV
Electronic Energy  :       -658.51747691385299 Eh          -17919.17154 eV
One Electron Energy:      -1088.66132251188697 Eh          -29623.98064 eV
Two Electron Energy:        430.14384559803392 Eh           11704.80910 eV
CPCM Dielectric    :         -0.01613139855250 Eh              -0.43896 eV
SMD CDS (Gcds)     :          0.00805528384362 Eh               0.21920 eV

Virial components:
Potential Energy   :       -692.29869325972618 Eh          -18838.40517 eV
Kinetic Energy     :        345.35477542652717 Eh            9397.58120 eV
Virial Ratio       :          2.00460147801550

DFT components:
N(Alpha)           :       28.000029451641 electrons
N(Beta)            :       28.000029451641 electrons
N(Total)           :       56.000058903282 electrons
E(X)               :      -46.118862829689 Eh       
E(C)               :       -1.785134352480 Eh       
E(XC)              :      -47.903997182169 Eh       

CPCM Solvation Model Properties:
Surface-charge          :         -0.04451137064632
Corrected charge        :          0.00000000000000
Outlying charge corr.   :          0.00015696294942 Eh               0.00427 eV
Free-energy (cav+disp)  :          0.00805528384362 Eh               0.21920 eV

---------------
SCF CONVERGENCE
---------------

  Last Energy change         ...    1.7658e-07  Tolerance :   1.0000e-07
  Last MAX-Density change    ...    3.3954e-05  Tolerance :   1.0000e-07
  Last RMS-Density change    ...    1.4620e-06  Tolerance :   5.0000e-09
  Last DIIS Error            ...    3.0123e-03  Tolerance :   1.0000e-07
  Last Orbital Gradient      ...    9.1684e-06  Tolerance :   1.0000e-04
  Last Orbital Rotation      ...    2.2646e-05  Tolerance :   1.0000e-04


----------------
ORBITAL ENERGIES
----------------

  NO   OCC          E(Eh)            E(eV) 
   0   2.0000     -19.004180      -517.1300 
   1   2.0000     -18.946395      -515.5576 
   2   2.0000     -10.164710      -276.5958 
   3   2.0000     -10.077966      -274.2354 
   4   2.0000     -10.037744      -273.1409 
   5   2.0000     -10.032913      -273.0094 
   6   2.0000     -10.015215      -272.5279 
   7   2.0000      -1.070862       -29.1396 
   8   2.0000      -0.984643       -26.7935 
   9   2.0000      -0.766600       -20.8602 
  10   2.0000      -0.702231       -19.1087 
  11   2.0000      -0.652776       -17.7629 
  12   2.0000      -0.564615       -15.3639 
  13   2.0000      -0.530326       -14.4309 
  14   2.0000      -0.468721       -12.7546 
  15   2.0000      -0.455661       -12.3992 
  16   2.0000      -0.446702       -12.1554 
  17   2.0000      -0.422828       -11.5057 
  18   2.0000      -0.391481       -10.6528 
  19   2.0000      -0.385850       -10.4995 
  20   2.0000      -0.355463        -9.6726 
  21   2.0000      -0.350986        -9.5508 
  22   2.0000      -0.333893        -9.0857 
  23   2.0000      -0.319839        -8.7033 
  24   2.0000      -0.306141        -8.3305 
  25   2.0000      -0.300090        -8.1659 
  26   2.0000      -0.279969        -7.6184 
  27   2.0000      -0.251027        -6.8308 
  28   0.0000      -0.028690        -0.7807 
  29   0.0000       0.066057         1.7975 
  30   0.0000       0.098753         2.6872 
  31   0.0000       0.113901         3.0994 
  32   0.0000       0.136287         3.7085 
  33   0.0000       0.141892         3.8611 
  34   0.0000       0.146275         3.9803 
  35   0.0000       0.152829         4.1587 
  36   0.0000       0.170863         4.6494 
  37   0.0000       0.182971         4.9789 
  38   0.0000       0.188801         5.1375 
*Only the first 10 virtual orbitals were printed.
Total SCF time: 0 days 0 hours 0 min 16 sec 
Finished LeanSCF after  16.6 sec

Maximum memory used throughout the entire LEANSCF-calculation: 24.0 MB


-------------------------------------------------------------------------------
                          DFT DISPERSION CORRECTION                            
                                                                               
                                DFTD4 V3.4.0                                   
-------------------------------------------------------------------------------
-------------------------   ----------------
Dispersion correction           -0.003939261
-------------------------   ----------------

------------------   -----------------
gCP correction             0.010383227
------------------   -----------------

-------------------------   --------------------
FINAL SINGLE POINT ENERGY      -346.937473867246
-------------------------   --------------------

------------------------------------------------------------------------------
                         ORCA SCF GRADIENT CALCULATION
------------------------------------------------------------------------------

Nuc. rep. gradient        (SHARK) ... done (  0.0 sec)
HCore & Overlap gradient  (SHARK) ... done (  0.2 sec)
Split-RIJ-J gradient      (SHARK) ... done (  1.3 sec)
XC gradient                       ... done (  5.3 sec)
CPCM gradient                     ... done (  0.8 sec)
SMD gradient                      ... done (  0.0 sec)
Dispersion correction             ... done (  0.0 sec)

-------------------
DISPERSION GRADIENT
-------------------

   1   C   :   -0.000072342    0.000015716    0.000007911
   2   C   :   -0.000054785    0.000002032    0.000017154
   3   C   :   -0.000028160    0.000004388   -0.000033955
   4   C   :    0.000045742   -0.000016070   -0.000015399
   5   O   :    0.000038743   -0.000056206   -0.000029608
   6   O   :    0.000060612    0.000013646    0.000006551
   7   C   :    0.000076227    0.000001831    0.000018968
   8   H   :   -0.000027785    0.000012384    0.000002653
   9   H   :   -0.000029292    0.000001801    0.000000406
[...]
N(Beta)            :       28.000020428090 electrons
N(Total)           :       56.000040856180 electrons
E(X)               :      -46.118689886188 Eh       
E(C)               :       -1.785130606219 Eh       
E(XC)              :      -47.903820492407 Eh       

CPCM Solvation Model Properties:
Surface-charge          :         -0.04446645316866
Corrected charge        :         -0.00000000000000
Outlying charge corr.   :          0.00015669997221 Eh               0.00426 eV
Free-energy (cav+disp)  :          0.00803363722612 Eh               0.21861 eV

---------------
SCF CONVERGENCE
---------------

  Last Energy change         ...   -5.5097e-08  Tolerance :   1.0000e-07
  Last MAX-Density change    ...    6.0887e-05  Tolerance :   1.0000e-07
  Last RMS-Density change    ...    1.8565e-06  Tolerance :   5.0000e-09
  Last DIIS Error            ...    5.1923e-05  Tolerance :   1.0000e-07
  Last Orbital Gradient      ...    7.3873e-05  Tolerance :   1.0000e-04
  Last Orbital Rotation      ...    8.6542e-05  Tolerance :   1.0000e-04


----------------
ORBITAL ENERGIES
----------------

  NO   OCC          E(Eh)            E(eV) 
   0   2.0000     -19.004331      -517.1341 
   1   2.0000     -18.946334      -515.5560 
   2   2.0000     -10.164764      -276.5973 
   3   2.0000     -10.077863      -274.2326 
   4   2.0000     -10.037945      -273.1464 
   5   2.0000     -10.032985      -273.0114 
   6   2.0000     -10.015230      -272.5283 
   7   2.0000      -1.070918       -29.1412 
   8   2.0000      -0.984577       -26.7917 
   9   2.0000      -0.766732       -20.8638 
  10   2.0000      -0.701918       -19.1002 
  11   2.0000      -0.652706       -17.7610 
  12   2.0000      -0.564691       -15.3660 
  13   2.0000      -0.530311       -14.4305 
  14   2.0000      -0.468877       -12.7588 
  15   2.0000      -0.455689       -12.3999 
  16   2.0000      -0.446622       -12.1532 
  17   2.0000      -0.422898       -11.5076 
  18   2.0000      -0.391555       -10.6547 
  19   2.0000      -0.385230       -10.4826 
  20   2.0000      -0.355805        -9.6819 
  21   2.0000      -0.351270        -9.5585 
  22   2.0000      -0.333412        -9.0726 
  23   2.0000      -0.320364        -8.7175 
  24   2.0000      -0.306277        -8.3342 
  25   2.0000      -0.300049        -8.1648 
  26   2.0000      -0.280254        -7.6261 
  27   2.0000      -0.251042        -6.8312 
  28   0.0000      -0.028943        -0.7876 
  29   0.0000       0.066028         1.7967 
  30   0.0000       0.098635         2.6840 
  31   0.0000       0.113804         3.0968 
  32   0.0000       0.136064         3.7025 
  33   0.0000       0.142206         3.8696 
  34   0.0000       0.146453         3.9852 
  35   0.0000       0.153032         4.1642 
  36   0.0000       0.169807         4.6207 
  37   0.0000       0.184025         5.0076 
  38   0.0000       0.186953         5.0872 
*Only the first 10 virtual orbitals were printed.
Total SCF time: 0 days 0 hours 0 min 8 sec 
Finished LeanSCF after   9.0 sec

Maximum memory used throughout the entire LEANSCF-calculation: 24.0 MB


-------------------------------------------------------------------------------
                          DFT DISPERSION CORRECTION                            
                                                                               
                                DFTD4 V3.4.0                                   
-------------------------------------------------------------------------------
-------------------------   ----------------
Dispersion correction           -0.003942658
-------------------------   ----------------

------------------   -----------------
gCP correction             0.010375725
------------------   -----------------

-------------------------   --------------------
FINAL SINGLE POINT ENERGY      -346.937704701902
-------------------------   --------------------

------------------------------------------------------------------------------
                         ORCA SCF GRADIENT CALCULATION
------------------------------------------------------------------------------

Nuc. rep. gradient        (SHARK) ... done (  0.0 sec)
HCore & Overlap gradient  (SHARK) ... done (  0.2 sec)
Split-RIJ-J gradient      (SHARK) ... done (  1.2 sec)
XC gradient                       ... done (  5.1 sec)
CPCM gradient                     ... done (  0.7 sec)
SMD gradient                      ... done (  0.0 sec)
Dispersion correction             ... done (  0.0 sec)

-------------------
DISPERSION GRADIENT
-------------------

   1   C   :   -0.000072582    0.000014936    0.000008298
   2   C   :   -0.000054954    0.000001835    0.000017110
   3   C   :   -0.000028140    0.000005215   -0.000034171
   4   C   :    0.000046253   -0.000015183   -0.000015843
   5   O   :    0.000039570   -0.000054570   -0.000031790
   6   O   :    0.000060302    0.000013624    0.000007242
   7   C   :    0.000076075    0.000001104    0.000019325
   8   H   :   -0.000027837    0.000012072    0.000002917
   9   H   :   -0.000029358    0.000001509    0.000000515
  10   H   :   -0.000026039    0.000003720    0.000010389
  11   H   :   -0.000025336   -0.000010189    0.000010488
  12   H   :   -0.000024857    0.000008706    0.000015619
  13   H   :   -0.000005647    0.000014905   -0.000017009
  14   H   :   -0.000005769   -0.000008513   -0.000021085
  15   H   :    0.000023044    0.000002389    0.000005852
  16   H   :    0.000028539   -0.000000614    0.000010130
  17   H   :    0.000026737    0.000009054    0.000012011

Difference to translation invariance:
           :    0.0000000000    0.0000000000    0.0000000000

Difference to rotation invariance:
           :   -0.0000000000    0.0000000000   -0.0000000000

Norm of the Dispersion gradient    ...    0.0001923137
RMS gradient                       ...    0.0000269293
MAX gradient                       ...    0.0000760752
gCP correction                   ... done

------------------
CARTESIAN GRADIENT
------------------

   1   C   :    0.000030466   -0.000009303    0.000065003
   2   C   :   -0.000095919    0.000092341   -0.000070303
   3   C   :    0.000124284   -0.000024874    0.000082888
   4   C   :   -0.000072697    0.000310603   -0.000041186
   5   O   :    0.000114031   -0.000159104   -0.000083796
   6   O   :   -0.000056804   -0.000166759    0.000091713
   7   C   :   -0.000180029    0.000085965    0.000031243
   8   H   :    0.000016679   -0.000003998   -0.000001569
   9   H   :   -0.000006725    0.000002431    0.000009476
  10   H   :    0.000002917    0.000028408    0.000007765
  11   H   :    0.000017465    0.000004201    0.000005823
  12   H   :    0.000033589    0.000013763   -0.000035858
  13   H   :   -0.000020777   -0.000028484   -0.000050442
  14   H   :   -0.000000542   -0.000047152    0.000029041
  15   H   :    0.000020191   -0.000028992   -0.000057682
  16   H   :    0.000078134   -0.000049644   -0.000009540
  17   H   :   -0.000004261   -0.000019402    0.000027425

Difference to translation invariance:
           :    0.0000000000   -0.0000000000   -0.0000000000

Difference to rotation invariance:
           :    0.0000769616    0.0001187718   -0.0003547166

Norm of the Cartesian gradient     ...    0.0005526063
RMS gradient                       ...    0.0000773804
MAX gradient                       ...    0.0003106032

-------
TIMINGS
-------

Total SCF gradient time     ....        8.003 sec

Densities                   ....       0.001 sec  (  0.0%)
One electron gradient       ....       0.234 sec  (  2.9%)
RI-J Coulomb gradient       ....       1.244 sec  ( 15.5%)
XC gradient                 ....       5.114 sec  ( 63.9%)
CPCM gradient               ....       0.725 sec  (  9.1%)
   A-Matrix (El+Nuc)        ....       0.063 sec  (  0.8%)
   Potential                ....       0.662 sec  (  8.3%)
SMD gradient                ....       0.012 sec  (  0.1%)

Maximum memory used throughout the entire SCFGRAD-calculation: 33.1 MB

------------------------------------------------------------------------------
                              ORCA PROPERTY CALCULATIONS
------------------------------------------------------------------------------

GBWName                                 ... xtb_opt.gbw
Number of atoms                         ...     17
Number of basis functions               ...    193
Max core memory                         ...   1024 MB

Electric properties:
Dipole moment                           ... YES
Quadrupole moment                       ...  NO
Static polarizability (Dipole/Dipole)   ...  NO
Static polarizability (Dipole/Quad.)    ...  NO
Static polarizability (Quad./Quad.)     ...  NO
Static polarizability (Velocity)        ...  NO

Atomic electric properties:
Dipole moment                           ...  NO
Quadrupole moment                       ...  NO
Static polarizability                   ...  NO

Choice of electric origin               ... Center of mass
Position of electric origin             ...     0.030807     0.071324    -0.073624

General magnetic properties:
Magnetizability                         ...  NO

EPR properties:
g-Tensor (aka g-matrix)                 ...  NO
Zero-Field splitting spin-orbit         ...  NO
Zero-field splitting spin-spin          ...  NO
Hyperfine couplings                     ...  NO (   0 nuclei)
Quadrupole couplings                    ...  NO (   0 nuclei)
Contact density                         ...  NO (   0 nuclei)

NMR properties:
Chemical shifts                         ...  NO (   0 nuclei)
Spin-rotation constants                 ...  NO (   0 nuclei)
Spin-spin couplings                     ...  NO (   0 nuclei,    0 pairs)

Choice of magnetic origin               ... GIAO
Position of magnetic origin             ...     0.000000     0.000000     0.000000

Properties with geometric perturbations:
SCF Hessian                             ...  NO
IR spectrum                             ...  NO
VCD spectrum                            ...  NO
X-ray spectroscopy properties:
SCF XES/XAS/RIXS spectra                ...  NO


-------------
DIPOLE MOMENT
-------------

Method             : SCF
Type of density    : Electron Density
Multiplicity       :   1
Irrep              :   0
Energy             :  -346.9441377693076447 Eh
Relativity type    : 
Basis              : AO
                                X                 Y                 Z
Electronic contribution:      6.070871276      -1.821147953      -1.754639272
Nuclear contribution   :     -6.254104530       2.815068737       2.267697161
                        -----------------------------------------
Total Dipole Moment    :     -0.183233254       0.993920784       0.513057889
                        -----------------------------------------
Magnitude (a.u.)       :      1.133437844
Magnitude (Debye)      :      2.880970046



--------------------
Rotational spectrum 
--------------------
 
Rotational constants in cm-1:             0.200460             0.043868             0.039215 
Rotational constants in MHz :          6009.652422          1315.138249          1175.640679 

Dipole components along the rotational axes: 
x,y,z [a.u.] :    -0.286714     1.076361    -0.209578 
x,y,z [Debye]:    -0.728770     2.735892    -0.532706 

 

Dipole moment calculation done in   0.0 sec 

Maximum memory used throughout the entire PROP-calculation: 11.5 MB

--------------------------------
SUGGESTED CITATIONS FOR THIS RUN
--------------------------------

Below you find a list of papers that are relevant to this ORCA run
We neither can nor want to force you to cite these papers, but we appreciate if you do
You receive ORCA, which is the product of decades of hard work by many enthusiastic individuals, for free
The only thing we kindly ask in return is that you cite our papers,
We deeply appreciate it, if you show your appreciation for ORCA by not just citing the generic ORCA reference.

Please note that relegating all ORCA citations to the supporting information does *not* help us.
SI sections are not indexed - citations you put there will not count into any citation statistics
But we need these citations in order to attract the funding resources that allow us to do what we are doing

Therefore, if you are a happy ORCA user, please consider citing a few of the papers listed below in the main body of your paper

In addition to the list printed below, the program has created the file xtb_opt.bibtex that contains the list in bibtex format
You can import this file easily into all common literature databanks and citation aid programs


List of essential papers. We consider these as the minimum necessary citations

  1. Neese,F.
     Software update: the ORCA program system, version 5.0
     WIRES Comput. Molec. Sci., 2022 12(1)e1606
     doi.org/10.1002/wcms.1606
  2. Grimme,S.; Hansen,A.; Ehlert,S.; Mewes,J.
     r2SCAN-3c: A 'Swiss army knife' composite electronic-structure method
     J. Chem. Phys., 2021 154 064103
     doi.org/10.1063/5.0040021

List of papers to cite with high priority. The work reported in these papers was absolutely
necessary for this run to complete.
Our perspective: the developers of density functionals and basis sets usually get cited in chemistry papers
Good! But without the algorithms to do something with them, the functionals or basis sets would not do anything.
Hence, in our opinion, the algorithm design and method developments papers are equally worthy of getting cited

  1. Neese,F.
     An improvement of the resolution of the identity approximation for the formation of the Coulomb matrix
     J. Comp. Chem., 2003 24(14)1740-1747
     doi.org/10.1002/jcc.10318
  2. Garcia-Rates,M.; Neese,F.
     Effect of the Solute Cavity on the Solvation Energy and its Derivatives within the Framework of the Gaussian Charge Scheme
     J. Comput. Chem., 2020 41 922-939
     doi.org/10.1002/jcc.26139
  3. Neese,F.
     The SHARK Integral Generation and Digestion System
     J. Comp. Chem., 2022  1-16
     doi.org/10.1002/jcc.26942
  4. Lehtola,S.; Steigemann,C.; Oliveira,M.; Marques,M.
     Recent developments in Libxc - A comprehensive library of functionals for density functional theory
     Software X, 2018 7 
     doi.org/10.1016/j.softx.2017.11.002
  5. Caldeweyher,E.; Bannwarth,C.; Grimme,S.
     Extension of the D3 dispersion coefficient model
     J. Chem. Phys., 2017 147 034112-XXXX
     doi.org/10.1063/1.4993215
  6. Caldeweyher,E.; Ehlert,S.; Hansen,A.; Neugebauer,H.; Spicher,S.; Bannwarth,C.; Grimme,S.
     A generally applicable atomic-charge dependent London dispersion correction
     J. Chem. Phys., 2019 150 154122-XXXX
     doi.org/10.1063/1.5090222
  7. Caldeweyher,E.; Mewes,J.; Ehlert,S.; Grimme,S.
     Extension and evaluation of the D4 London-dispersion model for periodic systems
     Phys. Chem. Chem. Phys., 2020 22(16)8499-8512
     doi.org/10.1039/D0CP00502A

List of suggested additional citations. These are papers that are important in the 'surrounding' of 
of this run, or papers that preceded the highly important papers. If you like your results we are grateful for a citation.

  1. Neese,F.
     The ORCA program system
     WIRES Comput. Molec. Sci., 2012 2(1)73-78
     doi.org/10.1002/wcms.81
  2. Neese,F.
     Software update: the ORCA program system, version 4.0
     WIRES Comput. Molec. Sci., 2018 8(1)1-6
     doi.org/10.1002/wcms.1327
  3. Neese,F.; Wennmohs,F.; Becker,U.; Riplinger,C.
     The ORCA quantum chemistry program package
     J. Chem. Phys., 2020 152 Art. No. L224108
     doi.org/10.1063/5.0004608

List of optional additional citations

  1. Neese,F.
     Approximate second-order SCF convergence for spin unrestricted wavefunctions
     Chem. Phys. Lett., 2000 325(1-3)93-98
     doi.org/10.1016/s0009-2614(00)00662-x

Timings for individual modules:

Sum of individual times          ...       18.799 sec (=   0.313 min)
Startup calculation              ...        1.144 sec (=   0.019 min)   6.1 %
SCF iterations                   ...        9.417 sec (=   0.157 min)  50.1 %
Property calculations            ...        0.124 sec (=   0.002 min)   0.7 %
SCF Gradient evaluation          ...        8.115 sec (=   0.135 min)  43.2 %
                             ****ORCA TERMINATED NORMALLY****
TOTAL RUN TIME: 0 days 0 hours 0 minutes 19 seconds 695 msec
  ------------------------------------------------------------------------
          * successful ORCA run, taking over control again...

         :::::::::::::::::::::::::::::::::::::::::::::::::::::
         ::                  ORCA SUMMARY                   ::
         :::::::::::::::::::::::::::::::::::::::::::::::::::::
         :: total energy            -346.937704701902 Eh    ::
         :: gradient norm              0.000552606333 Eh/a0 ::
         :: HOMO-LUMO gap              0.000000000000 eV    ::
         :::::::::::::::::::::::::::::::::::::::::::::::::::::

           -------------------------------------------------
          |                Property Printout                |
           -------------------------------------------------
           -------------------------------------------------
          |                Geometry Summary                 |
           -------------------------------------------------

      molecular mass/u    :      102.1318968
   center of mass at/Å    :        0.0163217       0.0377361      -0.0389640
  moments of inertia/u·Å² :        0.8409422E+02   0.3842695E+03   0.4298676E+03
rotational constants/cm⁻¹ :        0.2004612E+00   0.4386930E-01   0.3921587E-01

 * 14 selected distances

     #   Z          #   Z                                           value/Å
     1   6 C        2   6 C                                       1.5241499
     2   6 C        3   6 C                                       1.5397762 (max)
     4   6 C        5   8 O                                       1.2209275
     4   6 C        6   8 O                                       1.3484067
     1   6 C        8   1 H                                       1.0952567
     1   6 C        9   1 H                                       1.0951965
     1   6 C       10   1 H                                       1.0943486
     2   6 C       11   1 H                                       1.0963297
     2   6 C       12   1 H                                       1.0954289
     3   6 C       13   1 H                                       1.0947884
     3   6 C       14   1 H                                       1.0929794
     7   6 C       15   1 H                                       1.0927147
     7   6 C       16   1 H                                       1.0925944
     7   6 C       17   1 H                                       1.0893907 (min)

 * 3 distinct bonds (by element types)

   Z      Z             #   av. dist./Å        max./Å        min./Å
   1 H    6 C          10     1.0939028     1.0963297     1.0893907
   6 C    6 C           2     1.5319631     1.5397762     1.5241499
   6 C    8 O           2     1.2846671     1.3484067     1.2209275


optimized geometry written to: xtbopt.coord


           -------------------------------------------------
          | TOTAL ENERGY             -346.937704701902 Eh   |
          | GRADIENT NORM               0.000552606333 Eh/α |
           -------------------------------------------------

------------------------------------------------------------------------
 * finished run on 2025/04/11 at 12:15:01.821     
------------------------------------------------------------------------
 total:
 * wall-time:     0 d,  0 h,  3 min, 53.144 sec
 *  cpu-time:     0 d,  0 h,  0 min,  2.075 sec
 * ratio c/w:     0.009 speedup
 SCF:
 * wall-time:     0 d,  0 h,  0 min, 18.975 sec
 *  cpu-time:     0 d,  0 h,  0 min,  0.523 sec
 * ratio c/w:     0.028 speedup
 ANC optimizer:
 * wall-time:     0 d,  0 h,  3 min, 34.129 sec
 *  cpu-time:     0 d,  0 h,  0 min,  1.469 sec
 * ratio c/w:     0.007 speedup

