22
 energy: -496.454286651219 gnorm: 0.036148924843 xtb: 6.7.1 (edcfbbe)
C           -3.32108377107166        0.80716897885768        0.21543587669547
C           -2.67772313108657        0.31754135564071        1.33996511239377
C           -1.50125662716525       -0.39945748147701        1.20921971833584
C           -0.95769664242438       -0.63458656288120       -0.04763149242111
C           -1.60904184361301       -0.14138705386265       -1.17144265711910
C           -2.78535635823427        0.57581981975516       -1.04060219966112
C            0.34006707235069       -1.38286061101278       -0.18777881888321
N            1.47883564415531       -0.48608986781540       -0.10957740264856
C            1.47236824965245        0.87462469948757       -0.01670321780740
C            2.78285295783316        1.25730014065714        0.01707995430757
N            3.59009521289087        0.16460948047294       -0.05389824522388
C            2.77669954193043       -0.85779424808011       -0.12868503715702
H           -4.23785876037791        1.36736298290591        0.31761253024074
H           -3.09210286377019        0.49516420901942        2.32066421822835
H           -0.99907675784272       -0.77668801414417        2.08791111632521
H           -1.19073520312765       -0.31709136264051       -2.15169207505347
H           -3.28338012415495        0.95526378432330       -1.91977458705070
H            0.43582220479312       -2.12686711814247        0.60946689907007
H            0.37373567996561       -1.90110319264243       -1.15195242751046
H            0.56877855725204        1.44567757174062        0.01901104120842
H            3.19608500091627        2.24326909529405        0.08771184833887
H            3.09264204277043       -1.87921274413273       -0.19773615898762
22
 energy: -496.456258421714 gnorm: 0.012739464304 xtb: 6.7.1 (edcfbbe)
C           -3.32814751971229        0.81280355500552        0.21649263054960
C           -2.68266042738547        0.31917743955651        1.34622325148182
C           -1.50461869781478       -0.40693508110795        1.21360326568593
C           -0.96363813638662       -0.64705602124185       -0.04894810123392
C           -1.61345850422492       -0.14812291734093       -1.17721349073329
C           -2.79119060035699        0.57881418680843       -1.04564569220187
C            0.33762031097275       -1.38688257144240       -0.18905443160922
N            1.48750704064375       -0.48186228153354       -0.10851219218821
C            1.47881033327450        0.88823371629969       -0.01596923551225
C            2.79516142418470        1.26776286444210        0.01721063588407
N            3.61051753838014        0.16479512956980       -0.05367384139034
C            2.78925720252478       -0.86592182476187       -0.12802208911752
H           -4.24901692225491        1.37547935124335        0.31921023941530
H           -3.09844918962204        0.49712879369381        2.33153473239308
H           -0.99755027566267       -0.78634509693798        2.09490852895115
H           -1.19063410754474       -0.32483240520769       -2.16095736558315
H           -3.29123576940496        0.95979673442764       -1.92890086203501
H            0.43310348612646       -2.13324534321625        0.60544699724139
H            0.37012816444391       -1.90791907056958       -1.15108578667124
H            0.56776648905126        1.46156631793327        0.01871273336762
H            3.20128344539191        2.26473832219170        0.08880433894214
H            3.09211509191924       -1.90050940379230       -0.19755960126018
22
 energy: -496.456502330104 gnorm: 0.003406821240 xtb: 6.7.1 (edcfbbe)
C           -3.33267525482164        0.81380775322966        0.21713999496236
C           -2.68707051831588        0.31769117438959        1.34852211527018
C           -1.50728573755794       -0.40948512601760        1.21508607988348
C           -0.96469011571703       -0.64805040917576       -0.04927792637570
C           -1.61672059174501       -0.15008402589208       -1.17910297596001
C           -2.79640643617371        0.57783476658227       -1.04730912001627
C            0.33502604314501       -1.38904263216042       -0.18998199050058
N            1.49200669665201       -0.47871216477493       -0.10751908723616
C            1.48483968670664        0.89575630226511       -0.01635634083172
C            2.80368160159664        1.27119644678210        0.01689274019630
N            3.62279131207403        0.16353297913202       -0.05257610455524
C            2.79509059161948       -0.86846583971379       -0.12671376570845
H           -4.25314436289623        1.38021645133385        0.32043764366442
H           -3.10257138456838        0.49726608705787        2.33544850250701
H           -0.99973086917416       -0.79269918384386        2.09652406041090
H           -1.19412387120174       -0.33060481654005       -2.16406468853515
H           -3.29672155068478        0.96087738596310       -1.93152729239159
H            0.43512043567932       -2.13529084818922        0.60395607303607
H            0.37222443838929       -1.90817740527534       -1.15264353414881
H            0.57173181482904        1.46957902251577        0.01679590235071
H            3.20511771817784        2.27252873263564        0.08854433721659
H            3.08618102376343       -1.90900947558519       -0.19566883644879
22
 energy: -496.456520399904 gnorm: 0.001489699275 xtb: 6.7.1 (edcfbbe)
C           -3.33377846058645        0.81356785980811        0.21749040803210
C           -2.68815211740914        0.31719023883240        1.34868478446038
C           -1.50861510447156       -0.41019009886227        1.21495679526440
C           -0.96558876393693       -0.64815084016221       -0.04949664400483
C           -1.61855894426803       -0.15072213634213       -1.17915995896722
C           -2.79801005088735        0.57744026704106       -1.04705145230321
C            0.33396462686137       -1.38842932516418       -0.19050672237658
N            1.49341589316584       -0.47684641475840       -0.10690820504718
C            1.48834913350425        0.89828187126424       -0.01694271651391
C            2.80755784267007        1.27123960902012        0.01654853788248
N            3.62623960709160        0.16214155515667       -0.05171632554941
C            2.79587578205972       -0.86837430593626       -0.12521541461253
H           -4.25409847442184        1.38010621021738        0.32100716999878
H           -3.10434325239000        0.49562570075185        2.33546534962943
H           -1.00131844696862       -0.79446622044371        2.09598286408437
H           -1.19656083199329       -0.33216743973477       -2.16412057342097
H           -3.29943507484003        0.95932876225246       -1.93107123862450
H            0.43615101444709       -2.13442096477629        0.60322517135223
H            0.37351438617955       -1.90563146841867       -1.15395156843507
H            0.57573309905308        1.47258445539665        0.01511717897214
H            3.20846667365974        2.27273592842164        0.08765146207807
H            3.08186230352914       -1.91017741635600       -0.19338210667945
22
 energy: -496.456528817429 gnorm: 0.001339747545 xtb: 6.7.1 (edcfbbe)
C           -3.33592244435085        0.81181497401722        0.21847590194532
C           -2.68990328577048        0.31504379058604        1.34887942268838
C           -1.50985722287149       -0.41061671072602        1.21443600959303
C           -0.96604205927985       -0.64633675511888       -0.05009239545461
C           -1.62125739131930       -0.15056522156499       -1.17911376590497
C           -2.80131942178634        0.57578562965115       -1.04617426900874
C            0.33301619436114       -1.38567339469729       -0.19207271597655
N            1.49497769909734       -0.47331685844839       -0.10562517013975
C            1.49421899873014        0.90191200053991       -0.01942194726970
C            2.81434882675273        1.27034638558951        0.01534276002518
N            3.63021127230243        0.15853510445191       -0.04822026202365
C            2.79533957470421       -0.86834140256108       -0.12054461483803
H           -4.25621825681482        1.37777104417439        0.32265398395821
H           -3.10681375031520        0.49147743234758        2.33541458496555
H           -1.00299329843455       -0.79641756154748        2.09462818744988
H           -1.20078127029339       -0.33302894482717       -2.16416188663284
H           -3.30460027820734        0.95602284533968       -1.92951429306231
H            0.43725170010181       -2.13214554654925        0.60048757642168
H            0.37541727935615       -1.89918826693895       -1.15699975307298
H            0.58324089555862        1.47830503810465        0.00956371887076
H            3.21651237568991        2.27115334109120        0.08484846639901
H            3.07384481042744       -1.91186942334321       -0.18617959682138
22
 energy: -496.456532994532 gnorm: 0.000712480247 xtb: 6.7.1 (edcfbbe)
C           -3.33706383693691        0.81037518419221        0.21877361235585
C           -2.69008131457009        0.31456737910305        1.34906885531814
C           -1.50925342606477       -0.40981019215827        1.21442168107901
C           -0.96579060484814       -0.64531172969087       -0.05026979925479
C           -1.62125746854817       -0.14957909799429       -1.17913430345661
C           -2.80210216001235        0.57547408219931       -1.04594927278929
C            0.33326110195294       -1.38477330657686       -0.19272875677237
N            1.49484048942525       -0.47325265583500       -0.10536282835294
C            1.49456141855205        0.90202169860735       -0.02049877491697
C            2.81490671901376        1.26975809027867        0.01529539512852
N            3.62968613487224        0.15754141833263       -0.04710726876479
C            2.79509324294101       -0.86912721540484       -0.11904036590276
H           -4.25792928743397        1.37539993033688        0.32315409396047
H           -3.10674086619338        0.49085606189379        2.33576532107775
H           -1.00169525748470       -0.79485953313873        2.09463038315263
H           -1.20056714997164       -0.33116397173209       -2.16433297936314
H           -3.30561307825053        0.95565729267541       -1.92921640640980
H            0.43691184888642       -2.13223457196198        0.59911253611624
H            0.37504578440055       -1.89760930014984       -1.15815613737675
H            0.58396024375780        1.47929765930764        0.00727715550024
H            3.21842781691980        2.27007237394191        0.08412935103868
H            3.07407049310327       -1.91263154642795       -0.18322042521690
22
 energy: -496.456532994532 gnorm: 0.000712480247 xtb: 6.7.1 (edcfbbe)
C           -3.33706383693691        0.81037518419221        0.21877361235585
C           -2.69008131457009        0.31456737910305        1.34906885531814
C           -1.50925342606477       -0.40981019215827        1.21442168107901
C           -0.96579060484814       -0.64531172969087       -0.05026979925479
C           -1.62125746854817       -0.14957909799429       -1.17913430345661
C           -2.80210216001235        0.57547408219931       -1.04594927278929
C            0.33326110195294       -1.38477330657686       -0.19272875677237
N            1.49484048942525       -0.47325265583500       -0.10536282835294
C            1.49456141855205        0.90202169860735       -0.02049877491697
C            2.81490671901376        1.26975809027867        0.01529539512852
N            3.62968613487224        0.15754141833263       -0.04710726876479
C            2.79509324294101       -0.86912721540484       -0.11904036590276
H           -4.25792928743397        1.37539993033688        0.32315409396047
H           -3.10674086619338        0.49085606189379        2.33576532107775
H           -1.00169525748470       -0.79485953313873        2.09463038315263
H           -1.20056714997164       -0.33116397173209       -2.16433297936314
H           -3.30561307825053        0.95565729267541       -1.92921640640980
H            0.43691184888642       -2.13223457196198        0.59911253611624
H            0.37504578440055       -1.89760930014984       -1.15815613737675
H            0.58396024375780        1.47929765930764        0.00727715550024
H            3.21842781691980        2.27007237394191        0.08412935103868
H            3.07407049310327       -1.91263154642795       -0.18322042521690
