
                                 *****************
                                 * O   R   C   A *
                                 *****************

                                            #,                                       
                                            ###                                      
                                            ####                                     
                                            #####                                    
                                            ######                                   
                                           ########,                                 
                                     ,,################,,,,,                         
                               ,,#################################,,                 
                          ,,##########################################,,             
                       ,#########################################, ''#####,          
                    ,#############################################,,   '####,        
                  ,##################################################,,,,####,       
                ,###########''''           ''''###############################       
              ,#####''   ,,,,##########,,,,          '''####'''          '####       
            ,##' ,,,,###########################,,,                        '##       
           ' ,,###''''                  '''############,,,                           
         ,,##''                                '''############,,,,        ,,,,,,###''
      ,#''                                            '''#######################'''  
     '                                                          ''''####''''         
             ,#######,   #######,   ,#######,      ##                                
            ,#'     '#,  ##    ##  ,#'     '#,    #''#        ,####,   ,####,        
            ##       ##  ##   ,#'  ##            #'  '#       #'       #'  '#        
            ##       ##  #######   ##           ,######,      #####,   #    #        
            '#,     ,#'  ##    ##  '#,     ,#' ,#      #,     #,   #   #,  ,#        
             '#######'   ##     ##  '#######'  #'      '#     '####' # '####'        



                #########################################################
                #                        -***-                          #
                #          Department of theory and spectroscopy        #
                #                                                       #
                #                      Frank Neese                      #
                #                                                       #
                #     Directorship, Architecture, Infrastructure        #
                #                    SHARK, DRIVERS                     #
                #        Core code/Algorithms in most modules           #
                #                                                       #
                #        Max Planck Institute fuer Kohlenforschung      #
                #                Kaiser Wilhelm Platz 1                 #
                #                 D-45470 Muelheim/Ruhr                 #
                #                      Germany                          #
                #                                                       #
                #                  All rights reserved                  #
                #                        -***-                          #
                #########################################################


                         Program Version 6.0.0  -   RELEASE  -


 With contributions from (in alphabetic order):
   Daniel Aravena         : Magnetic Suceptibility
   Michael Atanasov       : Ab Initio Ligand Field Theory (pilot matlab implementation)
   Alexander A. Auer      : GIAO ZORA, VPT2 properties, NMR spectrum
   Ute Becker             : All parallelization in ORCA, NUMFREQ, NUMCALC
   Giovanni Bistoni       : ED, misc. LED, open-shell LED, HFLD
   Martin Brehm           : Molecular dynamics
   Dmytro Bykov           : pre 5.0 version of the SCF Hessian
   Marcos Casanova-Páez   : Triplet and SCS-CIS(D). UHF-(DLPNO)-IP/EA/STEOM-CCSD. UHF-CVS-IP/STEOM-CCSD
   Vijay G. Chilkuri      : MRCI spin determinant printing, contributions to CSF-ICE
   Pauline Colinet        : FMM embedding
   Dipayan Datta          : RHF DLPNO-CCSD density
   Achintya Kumar Dutta   : EOM-CC, STEOM-CC
   Nicolas Foglia         : Exact transition moments, OPA infrastructure, MCD improvements
   Dmitry Ganyushin       : Spin-Orbit,Spin-Spin,Magnetic field MRCI
   Miquel Garcia          : C-PCM and meta-GGA Hessian, CCSD/C-PCM, Gaussian charge scheme
   Tiago L. C. Gouveia    : GS-ROHF, GS-ROCIS
   Yang Guo               : DLPNO-NEVPT2, F12-NEVPT2, CIM, IAO-localization
   Andreas Hansen         : Spin unrestricted coupled pair/coupled cluster methods
   Ingolf Harden          : AUTO-CI MPn and infrastructure 
   Benjamin Helmich-Paris : MC-RPA, TRAH-(SCF,CASSCF), AVAS, COSX integrals, SCF dyn. polar.
   Lee Huntington         : MR-EOM, pCC
   Robert Izsak           : Overlap fitted RIJCOSX, COSX-SCS-MP3, EOM
   Riya Kayal             : Wick's Theorem for AUTO-CI, AUTO-CI UHF-CCSDT
   Emily Kempfer          : AUTO-CI, RHF CISDT and CCSDT
   Christian Kollmar      : KDIIS, OOCD, Brueckner-CCSD(T), CCSD density, CASPT2, CASPT2-K, improved NEVPT2
   Axel Koslowski         : Symmetry handling
   Simone Kossmann        : Meta GGA functionals, TD-DFT gradient, OOMP2, (MP2 Hessian; deprecated post 5.0)
   Lucas Lang             : DCDCAS
   Marvin Lechner         : AUTO-CI (C++ implementation), FIC-MRCC
   Spencer Leger          : CASSCF response
   Dagmar Lenk            : GEPOL surface, SMD, ORCA-2-JSON
   Dimitrios Liakos       : Extrapolation schemes; Compound Job, initial MDCI parallelization
   Dimitrios Manganas     : Further ROCIS development; embedding schemes. LFT, Crystal Embedding
   Dimitrios Pantazis     : SARC Basis sets
   Anastasios Papadopoulos: AUTO-CI, single reference methods and gradients
   Taras Petrenko         : pre 6.0 DFT Hessian and TD-DFT gradient, (ASA, deprecated), ECA, 1-Electron XAS/XES, NRVS
   Peter Pinski           : DLPNO-MP2, DLPNO-MP2 Gradient
   Christoph Reimann      : Effective Core Potentials
   Marius Retegan         : Local ZFS, SOC
   Christoph Riplinger    : Optimizer, TS searches, QM/MM, DLPNO-CCSD(T), (RO)-DLPNO pert. Triples
   Michael Roemelt        : Original ROCIS implementation
   Masaaki Saitow         : Open-shell DLPNO-CCSD energy and density
   Barbara Sandhoefer     : DKH picture change effects
   Kantharuban Sivalingam : CASSCF convergence/infrastructure, NEVPT2 and variants, FIC-MRCI
   Bernardo de Souza      : ESD, SOC TD-DFT
   Georgi Stoychev        : AutoAux, RI-MP2 NMR, DLPNO-MP2 response, X2C
   Van Anh Tran           : RI-MP2 g-tensors
   Willem Van den Heuvel  : Paramagnetic NMR
   Zikuan Wang            : NOTCH, Electric field optimization 
   Frank Wennmohs         : Technical directorship and infrastructure
   Hang Xu                : AUTO-CI-Response properties 


 We gratefully acknowledge several colleagues who have allowed us to
 interface, adapt or use parts of their codes:
   Stefan Grimme, W. Hujo, H. Kruse, P. Pracht,  : VdW corrections, initial TS optimization,
                  C. Bannwarth, S. Ehlert,         DFT functionals, gCP, sTDA/sTD-DF
                  L. Wittmann, M. Mueller
   Ed Valeev, F. Pavosevic, A. Kumar             : LibInt (2-el integral package), F12 methods
   Garnet Chan, S. Sharma, J. Yang, R. Olivares  : DMRG
   Ulf Ekstrom                                   : XCFun DFT Library
   Mihaly Kallay                                 : mrcc  (arbitrary order and MRCC methods)
   Frank Weinhold                                : gennbo (NPA and NBO analysis)
   Simon Mueller                                 : openCOSMO-RS
   Christopher J. Cramer and Donald G. Truhlar   : smd solvation model
   Lars Goerigk                                  : TD-DFT with DH, B97 family of functionals
   V. Asgeirsson, H. Jonsson                     : NEB implementation
   FAccTs GmbH                                   : IRC, NEB, NEB-TS, DLPNO-Multilevel, CI-OPT
                                                   MM, QMMM, 2- and 3-layer-ONIOM, Crystal-QMMM,
                                                   LR-CPCM, SF, NACMEs, symmetry and pop. for TD-DFT,
                                                   nearIR, NL-DFT gradient (VV10), updates on ESD,
                                                   ML-optimized integration grids, MBIS, APM,
                                                   GOAT, DOCKER, SOLVATOR, interface openCOSMO-RS
   S Lehtola, MJT Oliveira, MAL Marques          : LibXC Library
   Liviu Ungur et al                             : ANISO software


 Your calculation uses the libint2 library for the computation of 2-el integrals
 For citations please refer to: http://libint.valeyev.net

 Your ORCA version has been built with support for libXC version: 6.2.2
 For citations please refer to: https://libxc.gitlab.io

 This ORCA versions uses:
   CBLAS   interface :  Fast vector & matrix operations
   LAPACKE interface :  Fast linear algebra routines
   SCALAPACK package :  Parallel linear algebra routines
   Shared memory     :  Shared parallel matrices
   BLAS/LAPACK       :  OpenBLAS 0.3.27  USE64BITINT DYNAMIC_ARCH NO_AFFINITY SkylakeX SINGLE_THREADED
        Core in use  :  SkylakeX
   Copyright (c) 2011-2014, The OpenBLAS Project


Your calculation utilizes the geometrical counterpoise correction gCP
Please cite in your paper:
H.Kruse, S. Grimme J.Chem.Phys., 136, (2012), 154101 
   

Your calculation utilizes the atom-pairwise dispersion correction
based on EEQ partial charges (D4)


================================================================================

----- Orbital basis set information -----
Your calculation utilizes the basis: def2-SV(P)
   F. Weigend and R. Ahlrichs, Phys. Chem. Chem. Phys. 7, 3297 (2005).

----- AuxJ basis set information -----
Your calculation utilizes the auxiliary basis: def2/J
   F. Weigend, Phys. Chem. Chem. Phys. 8, 1057 (2006).

================================================================================
                                        WARNINGS
                       Please study these warnings very carefully!
================================================================================


================================================================================
                                       INPUT FILE
================================================================================
NAME = sp.inp
|  1> ! pbe def2-sv(p) def2/J RI DEFGRID1 loosescf d4 GCP(DFT/SV(P)) printgap
|  2> %output
|  3>     printlevel normal
|  4> end
|  5> * xyz 0 1
|  6> C -1.0275553423 -0.3635545033 -0.3836415592
|  7> C 0.14502165 0.3843126381 0.2649635305
|  8> C 1.4712133578 -0.0942391139 -0.3471859162
|  9> O 1.6655543219 -1.4422173957 0.0147154963
| 10> O -0.0442765058 1.7659967647 0.0600878007
| 11> O -2.2430156736 -0.2215922685 0.3077351719
| 12> H -0.7516147592 -1.4211088476 -0.4756718737
| 13> H -1.2016453591 0.0576675942 -1.375952117
| 14> H 0.1607351573 0.1493792778 1.3402514983
| 15> H 2.2882868204 0.5302793266 0.0384064112
| 16> H 1.4199080172 0.0232120985 -1.4367740346
| 17> H 2.4855907063 -1.7666904085 -0.3829424618
| 18> H 0.602602542 2.2696894863 0.5736623553
| 19> H -2.1495686172 -0.5888733612 1.1981373694
| 20> *
| 21> 
| 22>                          ****END OF INPUT****
================================================================================

                       ****************************
                       * Single Point Calculation *
                       ****************************

---------------------------------
CARTESIAN COORDINATES (ANGSTROEM)
---------------------------------
  C     -1.027555   -0.363555   -0.383642
  C      0.145022    0.384313    0.264964
  C      1.471213   -0.094239   -0.347186
  O      1.665554   -1.442217    0.014715
  O     -0.044277    1.765997    0.060088
  O     -2.243016   -0.221592    0.307735
  H     -0.751615   -1.421109   -0.475672
  H     -1.201645    0.057668   -1.375952
  H      0.160735    0.149379    1.340251
  H      2.288287    0.530279    0.038406
  H      1.419908    0.023212   -1.436774
  H      2.485591   -1.766690   -0.382942
  H      0.602603    2.269689    0.573662
  H     -2.149569   -0.588873    1.198137

----------------------------
CARTESIAN COORDINATES (A.U.)
----------------------------
  NO LB      ZA    FRAG     MASS         X           Y           Z
   0 C     6.0000    0    12.011   -1.941798   -0.687018   -0.724977
   1 C     6.0000    0    12.011    0.274051    0.726246    0.500709
   2 C     6.0000    0    12.011    2.780190   -0.178086   -0.656086
   3 O     8.0000    0    15.999    3.147442   -2.725396    0.027808
   4 O     8.0000    0    15.999   -0.083670    3.337250    0.113549
   5 O     8.0000    0    15.999   -4.238685   -0.418749    0.581535
   6 H     1.0000    0     1.008   -1.420346   -2.685507   -0.898890
   7 H     1.0000    0     1.008   -2.270781    0.108976   -2.600173
   8 H     1.0000    0     1.008    0.303745    0.282286    2.532708
   9 H     1.0000    0     1.008    4.324235    1.002083    0.072578
  10 H     1.0000    0     1.008    2.683237    0.043865   -2.715109
  11 H     1.0000    0     1.008    4.697086   -3.338561   -0.723656
  12 H     1.0000    0     1.008    1.138754    4.289092    1.084065
  13 H     1.0000    0     1.008   -4.062096   -1.112809    2.264151

--------------------------------
INTERNAL COORDINATES (ANGSTROEM)
--------------------------------
 C      0   0   0     0.000000000000     0.00000000     0.00000000
 C      1   0   0     1.534578322029     0.00000000     0.00000000
 C      2   1   0     1.537050152166   109.82933884     0.00000000
 O      3   2   1     1.409179367895   108.33265181   293.70177046
 O      2   1   3     1.409559818578   108.27978196   121.71524485
 O      1   2   3     1.405524413655   113.80637986   166.40927269
 H      1   2   3     1.096829054747   108.24756064    42.66936931
 H      1   2   3     1.091977853481   108.53670569   283.75708160
 H      2   1   3     1.100765557141   108.64918128   241.97780849
 H      3   2   1     1.098323162261   108.96678610   173.36708631
 H      3   2   1     1.097100402437   108.77514496    54.87040772
 H      4   3   2     0.967405943446   109.40080632   178.48663560
 H      5   2   1     0.967428386708   110.08395418   171.21251477
 H      6   1   2     0.967700277316   109.31521126   298.44294316

---------------------------
INTERNAL COORDINATES (A.U.)
---------------------------
 C      0   0   0     0.000000000000     0.00000000     0.00000000
 C      1   0   0     2.899932759688     0.00000000     0.00000000
 C      2   1   0     2.904603841697   109.82933884     0.00000000
 O      3   2   1     2.662963078894   108.33265181   293.70177046
 O      2   1   3     2.663682026492   108.27978196   121.71524485
 O      1   2   3     2.656056216348   113.80637986   166.40927269
 H      1   2   3     2.072706529199   108.24756064    42.66936931
 H      1   2   3     2.063539087386   108.53670569   283.75708160
 H      2   1   3     2.080145440651   108.64918128   241.97780849
 H      3   2   1     2.075529983216   108.96678610   173.36708631
 H      3   2   1     2.073219302020   108.77514496    54.87040772
 H      4   3   2     1.828132293442   109.40080632   178.48663560
 H      5   2   1     1.828174705059   110.08395418   171.21251477
 H      6   1   2     1.828688503847   109.31521126   298.44294316

---------------------
BASIS SET INFORMATION
---------------------
There are 3 groups of distinct atoms

 Group   1 Type C   : 7s4p1d contracted to 3s2p1d pattern {511/31/1}
 Group   2 Type O   : 7s4p1d contracted to 3s2p1d pattern {511/31/1}
 Group   3 Type H   : 4s contracted to 2s pattern {31}

Atom   0C    basis set group =>   1
Atom   1C    basis set group =>   1
Atom   2C    basis set group =>   1
Atom   3O    basis set group =>   2
Atom   4O    basis set group =>   2
Atom   5O    basis set group =>   2
Atom   6H    basis set group =>   3
Atom   7H    basis set group =>   3
Atom   8H    basis set group =>   3
Atom   9H    basis set group =>   3
Atom  10H    basis set group =>   3
Atom  11H    basis set group =>   3
Atom  12H    basis set group =>   3
Atom  13H    basis set group =>   3
---------------------------------
AUXILIARY/J BASIS SET INFORMATION
---------------------------------
There are 3 groups of distinct atoms

 Group   1 Type C   : 12s5p4d2f1g contracted to 6s4p3d1f1g pattern {711111/2111/211/2/1}
 Group   2 Type O   : 12s5p4d2f1g contracted to 6s4p3d1f1g pattern {711111/2111/211/2/1}
 Group   3 Type H   : 5s2p1d contracted to 3s1p1d pattern {311/2/1}

Atom   0C    basis set group =>   1
Atom   1C    basis set group =>   1
Atom   2C    basis set group =>   1
Atom   3O    basis set group =>   2
Atom   4O    basis set group =>   2
Atom   5O    basis set group =>   2
Atom   6H    basis set group =>   3
Atom   7H    basis set group =>   3
Atom   8H    basis set group =>   3
Atom   9H    basis set group =>   3
Atom  10H    basis set group =>   3
Atom  11H    basis set group =>   3
Atom  12H    basis set group =>   3
Atom  13H    basis set group =>   3
------------------------------------------------------------------------------
                             ORCA STARTUP CALCULATIONS
                           -- RI-GTO INTEGRALS CHOSEN --
------------------------------------------------------------------------------
------------------------------------------------------------------------------
                   ___                                                        
                  /   \      - P O W E R E D   B Y -                         
                 /     \                                                     
                 |  |  |   _    _      __       _____    __    __             
                 |  |  |  | |  | |    /  \     |  _  \  |  |  /  |          
                  \  \/   | |  | |   /    \    | | | |  |  | /  /          
                 / \  \   | |__| |  /  /\  \   | |_| |  |  |/  /          
                |  |  |   |  __  | /  /__\  \  |    /   |      \           
                |  |  |   | |  | | |   __   |  |    \   |  |\   \          
                \     /   | |  | | |  |  |  |  | |\  \  |  | \   \       
                 \___/    |_|  |_| |__|  |__|  |_| \__\ |__|  \__/        
                                                                              
                      - O R C A' S   B I G   F R I E N D -                    
                                      &                                       
                       - I N T E G R A L  F E E D E R -                       
                                                                              
 v1 FN, 2020, v2 2021, v3 2022-2024                                           
------------------------------------------------------------------------------


----------------------
SHARK INTEGRAL PACKAGE
----------------------

Number of atoms                             ...     14
Number of basis functions                   ...    100
Number of shells                            ...     52
Maximum angular momentum                    ...      2
Integral batch strategy                     ... SHARK/LIBINT Hybrid
RI-J (if used) integral strategy            ... SPLIT-RIJ (Revised 2003 algorithm where possible)
Printlevel                                  ...      1
Contraction scheme used                     ... SEGMENTED contraction
Prescreening option                         ... SCHWARTZ
   Thresh                                   ... 1.000e-09
   Tcut                                     ... 1.000e-10
   Tpresel                                  ... 1.000e-10 
Coulomb Range Separation                    ... NOT USED
Exchange Range Separation                   ... NOT USED
Multipole approximations                    ... NOT USED
Finite Nucleus Model                        ... NOT USED
CABS basis                                  ... NOT available
Auxiliary Coulomb fitting basis             ... AVAILABLE
   # of basis functions in Aux-J            ...    382
   # of shells in Aux-J                     ...    130
   Maximum angular momentum in Aux-J        ...      4
Auxiliary J/K fitting basis                 ... NOT available
Auxiliary Correlation fitting basis         ... NOT available
Auxiliary 'external' fitting basis          ... NOT available

Checking pre-screening integrals            ... done (  0.0 sec) Dimension = 52
Check shell pair data                       ... done (  0.0 sec)
Shell pair information
Shell pair cut-off parameter TPreSel        ...   1.0e-10
Total number of shell pairs                 ...      1378
Shell pairs after pre-screening             ...      1324
Total number of primitive shell pairs       ...      5562
Primitive shell pairs kept                  ...      3936
          la=0 lb=0:    569 shell pairs
          la=1 lb=0:    396 shell pairs
          la=1 lb=1:     77 shell pairs
          la=2 lb=0:    192 shell pairs
          la=2 lb=1:     70 shell pairs
          la=2 lb=2:     20 shell pairs

Calculating one electron integrals          ... done (  0.0 sec)
Calculating RI/J V-Matrix + Cholesky decomp.... done (  0.1 sec)
Calculating Nuclear repulsion               ... done (  0.0 sec) ENN=    260.487947376195 Eh

Diagonalization of the overlap matrix:
Smallest eigenvalue                        ... 2.079e-03
Time for diagonalization                   ...    0.001 sec
Threshold for overlap eigenvalues          ... 1.000e-07
Number of eigenvalues below threshold      ... 0
Time for construction of square roots      ...    0.012 sec
Total time needed                          ...    0.020 sec

-------------------
DFT GRID GENERATION
-------------------

General Integration Accuracy     IntAcc      ... 4.159
Radial Grid Type                 RadialGrid  ... OptM3 with GC (2021)
Angular Grid (max. ang.)         AngularGrid ... 3 (Lebedev-194)
Angular grid pruning method      GridPruning ... 4 (adaptive)
Weight generation scheme         WeightScheme... mBecke (2022)
Basis function cutoff            BFCut       ... 1.0000e-10
Integration weight cutoff        WCut        ... 1.0000e-14
Partially contracted basis set               ... off
Rotationally invariant grid construction     ... off
Angular grids for H and He will be reduced by one unit

Total number of grid points                  ...    31093
Total number of batches                      ...      491
Average number of points per batch           ...       63
Average number of grid points per atom       ...     2221
Initializing property integral containers    ... done (  0.0 sec)

SHARK setup successfully completed in   0.5 seconds

Maximum memory used throughout the entire STARTUP-calculation: 15.2 MB
-------------------------------------------------------------------------------
                                 ORCA GUESS
                   Start orbitals & Density for SCF / CASSCF
-------------------------------------------------------------------------------

------------
SCF SETTINGS
------------
Hamiltonian:
 Density Functional     Method          .... DFT(GTOs)
 Exchange Functional    Exchange        .... PBE
   PBE kappa parameter   XKappa         ....  0.804000
   PBE mue parameter    XMuePBE         ....  0.219520
 Correlation Functional Correlation     .... PBE
   PBE beta parameter  CBetaPBE         ....  0.066725
 LDA part of GGA corr.  LDAOpt          .... PW91-LDA
 Gradients option       PostSCFGGA      .... off
   NL short-range parameter             ....  6.400000
 RI-approximation to the Coulomb term is turned on
   Number of AuxJ basis functions       .... 382


General Settings:
 Integral files         IntName         .... sp
 Hartree-Fock type      HFTyp           .... RHF
 Total Charge           Charge          ....    0
 Multiplicity           Mult            ....    1
 Number of Electrons    NEL             ....   50
 Basis Dimension        Dim             ....  100
 Nuclear Repulsion      ENuc            ....    260.4879473762 Eh

Convergence Acceleration:
 AO-DIIS                CNVDIIS         .... on
   Start iteration      DIISMaxIt       ....    12
   Startup error        DIISStart       ....  0.200000
   # of expansion vecs  DIISMaxEq       ....     5
   Bias factor          DIISBfac        ....   1.050
   Max. coefficient     DIISMaxC        ....  10.000
 MO-DIIS                CNVKDIIS        .... off
 Trust-Rad. Augm. Hess. CNVTRAH         .... auto
   Auto Start mean grad. ratio tolernc. ....  1.125000
   Auto Start start iteration           ....    50
   Auto Start num. interpolation iter.  ....    10
   Max. Number of Micro iterations      ....    24
   Max. Number of Macro iterations      .... Maxiter - #DIIS iter
   Number of Davidson start vectors     ....     2
   Converg. threshold    (grad. norm)   ....   1.000e-04
   Grad. Scal. Fac. for Micro threshold ....   0.100
   Minimum threshold for Micro iter.    ....   1.000e-02
   NR start threshold (gradient norm)   ....   1.000e-04
   Initial trust radius                 ....   0.400
   Minimum AH scaling param. (alpha)    ....   1.000
   Maximum AH scaling param. (alpha)    .... 1000.000
   Quad. conv. algorithm                .... NR
   White noise on init. David. guess    .... on
   Maximum white noise                  ....   0.010
   Pseudo random numbers                .... off
   Inactive MOs                         .... canonical
   Orbital update algorithm             .... Taylor
   Preconditioner                       .... Diag
   Full preconditioner red. dimension   ....   250
 SOSCF                  CNVSOSCF        .... on
   Start iteration      SOSCFMaxIt      ....   150
   Startup grad/error   SOSCFStart      ....  0.003300
   Hessian update       SOSCFHessUp     .... L-BFGS
 Level Shifting         CNVShift        .... on
   Level shift para.    LevelShift      ....    0.2500
   Turn off err/grad.   ShiftErr        ....    0.0010
 Zerner damping         CNVZerner       .... off
 Static damping         CNVDamp         .... on
   Fraction old density DampFac         ....    0.7000
   Max. Damping (<1)    DampMax         ....    0.9800
   Min. Damping (>=0)   DampMin         ....    0.0000
   Turn off err/grad.   DampErr         ....    0.1000

SCF Procedure:
 Maximum # iterations   MaxIter         ....   125
 SCF integral mode      SCFMode         .... Direct
   Integral package                     .... SHARK and LIBINT hybrid scheme
 Reset frequency        DirectResetFreq ....    20
 Integral Threshold     Thresh          ....  1.000e-09 Eh
 Primitive CutOff       TCut            ....  1.000e-10 Eh

Convergence Tolerance:
 Convergence Check Mode ConvCheckMode   .... Total+1el-Energy
 Convergence forced     ConvForced      .... 0
 Energy Change          TolE            ....  1.000e-05 Eh
 1-El. energy change                    ....  1.000e-02 Eh
 Orbital Gradient       TolG            ....  1.000e-04
 Orbital Rotation angle TolX            ....  1.000e-04
 DIIS Error             TolErr          ....  5.000e-04

------------------------------
INITIAL GUESS: MODEL POTENTIAL
------------------------------
Loading Hartree-Fock densities                     ... done
Calculating cut-offs                               ... done
Initializing the effective Hamiltonian             ... done
Setting up the integral package (SHARK)            ... done
Starting the Coulomb interaction                   ... done (   0.1 sec)
Making the grid                                    ... done (   0.1 sec)
Mapping shells                                     ... done
Starting the XC term evaluation                    ... done (   0.1 sec)
  promolecular density results
     # of electrons  =     49.995589060
     EX              =    -42.174020262
     EC              =     -1.664100016
     EX+EC           =    -43.838120278
Transforming the Hamiltonian                       ... done (   0.0 sec)
Diagonalizing the Hamiltonian                      ... done (   0.0 sec)
Back transforming the eigenvectors                 ... done (   0.0 sec)
Now organizing SCF variables                       ... done
                      ------------------
                      INITIAL GUESS DONE (   0.4 sec)
                      ------------------
             **** ENERGY FILE WAS UPDATED (sp.en.tmp) ****
Finished Guess after   0.5 sec
Maximum memory used throughout the entire GUESS-calculation: 11.7 MB

-------------------------------------------------------------------------------------------
                                      ORCA LEAN-SCF
                              memory conserving SCF solver
-------------------------------------------------------------------------------------------

----------------------------------------D-I-I-S--------------------------------------------
Iteration    Energy (Eh)           Delta-E    RMSDP     MaxDP     DIISErr   Damp  Time(sec)
-------------------------------------------------------------------------------------------
               ***  Starting incremental Fock matrix formation  ***
    1    -343.8852239699859865     0.00e+00  6.50e-03  9.28e-02  2.34e-01  0.700   0.6
    2    -343.9799644008915038    -9.47e-02  4.20e-03  6.49e-02  9.28e-02  0.700   0.6
                               ***Turning on AO-DIIS***
    3    -344.0098627451142193    -2.99e-02  1.50e-03  1.56e-02  1.86e-02  0.700   0.6
    4    -344.0294054732872837    -1.95e-02  1.96e-03  2.30e-02  1.10e-02  0.000   0.6
    5    -344.0749482192379674    -4.55e-02  6.30e-04  1.03e-02  6.82e-03  0.000   0.6
                              *** Initializing SOSCF ***
---------------------------------------S-O-S-C-F--------------------------------------
Iteration    Energy (Eh)           Delta-E    RMSDP     MaxDP     MaxGrad    Time(sec)
--------------------------------------------------------------------------------------
    6    -344.0752030756610793    -2.55e-04  2.14e-04  2.87e-03  1.21e-03     0.6
               *** Restarting incremental Fock matrix formation ***
    7    -344.0752238692143692    -2.08e-05  1.40e-04  1.68e-03  2.34e-04     0.6
    8    -344.0752244633973760    -5.94e-07  4.49e-05  6.75e-04  2.26e-04     0.5
                 **** Energy Check signals convergence ****

               *****************************************************
               *                     SUCCESS                       *
               *           SCF CONVERGED AFTER   8 CYCLES          *
               *****************************************************

             **** ENERGY FILE WAS UPDATED (sp.en.tmp) ****

----------------
TOTAL SCF ENERGY
----------------

Total Energy       :       -344.07522446339738 Eh           -9362.76285 eV

Components:
Nuclear Repulsion  :        260.48794737619494 Eh            7088.23741 eV
Electronic Energy  :       -604.56317183959231 Eh          -16451.00026 eV
One Electron Energy:       -987.26046121532374 Eh          -26864.72293 eV
Two Electron Energy:        382.69728937573143 Eh           10413.72267 eV

Virial components:
Potential Energy   :       -685.82298986907472 Eh          -18662.19232 eV
Kinetic Energy     :        341.74776540567728 Eh            9299.42947 eV
Virial Ratio       :          2.00681045874567

DFT components:
N(Alpha)           :       24.999919464671 electrons
N(Beta)            :       24.999919464671 electrons
N(Total)           :       49.999838929342 electrons
E(X)               :      -42.973392160243 Eh       
E(C)               :       -1.680899117428 Eh       
E(XC)              :      -44.654291277672 Eh       

---------------
SCF CONVERGENCE
---------------

  Last Energy change         ...    5.9418e-07  Tolerance :   1.0000e-05
  Last MAX-Density change    ...    6.7492e-04  Tolerance :   1.0000e-03
  Last RMS-Density change    ...    4.4859e-05  Tolerance :   1.0000e-04
  Last DIIS Error            ...    1.2074e-03  Tolerance :   5.0000e-04
  Last Orbital Gradient      ...    2.2581e-04  Tolerance :   1.0000e-04
  Last Orbital Rotation      ...    1.4112e-04  Tolerance :   1.0000e-04


----------------
ORBITAL ENERGIES
----------------

  NO   OCC          E(Eh)            E(eV) 
   0   2.0000     -18.756197      -510.3821 
   1   2.0000     -18.747287      -510.1396 
   2   2.0000     -18.731876      -509.7203 
   3   2.0000      -9.937037      -270.4005 
   4   2.0000      -9.935106      -270.3480 
   5   2.0000      -9.918813      -269.9046 
   6   2.0000      -0.935203       -25.4482 
   7   2.0000      -0.923192       -25.1213 
   8   2.0000      -0.905444       -24.6384 
   9   2.0000      -0.680300       -18.5119 
  10   2.0000      -0.600223       -16.3329 
  11   2.0000      -0.534259       -14.5379 
  12   2.0000      -0.490200       -13.3390 
  13   2.0000      -0.452386       -12.3101 
  14   2.0000      -0.450987       -12.2720 
  15   2.0000      -0.395249       -10.7553 
  16   2.0000      -0.388533       -10.5725 
  17   2.0000      -0.363375        -9.8879 
  18   2.0000      -0.345059        -9.3895 
  19   2.0000      -0.299277        -8.1437 
  20   2.0000      -0.292524        -7.9600 
  21   2.0000      -0.260669        -7.0932 
  22   2.0000      -0.228081        -6.2064 
  23   2.0000      -0.219284        -5.9670 
  24   2.0000      -0.201011        -5.4698 
  25   0.0000       0.018718         0.5093 
  26   0.0000       0.023132         0.6295 
  27   0.0000       0.042707         1.1621 
  28   0.0000       0.079585         2.1656 
  29   0.0000       0.093196         2.5360 
  30   0.0000       0.112847         3.0707 
  31   0.0000       0.123740         3.3671 
  32   0.0000       0.133549         3.6340 
  33   0.0000       0.150104         4.0845 
  34   0.0000       0.200100         5.4450 
  35   0.0000       0.206845         5.6285 
*Only the first 10 virtual orbitals were printed.

                    ********************************
                    * MULLIKEN POPULATION ANALYSIS *
                    ********************************

-----------------------
MULLIKEN ATOMIC CHARGES
-----------------------
   0 C :    0.041739
   1 C :   -0.011428
   2 C :   -0.000428
   3 O :   -0.432883
   4 O :   -0.413979
   5 O :   -0.432049
   6 H :    0.087048
   7 H :    0.084300
   8 H :    0.050557
   9 H :    0.059948
  10 H :    0.075504
  11 H :    0.304041
  12 H :    0.296305
  13 H :    0.291326
Sum of atomic charges:    0.0000000

--------------------------------
MULLIKEN REDUCED ORBITAL CHARGES
--------------------------------
  0 C s       :     3.040528  s :     3.040528
      pz      :     1.017979  p :     2.854923
      px      :     0.811069
      py      :     1.025876
      dz2     :     0.013071  d :     0.062809
      dxz     :     0.013907
      dyz     :     0.006088
      dx2y2   :     0.016023
      dxy     :     0.013720

  1 C s       :     3.075639  s :     3.075639
      pz      :     1.054164  p :     2.867468
      px      :     1.039165
      py      :     0.774140
      dz2     :     0.014864  d :     0.068320
      dxz     :     0.005951
      dyz     :     0.013822
      dx2y2   :     0.017825
      dxy     :     0.015858

  2 C s       :     3.046437  s :     3.046437
      pz      :     1.046935  p :     2.891852
      px      :     1.066712
      py      :     0.778205
      dz2     :     0.015020  d :     0.062139
      dxz     :     0.004715
      dyz     :     0.012865
      dx2y2   :     0.014133
      dxy     :     0.015406

  3 O s       :     3.790850  s :     3.790850
      pz      :     1.785935  p :     4.626709
      px      :     1.490787
      py      :     1.349987
      dz2     :     0.001543  d :     0.015325
      dxz     :     0.003516
      dyz     :     0.002947
      dx2y2   :     0.004958
      dxy     :     0.002360

  4 O s       :     3.788293  s :     3.788293
      pz      :     1.731078  p :     4.610274
      px      :     1.640097
      py      :     1.239100
      dz2     :     0.001371  d :     0.015411
      dxz     :     0.003852
      dyz     :     0.003307
      dx2y2   :     0.002677
      dxy     :     0.004204

  5 O s       :     3.787010  s :     3.787010
      pz      :     1.287987  p :     4.629369
      px      :     1.511494
      py      :     1.829888
      dz2     :     0.004607  d :     0.015671
      dxz     :     0.002475
      dyz     :     0.003140
      dx2y2   :     0.003134
      dxy     :     0.002315

  6 H s       :     0.912952  s :     0.912952

  7 H s       :     0.915700  s :     0.915700

  8 H s       :     0.949443  s :     0.949443

  9 H s       :     0.940052  s :     0.940052

 10 H s       :     0.924496  s :     0.924496

 11 H s       :     0.695959  s :     0.695959

 12 H s       :     0.703695  s :     0.703695

 13 H s       :     0.708674  s :     0.708674


------------------------
MULLIKEN OVERLAP CHARGES
------------------------
B(  0-C ,  1-C ) :   0.5712 B(  0-C ,  4-O ) :  -0.1119 B(  0-C ,  5-O ) :   0.7081 
B(  0-C ,  6-H ) :   0.7080 B(  0-C ,  7-H ) :   0.6418 B(  0-C ,  8-H ) :  -0.1117 
B(  0-C , 10-H ) :  -0.0567 B(  0-C , 13-H ) :  -0.0985 B(  1-C ,  2-C ) :   0.4228 
B(  1-C ,  3-O ) :  -0.1233 B(  1-C ,  4-O ) :   0.5973 B(  1-C ,  5-O ) :  -0.0956 
B(  1-C ,  6-H ) :  -0.1369 B(  1-C ,  8-H ) :   0.6607 B(  1-C , 12-H ) :  -0.0727 
B(  2-C ,  3-O ) :   0.5804 B(  2-C ,  4-O ) :  -0.0714 B(  2-C ,  8-H ) :  -0.0987 
B(  2-C ,  9-H ) :   0.6613 B(  2-C , 10-H ) :   0.6611 B(  3-O ,  6-H ) :   0.0508 
B(  3-O ,  9-H ) :  -0.0508 B(  3-O , 10-H ) :  -0.0579 B(  3-O , 11-H ) :   0.5046 
B(  4-O ,  8-H ) :  -0.0561 B(  4-O , 12-H ) :   0.5186 B(  5-O ,  6-H ) :  -0.0609 
B(  5-O ,  7-H ) :  -0.0632 B(  5-O , 13-H ) :   0.5307 B(  6-H ,  7-H ) :  -0.0596 
B(  9-H , 10-H ) :  -0.1131 


                     *******************************
                     * LOEWDIN POPULATION ANALYSIS *
                     *******************************

----------------------
LOEWDIN ATOMIC CHARGES
----------------------
   0 C :   -0.130658
   1 C :   -0.088787
   2 C :   -0.138448
   3 O :   -0.343558
   4 O :   -0.319246
   5 O :   -0.334747
   6 H :    0.101510
   7 H :    0.117808
   8 H :    0.093834
   9 H :    0.089979
  10 H :    0.099967
  11 H :    0.289021
  12 H :    0.283404
  13 H :    0.279921

-------------------------------
LOEWDIN REDUCED ORBITAL CHARGES
-------------------------------
  0 C s       :     2.920417  s :     2.920417
      pz      :     1.050989  p :     3.067465
      px      :     0.909459
      py      :     1.107016
      dz2     :     0.028300  d :     0.142777
      dxz     :     0.031729
      dyz     :     0.013847
      dx2y2   :     0.036566
      dxy     :     0.032335

  1 C s       :     2.902418  s :     2.902418
      pz      :     1.088147  p :     3.028522
      px      :     1.069286
      py      :     0.871088
      dz2     :     0.034532  d :     0.157847
      dxz     :     0.015154
      dyz     :     0.030635
      dx2y2   :     0.040798
      dxy     :     0.036729

  2 C s       :     2.931266  s :     2.931266
      pz      :     1.103511  p :     3.064884
      px      :     1.086571
      py      :     0.874802
      dz2     :     0.035021  d :     0.142298
      dxz     :     0.010903
      dyz     :     0.028082
      dx2y2   :     0.033681
      dxy     :     0.034611

  3 O s       :     3.542777  s :     3.542777
      pz      :     1.810005  p :     4.774061
      px      :     1.542601
      py      :     1.421456
      dz2     :     0.002469  d :     0.026720
      dxz     :     0.005272
      dyz     :     0.004907
      dx2y2   :     0.009390
      dxy     :     0.004681

  4 O s       :     3.540856  s :     3.540856
      pz      :     1.764750  p :     4.751377
      px      :     1.670952
      py      :     1.315675
      dz2     :     0.002218  d :     0.027012
      dxz     :     0.005568
      dyz     :     0.005827
      dx2y2   :     0.005770
      dxy     :     0.007630

  5 O s       :     3.541176  s :     3.541176
      pz      :     1.365842  p :     4.766380
      px      :     1.561028
      py      :     1.839510
      dz2     :     0.008540  d :     0.027191
      dxz     :     0.005151
      dyz     :     0.005295
      dx2y2   :     0.005110
      dxy     :     0.003095

  6 H s       :     0.898490  s :     0.898490

  7 H s       :     0.882192  s :     0.882192

  8 H s       :     0.906166  s :     0.906166

  9 H s       :     0.910021  s :     0.910021

 10 H s       :     0.900033  s :     0.900033

 11 H s       :     0.710979  s :     0.710979

 12 H s       :     0.716596  s :     0.716596

 13 H s       :     0.720079  s :     0.720079


---------------------------------
LOEWDIN BOND ORDERS (THRESH 0.050000)
---------------------------------
B(  0-C ,  1-C ) :   1.0650 B(  0-C ,  2-C ) :   0.0589 B(  0-C ,  4-O ) :   0.0586 
B(  0-C ,  5-O ) :   1.2551 B(  0-C ,  6-H ) :   0.9010 B(  0-C ,  7-H ) :   0.9062 
B(  1-C ,  2-C ) :   1.0543 B(  1-C ,  3-O ) :   0.0628 B(  1-C ,  4-O ) :   1.2207 
B(  1-C ,  5-O ) :   0.0798 B(  1-C ,  8-H ) :   0.8742 B(  2-C ,  3-O ) :   1.2259 
B(  2-C ,  4-O ) :   0.0898 B(  2-C ,  9-H ) :   0.9086 B(  2-C , 10-H ) :   0.9088 
B(  3-O , 11-H ) :   0.8866 B(  4-O , 12-H ) :   0.8861 B(  5-O , 13-H ) :   0.8918 


------------------------------------------
LOEWDIN REDUCED ORBITAL POPULATIONS PER MO
-------------------------------------------
THRESHOLD FOR PRINTING IS 0.1%%
                      0         1         2         3         4         5   
                 -18.75620 -18.74729 -18.73188  -9.93704  -9.93511  -9.91881
                   2.00000   2.00000   2.00000   2.00000   2.00000   2.00000
                  --------  --------  --------  --------  --------  --------
 0 C  s               0.0       0.0       0.0       0.0       0.0      99.6
 1 C  s               0.0       0.0       0.0      99.6       0.0       0.0
 2 C  s               0.0       0.0       0.0       0.0      99.6       0.0
 3 O  s              99.9       0.0       0.0       0.0       0.0       0.0
 3 O  py              0.0       0.0       0.0       0.0       0.1       0.0
 4 O  s               0.0      99.9       0.0       0.0       0.0       0.0
 4 O  py              0.0       0.0       0.0       0.1       0.0       0.0
 5 O  s               0.0       0.0      99.9       0.0       0.0       0.0

                      6         7         8         9        10        11   
                  -0.93520  -0.92319  -0.90544  -0.68030  -0.60022  -0.53426
                   2.00000   2.00000   2.00000   2.00000   2.00000   2.00000
                  --------  --------  --------  --------  --------  --------
 0 C  s               1.7       2.3       7.0       9.2      15.9       5.9
 0 C  pz              0.4       0.6       1.9       0.0       0.7       4.8
 0 C  px              0.1       0.3       6.4       5.2       0.3       2.8
 0 C  py              0.3       0.4       0.0       0.3       0.1       1.7
 0 C  dxz             0.0       0.0       0.5       0.1       0.1       0.0
 0 C  dx2y2           0.0       0.0       0.3       0.0       0.0       0.0
 0 C  dxy             0.0       0.0       0.0       0.0       0.0       0.1
 1 C  s               6.8       4.3       0.5      18.7       0.3      10.0
 1 C  pz              0.3       0.0       0.0       0.9       0.1       3.8
 1 C  px              0.1       1.1       0.7       0.3      12.9       0.3
 1 C  py              1.1       5.4       3.1       5.0       0.1       0.7
 1 C  dxz             0.0       0.0       0.0       0.0       0.2       0.0
 1 C  dx2y2           0.1       0.3       0.2       0.2       0.0       0.0
 2 C  s               9.0       1.9       0.0      12.1      15.9       3.5
 2 C  pz              0.6       0.0       0.0       0.1       0.0       2.0
 2 C  px              0.1       1.0       0.0       3.6       0.5       2.0
 2 C  py              3.4       5.2       0.2       1.5       1.4       0.1
 2 C  dz2             0.1       0.0       0.0       0.0       0.0       0.0
 2 C  dx2y2           0.3       0.3       0.0       0.1       0.0       0.0
 3 O  s              35.7      23.7       0.1       2.9       1.8       0.5
 3 O  pz              0.7       0.4       0.0       0.1       0.0       0.2
 3 O  px              0.6       0.5       0.0       2.2       1.8       0.8
 3 O  py              0.9       0.3       0.0       3.2       7.3       3.6
 3 O  dx2y2           0.0       0.0       0.0       0.1       0.1       0.0
 4 O  s              17.9      29.1      11.5       4.7       0.0       0.8
 4 O  pz              0.3       0.5       0.2       0.4       0.1       0.1
 4 O  px              0.5       0.7       0.4       0.4       1.0       1.4
 4 O  py              0.4       0.4       0.0       5.1       0.6      15.7
 4 O  dx2y2           0.0       0.0       0.0       0.0       0.0       0.1
 5 O  s               2.7       6.8      49.5       2.2       2.7       0.1
 5 O  pz              0.0       0.0       0.3       1.0       6.4      10.0
 5 O  px              0.2       0.4       2.1       0.8       3.1       1.4
 5 O  py              0.0       0.1       0.5       0.1       0.2       0.0
 6 H  s               0.4       0.1       0.8       2.1       3.8       3.0
 7 H  s               0.3       0.4       0.7       2.0       5.3       4.2
 8 H  s               1.0       0.5       0.0       3.6       0.0       6.0
 9 H  s               1.2       0.2       0.0       2.2       6.1       1.7
10 H  s               1.1       0.2       0.0       2.7       4.0       2.6
11 H  s               7.3       4.9       0.0       2.6       2.8       1.2
12 H  s               3.7       5.9       2.5       3.0       0.3       4.9
13 H  s               0.6       1.4      10.2       1.0       3.6       3.2

                     12        13        14        15        16        17   
                  -0.49020  -0.45239  -0.45099  -0.39525  -0.38853  -0.36337
                   2.00000   2.00000   2.00000   2.00000   2.00000   2.00000
                  --------  --------  --------  --------  --------  --------
 0 C  s               0.1       0.1       0.9       0.1       1.6       0.2
 0 C  pz              1.3       1.2       0.2      11.1       1.7       3.9
 0 C  px              1.4       2.7      11.4       0.9       0.9       3.0
 0 C  py              3.3       0.3       5.7       0.6       5.8      27.7
 0 C  dz2             0.0       0.0       0.0       0.0       0.0       0.2
 0 C  dxz             0.0       0.0       0.1       0.0       0.0       0.2
 0 C  dyz             0.0       0.0       0.0       0.1       0.0       0.0
 0 C  dx2y2           0.0       0.1       0.2       0.0       0.5       0.0
 1 C  s               0.2       1.2       0.1       0.1       0.9       0.2
 1 C  pz              6.7      12.6       2.3       4.7       0.1       0.8
 1 C  px              0.1       3.1       0.0      17.8       1.1       1.9
 1 C  py              8.3       0.6       3.9       0.7       1.8       5.2
 1 C  dxz             0.0       0.0       0.0       0.0       0.1       0.2
 1 C  dx2y2           0.0       0.2       0.0       0.0       0.1       0.5
 1 C  dxy             0.0       0.1       0.2       0.0       0.0       0.0
 2 C  s               1.8       0.2       0.1       0.2       0.0       0.0
 2 C  pz              7.4       3.3       5.8       9.1      11.6       3.1
 2 C  px              3.3       2.6       1.5       9.9      18.4       0.5
 2 C  py              7.3      10.1       2.9       3.1       0.4       0.2
 2 C  dz2             0.0       0.0       0.0       0.1       0.1       0.0
 2 C  dxz             0.1       0.0       0.0       0.0       0.2       0.0
 2 C  dyz             0.1       0.2       0.1       0.0       0.0       0.0
 2 C  dx2y2           0.1       0.2       0.2       0.0       0.0       0.1
 3 O  s               0.9       0.5       0.4       2.0       0.1       0.1
 3 O  pz              2.1       0.2       1.7       5.8       3.5       1.3
 3 O  px             10.3      10.6       3.4       1.3       2.3       2.1
 3 O  py              3.8       5.4      10.0       5.0       4.5       0.3
 3 O  dx2y2           0.0       0.1       0.1       0.0       0.0       0.0
 4 O  s               0.0       2.4       0.1       0.3       0.5       0.1
 4 O  pz              3.3       4.9       0.0       1.6       0.3       0.1
 4 O  px              1.4       4.3       1.9       5.6       2.0       0.3
 4 O  py             10.9       2.0       5.2       1.4       2.1       9.7
 5 O  s               0.3       0.0       0.8       1.4       1.5       0.3
 5 O  pz              1.0       5.7      15.9       1.1       5.5       3.0
 5 O  px              0.0       2.0       1.4       6.1       0.2       3.2
 5 O  py              0.4       0.1       3.0       0.2       3.9       9.7
 6 H  s               1.6       0.0       5.5       0.3       6.3       9.1
 7 H  s               0.6       0.3       0.0       2.7       0.9       7.8
 8 H  s               4.0       7.5       0.1       2.0       0.4       0.0
 9 H  s               3.1       6.2       0.1       0.2      10.5       1.2
10 H  s               5.5       0.3       3.0       4.1       6.1       1.3
11 H  s               4.3       4.2       3.9       0.0       0.2       0.1
12 H  s               4.5       2.3       1.9       0.0       1.1       1.5
13 H  s               0.3       2.0       5.8       0.0       2.4       0.5

                     18        19        20        21        22        23   
                  -0.34506  -0.29928  -0.29252  -0.26067  -0.22808  -0.21928
                   2.00000   2.00000   2.00000   2.00000   2.00000   2.00000
                  --------  --------  --------  --------  --------  --------
 0 C  s               0.2       0.2       0.7       0.1       0.0       0.0
 0 C  pz             19.7       0.7       0.0       3.5       0.0       0.1
 0 C  px              0.6       0.2       0.2       8.3       0.0       0.1
 0 C  py              0.1       0.1       3.7       1.0       0.0       0.0
 0 C  dz2             0.1       0.0       0.2       0.7       0.0       0.0
 0 C  dxz             0.1       0.0       0.1       0.1       0.0       0.1
 0 C  dyz             0.0       0.0       0.0       0.3       0.0       0.0
 0 C  dx2y2           0.1       0.0       0.0       0.0       0.0       0.0
 0 C  dxy             0.0       0.0       0.0       0.0       0.1       0.0
 1 C  s               0.0       0.9       0.5       0.1       0.1       0.0
 1 C  pz             10.7       4.5       0.7       2.4       0.3       2.8
 1 C  px              0.1       1.0       1.3       4.7       0.3       1.8
 1 C  py              2.8       0.0       3.7       0.2       0.1       0.1
 1 C  dz2             0.3       0.1       0.1       0.2       0.0       0.4
 1 C  dyz             0.0       0.0       0.1       0.2       0.0       0.8
 1 C  dx2y2           0.2       0.0       0.0       0.1       0.0       0.1
 1 C  dxy             0.0       0.1       0.3       0.2       0.0       0.6
 2 C  s               0.1       0.4       0.1       0.1       0.0       1.4
 2 C  pz              3.2       2.9       0.7       0.0       3.1       2.4
 2 C  px              0.3       1.3       0.9       1.7       0.8       4.5
 2 C  py              3.1       3.7       0.3       0.0       0.3       0.6
 2 C  dz2             0.1       0.4       0.0       0.1       0.6       0.0
 2 C  dyz             0.0       0.0       0.0       0.0       0.7       0.1
 2 C  dxy             0.0       0.7       0.0       0.1       0.4       0.0
 3 O  s               0.7       5.1       2.3       0.0       0.0       0.3
 3 O  pz              6.3      12.1       2.7       0.2      50.0       1.1
 3 O  px              0.1      16.1       4.8       0.2      17.2       0.1
 3 O  py              1.8      17.2       1.1       0.1       5.3       0.3
 4 O  s               1.5       1.1       5.9       0.9       0.0       0.0
 4 O  pz             12.1       0.1      12.5       8.0       1.9      41.9
 4 O  px              0.4      14.0      17.5       1.5       0.0      29.7
 4 O  py              2.9       1.2       6.0       1.9       0.0       0.2
 5 O  s               0.5       0.0       2.5       5.8       0.0       0.1
 5 O  pz              0.1       0.0       6.4       3.6       0.9       0.0
 5 O  px             12.6       1.2      14.4      21.1       0.6       1.2
 5 O  py              0.0       0.3       0.1      11.9       5.1       1.1
 6 H  s               0.3       0.6       1.0       3.4       0.5       0.1
 7 H  s               9.6       0.5       1.1       7.5       0.1       0.1
 8 H  s               5.6       2.8       2.2       3.8       0.0       5.6
 9 H  s               1.3       2.4       0.4       1.5       5.3       0.1
10 H  s               1.2       4.9       0.2       0.3       5.8       1.2
11 H  s               0.0       2.0       1.4       0.1       0.0       0.4
12 H  s               0.1       0.6       2.2       0.7       0.1       0.0
13 H  s               0.5       0.1       1.3       3.1       0.0       0.1

                     24        25        26        27        28        29   
                  -0.20101   0.01872   0.02313   0.04271   0.07959   0.09320
                   2.00000   0.00000   0.00000   0.00000   0.00000   0.00000
                  --------  --------  --------  --------  --------  --------
 0 C  s               0.0       0.3       0.7       0.3       3.7       0.5
 0 C  pz              0.5       0.1       0.0       1.4      10.1       0.3
 0 C  px              0.4       0.5       0.1       3.1       0.9       2.7
 0 C  py              4.2       0.1       0.1       1.1       0.2       0.8
 0 C  dz2             0.0       0.0       0.2       0.1       0.1       0.0
 0 C  dxz             0.2       0.0       0.1       0.6       0.4       0.3
 0 C  dyz             0.1       0.0       0.0       0.0       0.1       0.1
 0 C  dx2y2           0.4       0.1       0.0       0.1       0.3       0.6
 0 C  dxy             1.1       0.0       0.0       0.0       0.0       0.0
 1 C  s               0.8       0.1       1.6       0.3       0.8       2.8
 1 C  pz              0.7       0.1       3.1       1.5       3.3       1.7
 1 C  px              4.7       0.2       0.2       0.2       0.0       0.4
 1 C  py              0.8       1.9       2.0       0.7       0.2       1.5
 1 C  dz2             0.0       0.2       0.2       0.1       0.7       0.0
 1 C  dxz             0.1       0.1       0.0       0.2       0.0       0.0
 1 C  dx2y2           0.0       0.6       0.1       0.0       0.2       1.0
 1 C  dxy             0.1       0.1       0.1       0.0       0.0       0.0
 2 C  s               0.1       1.7       2.8       2.2       1.0       7.4
 2 C  pz              0.0       1.2       0.0       0.0       7.3       0.3
 2 C  px              1.4       1.0       3.0       0.2       0.1       1.6
 2 C  py              0.0       6.9       0.7       0.3       1.7       1.3
 2 C  dz2             0.1       0.2       0.0       0.0       0.2       0.0
 2 C  dxz             0.0       0.1       0.3       0.0       0.0       0.3
 2 C  dx2y2           0.0       0.7       0.1       0.0       0.3       0.1
 2 C  dxy             0.1       0.3       0.0       0.0       0.1       0.0
 3 O  s               0.2      10.3       0.2       0.6       0.3       0.9
 3 O  pz              2.0       2.1       0.0       0.0       0.3       1.1
 3 O  px              2.7       5.3       0.0       0.2       0.2       2.4
 3 O  py              0.9       0.1       1.1       0.0       0.3       0.3
 3 O  dyz             0.0       0.0       0.0       0.0       0.1       0.0
 4 O  s               0.2       1.3       6.6       0.7       0.5       3.1
 4 O  pz              0.0       0.2       1.5       0.6       0.1       2.3
 4 O  px              0.6       0.6       4.1       1.2       0.0       0.6
 4 O  py              0.1       0.5       1.3       0.0       0.0       0.0
 5 O  s               0.0       0.4       0.4       8.5       0.9       0.2
 5 O  pz              7.3       0.0       0.9       6.1       0.1       1.4
 5 O  px              6.0       0.3       0.0       0.9       0.8       0.6
 5 O  py             55.2       0.1       0.0       1.5       0.0       0.1
 6 H  s               5.8       0.4       1.7       2.9       5.2       2.1
 7 H  s               0.0       0.3       0.6       0.0      24.0       2.6
 8 H  s               0.1       0.3       9.1       3.4      12.4       7.0
 9 H  s               1.6       3.8      10.0       2.7       2.2      16.6
10 H  s               0.4       5.1       1.1       2.4      19.1       7.6
11 H  s               0.1      48.1       1.3       2.3       0.7      13.0
12 H  s               0.5       2.7      40.5       5.4       0.5      12.3
13 H  s               0.0       1.2       3.8      47.7       0.6       1.4

                     30        31        32        33        34        35   
                   0.11285   0.12374   0.13355   0.15010   0.20010   0.20685
                   0.00000   0.00000   0.00000   0.00000   0.00000   0.00000
                  --------  --------  --------  --------  --------  --------
 0 C  s               0.8       9.9       3.5       0.1       6.1       4.4
 0 C  pz              0.2       4.5       2.0       0.3      11.3       8.9
 0 C  px              4.0       0.2       0.7       0.4      10.9       7.3
 0 C  py              2.7       0.4      14.8       0.1       3.9       4.0
 0 C  dz2             0.1       0.1       0.5       0.1       0.0       0.0
 0 C  dxz             1.4       0.0       0.1       0.0       2.0       0.8
 0 C  dyz             0.0       0.2       0.3       0.1       1.7       0.9
 0 C  dx2y2           0.0       0.0       0.1       0.3       2.2       0.9
 0 C  dxy             0.0       0.0       0.0       0.1       0.0       1.0
 1 C  s               3.7       0.7       1.7       0.4       1.1       1.1
 1 C  pz              5.1       1.0       0.4       0.0       1.0       3.1
 1 C  px              0.6       0.3       0.1       4.4       6.8       8.4
 1 C  py              3.3       1.8       1.5       6.0       3.6      18.3
 1 C  dz2             0.2       0.0       0.3       0.3       0.9       0.0
 1 C  dxz             0.3       0.7       0.0       1.2       0.9       1.2
 1 C  dyz             0.0       0.1       0.1       0.1       0.5       1.7
 1 C  dx2y2           0.4       0.5       0.3       1.3       0.0       1.6
 1 C  dxy             0.1       0.1       0.1       0.3       0.1       1.7
 2 C  s               0.4       3.3       0.3       1.3       2.2       0.4
 2 C  pz              4.3       6.5       0.8       0.7       0.2       2.4
 2 C  px              5.1       0.1       0.9       8.5       4.2       0.2
 2 C  py              2.3       0.3       1.8      20.6       0.2       5.7
 2 C  dz2             0.1       0.3       0.0       0.7       0.1       0.6
 2 C  dxz             0.1       0.0       0.0       0.6       1.0       0.1
 2 C  dyz             0.0       0.0       0.1       1.2       0.0       1.5
 2 C  dx2y2           0.0       0.2       0.1       4.2       0.0       0.0
 2 C  dxy             0.2       0.1       0.0       0.0       0.3       0.1
 3 O  s               0.2       0.5       0.0       1.6       0.1       0.4
 3 O  pz              0.3       0.1       0.1       0.2       0.5       0.7
 3 O  px              0.0       0.3       2.5       1.7       0.2       0.2
 3 O  py              0.0       0.1       0.1      13.1       0.1       0.8
 3 O  dyz             0.1       0.1       0.0       0.1       0.0       0.1
 3 O  dx2y2           0.0       0.0       0.0       0.5       0.0       0.1
 4 O  s               0.2       0.1       0.0       0.1       0.8       0.5
 4 O  pz              0.3       0.2       0.0       0.6       0.5       0.5
 4 O  px              0.1       0.1       0.4       0.3       0.2       0.1
 4 O  py              0.6       1.2       2.2       6.8       1.2       3.6
 4 O  dxz             0.0       0.0       0.0       0.1       0.0       0.1
 4 O  dyz             0.1       0.0       0.0       0.0       0.1       0.2
 4 O  dx2y2           0.0       0.0       0.0       0.0       0.2       0.0
 4 O  dxy             0.0       0.0       0.0       0.0       0.0       0.2
 5 O  s               2.2       0.7       0.1       0.1       1.8       0.4
 5 O  pz              0.0       0.8       0.0       0.6       7.0       0.6
 5 O  px              0.4       0.1       0.6       0.9       6.8       1.1
 5 O  py              0.9       0.1       0.5       0.1       0.0       0.3
 5 O  dz2             0.1       0.0       0.0       0.0       0.0       0.2
 5 O  dxz             0.1       0.1       0.0       0.0       0.5       0.0
 5 O  dx2y2           0.0       0.0       0.0       0.0       0.3       0.1
 5 O  dxy             0.0       0.0       0.2       0.0       0.0       0.0
 6 H  s               5.1       2.6      42.2       0.2       1.5       1.8
 7 H  s               0.3      29.6       5.3       0.1       3.4       2.8
 8 H  s              23.1       3.0       2.9       1.0       3.7       1.1
 9 H  s              20.7       0.6       6.4       2.5       2.6       1.7
10 H  s               4.7      21.7       0.5       0.4       0.9       3.2
11 H  s               0.1       0.0       2.3       6.1       0.6       0.5
12 H  s               0.8       0.1       2.4       8.2       0.1       1.0
13 H  s               4.1       6.4       0.4       1.3       5.6       1.0

                     36        37        38        39        40        41   
                   0.20847   0.23416   0.42889   0.44922   0.46314   0.47921
                   0.00000   0.00000   0.00000   0.00000   0.00000   0.00000
                  --------  --------  --------  --------  --------  --------
 0 C  s               0.8       0.0       1.0       9.9       0.5       0.2
 0 C  pz              0.2       0.7       2.2      21.3       1.4       0.6
 0 C  px              4.2      11.2       7.8       0.6      25.5       6.7
 0 C  py              0.0       4.1       0.2       8.4       4.5       2.4
 0 C  dz2             0.1       0.3       1.6       0.7       0.6       1.6
 0 C  dxz             0.4       0.7       0.4       0.0       0.2       0.2
 0 C  dyz             0.4       0.5       0.7       1.0       0.0       0.2
 0 C  dx2y2           0.7       0.2       0.2       1.3       0.4       0.5
 0 C  dxy             0.0       2.8       0.3       0.6       0.1       0.0
 1 C  s               6.4      15.0       1.1       0.0       1.4       9.5
 1 C  pz              1.9       9.3       0.3       1.8       1.3       0.3
 1 C  px             14.3       1.4      11.8       2.8       0.5       0.4
 1 C  py              0.3       6.0       1.9       9.6       2.7      21.8
 1 C  dz2             0.9       1.3       0.0       0.3       1.8       1.0
 1 C  dxz             1.1       0.1       2.0       0.2       0.0       0.4
 1 C  dyz             0.1       0.0       0.0       0.5       0.3       0.0
 1 C  dx2y2           0.6       0.7       0.0       0.1       0.0       0.1
 1 C  dxy             1.4       0.0       0.0       1.0       0.4       0.0
 2 C  s               8.1       0.0       6.1       0.7       3.0       5.6
 2 C  pz             10.1       0.1      14.3       1.3       1.4       0.6
 2 C  px             14.0       4.2       2.5       3.4       0.3       1.0
 2 C  py              2.9       6.8       9.2       0.2      14.0      13.7
 2 C  dz2             2.3       0.1       2.9       0.0       1.2       0.0
 2 C  dxz             2.9       0.1       0.4       0.0       0.6       0.1
 2 C  dyz             0.2       0.4       0.0       0.1       0.3       0.1
 2 C  dx2y2           0.0       1.9       0.4       0.0       0.4       0.1
 2 C  dxy             1.4       1.0       0.0       0.1       0.3       0.3
 3 O  s               1.8       0.2       0.3       0.1       0.2       0.3
 3 O  pz              0.1       0.0       1.3       0.1       0.9       0.1
 3 O  px              1.3       1.0       1.1       0.2       0.0       0.4
 3 O  py              3.7       2.9       2.1       0.5       1.7       1.7
 3 O  dz2             0.1       0.0       0.2       0.1       0.2       0.1
 3 O  dxz             0.1       0.0       0.0       0.2       0.0       0.1
 3 O  dyz             0.0       0.1       0.4       0.0       0.0       0.2
 3 O  dx2y2           0.4       0.3       0.3       0.0       0.6       1.0
 3 O  dxy             0.4       0.1       0.0       0.2       0.1       0.0
 4 O  s               0.4       2.5       0.0       1.3       0.3       0.1
 4 O  pz              0.6       0.0       0.1       0.6       0.0       0.7
 4 O  px              2.1       0.2       0.3       0.4       0.3       0.1
 4 O  py              0.8       8.3       0.3       1.0       1.6       3.4
 4 O  dz2             0.0       0.1       0.0       0.3       0.0       0.3
 4 O  dxz             0.0       0.0       0.2       0.3       0.4       0.1
 4 O  dyz             0.0       0.0       0.1       0.2       0.4       0.4
 4 O  dx2y2           0.0       1.0       0.0       0.1       0.2       1.4
 4 O  dxy             0.4       0.0       0.0       0.4       0.4       0.2
 5 O  s               0.8       0.6       0.4       0.4       0.7       0.3
 5 O  pz              1.5       2.1       0.8       2.7       0.7       0.0
 5 O  px              2.5       0.4       1.8       1.0       2.0       0.4
 5 O  py              0.3       0.4       0.3       0.1       0.3       0.2
 5 O  dz2             0.0       0.0       0.5       0.2       0.0       0.0
 5 O  dxz             0.1       0.1       0.0       0.6       0.7       0.0
 5 O  dyz             0.0       0.2       0.1       0.5       0.0       0.0
 5 O  dx2y2           0.1       0.0       0.2       0.4       0.3       0.1
 6 H  s               0.3       1.4       0.1       8.7       1.8       2.3
 7 H  s               0.7       2.8       3.9       0.6       1.1       5.2
 8 H  s               1.4       1.5       0.4       0.6       5.7       6.0
 9 H  s               0.9       0.5       0.0       0.0       6.5       2.2
10 H  s               2.2       1.4      11.1       0.1       2.2       0.6
11 H  s               0.4       1.4       0.1       2.7       0.0       1.7
12 H  s               0.1       1.0       1.9       6.2       7.2       2.8
13 H  s               0.9       0.4       4.0       3.4       0.1       0.2

                     42        43        44        45        46        47   
                   0.48871   0.53397   0.54936   0.56136   0.57888   0.58455
                   0.00000   0.00000   0.00000   0.00000   0.00000   0.00000
                  --------  --------  --------  --------  --------  --------
 0 C  s               1.5       2.9      14.1       3.2       7.7       1.7
 0 C  pz              0.3      10.0       1.8       3.5       0.7       0.5
 0 C  px              8.2       0.1       4.2       0.6       1.2      20.6
 0 C  py              0.2       3.1       1.1       2.6       4.2       1.4
 0 C  dz2             0.3       0.2       0.1       1.8       1.1       0.1
 0 C  dxz             0.0       0.2       0.2       0.2       0.4       0.3
 0 C  dyz             0.1       0.6       0.0       1.5       0.3       0.0
 0 C  dx2y2           0.1       0.0       0.0       0.0       0.8       0.0
 0 C  dxy             0.0       0.0       0.1       0.9       0.4       0.0
 1 C  s               4.4       4.6       1.9       4.9       0.3       1.4
 1 C  pz              3.3       0.1       0.9       1.0       4.1       3.8
 1 C  px              5.0       2.7       8.1       0.4      16.3       7.8
 1 C  py              6.9       4.2       0.9       1.0       0.8      16.6
 1 C  dz2             0.8       0.1       0.0       0.6       0.0       0.7
 1 C  dxz             0.7       0.9       0.0       0.1       0.1       0.0
 1 C  dyz             0.6       0.0       0.3       0.2       0.6       0.4
 1 C  dx2y2           0.7       0.0       0.4       0.1       0.0       0.0
 1 C  dxy             0.1       0.0       0.3       0.0       0.4       0.0
 2 C  s               1.3       0.1       8.1       1.8       3.3       0.3
 2 C  pz              2.7       1.8       2.2       3.4       5.2       0.3
 2 C  px             21.2       5.0       5.1       2.5       1.3       3.1
 2 C  py             19.4       1.6       2.4       2.0       0.9       3.5
 2 C  dz2             0.0       0.3       0.7       0.4       1.5       0.1
 2 C  dxz             1.0       0.2       0.2       0.6       0.0       1.0
 2 C  dyz             0.0       0.4       0.8       0.0       1.0       0.1
 2 C  dx2y2           0.2       0.1       0.1       0.0       0.3       0.0
 2 C  dxy             0.3       0.8       1.3       0.0       0.5       0.0
 3 O  s               0.4       0.8       0.1       0.1       0.4       0.3
 3 O  pz              0.1       1.5       2.7       0.1       3.8       0.8
 3 O  px              0.7       4.8       0.1       0.4       1.4       0.8
 3 O  py              1.6       2.1       0.3       0.0       0.3       0.1
 3 O  dz2             0.1       0.4       0.0       0.0       0.0       0.1
 3 O  dxz             0.1       1.8       0.0       0.0       0.0       0.3
 3 O  dyz             0.0       0.1       0.0       0.0       0.3       0.0
 3 O  dx2y2           0.4       0.8       0.2       0.0       0.0       0.1
 3 O  dxy             0.2       1.1       0.2       0.0       0.0       0.0
 4 O  s               0.0       0.1       0.3       1.2       0.2       0.2
 4 O  pz              2.6       0.0       0.4       0.1       2.6       0.5
 4 O  px              1.2       0.2       2.3       0.8       3.1       0.2
 4 O  py              1.6       0.0       0.3       0.3       0.7       1.6
 4 O  dz2             0.2       0.0       0.0       0.0       0.0       0.1
 4 O  dxz             0.0       0.0       0.5       0.1       0.5       0.0
 4 O  dyz             0.0       0.0       0.2       0.3       0.0       0.1
 4 O  dx2y2           0.3       0.0       0.1       0.1       0.0       0.2
 4 O  dxy             0.2       0.0       0.4       0.1       0.0       0.0
 5 O  s               0.2       0.0       2.9       0.4       0.3       0.3
 5 O  pz              0.2       0.3       0.9       2.9       0.7       1.2
 5 O  px              0.6       0.5       0.6       1.1       0.0       0.9
 5 O  py              0.9       0.1       0.4       0.4       4.5       0.2
 5 O  dz2             0.1       0.0       0.2       2.2       0.1       0.0
 5 O  dxz             0.4       0.2       0.4       0.0       0.1       0.0
 5 O  dyz             0.1       0.0       0.1       1.5       0.1       0.0
 5 O  dx2y2           0.1       0.1       0.2       0.0       0.1       0.0
 5 O  dxy             0.1       0.0       0.0       0.0       0.2       0.0
 6 H  s               0.1       0.0       0.2       5.9       8.4       1.4
 7 H  s               0.4       2.9       0.8       6.4       2.3       2.9
 8 H  s               2.5       2.8       0.6       0.5       0.8      12.3
 9 H  s               2.8       0.2      12.4       1.5       0.6       4.0
10 H  s               0.0       1.0       0.1       2.4       6.9       0.2
11 H  s               0.5      37.4       3.5       1.5       0.5       5.9
12 H  s               0.2       0.1       9.6       5.7       4.3       0.8
13 H  s               1.7       0.3       3.7      30.5       3.3       0.6

                     48        49        50        51        52        53   
                   0.60929   0.63966   0.64581   0.65237   0.65761   0.67296
                   0.00000   0.00000   0.00000   0.00000   0.00000   0.00000
                  --------  --------  --------  --------  --------  --------
 0 C  s               4.3       0.7       0.3       2.1       8.8      11.0
 0 C  pz             13.6       0.1       3.0       1.2       9.3       9.7
 0 C  px              0.0       0.1       0.1       2.4       0.0       1.0
 0 C  py              0.9       6.5       6.4       9.7       5.8       3.0
 0 C  dz2             0.2       0.0       0.1       0.4       0.0       0.2
 0 C  dxz             0.0       0.0       0.0       0.0       0.0       0.1
 0 C  dyz             0.4       0.0       0.5       0.0       0.2       0.2
 0 C  dx2y2           0.0       0.3       0.1       0.1       1.0       0.0
 0 C  dxy             0.6       0.0       0.0       0.0       0.1       0.0
 1 C  s               1.9       5.9       1.3      14.4       0.4       0.7
 1 C  pz             10.8       0.3       4.7       0.4       2.1      20.4
 1 C  px              5.7       5.3       3.6       2.9       3.8       1.3
 1 C  py              3.4       0.1       0.0       4.2       0.2       2.1
 1 C  dz2             0.1       0.0       0.8       0.2       0.4       0.2
 1 C  dxz             0.0       0.0       0.0       0.4       0.0       0.1
 1 C  dyz             0.2       0.0       0.0       0.4       0.3       0.0
 1 C  dx2y2           0.1       0.0       0.2       0.0       0.0       0.0
 2 C  s               1.8      34.2       1.9       3.1       0.1       1.8
 2 C  pz             15.3       1.2       7.5       3.4       7.4       2.3
 2 C  px              3.4      12.2       3.3       6.9       1.6       3.4
 2 C  py              0.8       4.4       9.7       2.3       0.0       0.7
 2 C  dz2             0.7       0.1       0.2       0.1       0.0       0.6
 2 C  dxz             0.5       0.0       0.0       0.0       0.2       0.1
 2 C  dyz             0.1       0.0       0.0       0.3       0.0       0.0
 2 C  dxy             0.0       0.0       0.1       1.2       0.0       0.0
 3 O  s               0.3       2.1       0.1       2.0       0.3       0.7
 3 O  pz              0.1       1.4       1.6       2.0       0.3       0.1
 3 O  px              0.5       2.6       0.2       0.0       0.9       0.1
 3 O  py              0.3       0.4       0.1       1.4       1.1       0.4
 3 O  dxz             0.1       0.2       0.0       0.0       0.0       0.0
 3 O  dxy             0.0       0.4       0.0       0.1       0.0       0.0
 4 O  s               0.1       1.4       0.6       0.7       0.7       0.2
 4 O  pz              1.6       1.8       2.4       0.1       1.2       2.7
 4 O  px              0.7       0.3       5.9       1.8       0.2       0.1
 4 O  py              0.4       0.1       0.6       0.0       0.1       0.7
 4 O  dz2             0.2       0.0       0.0       0.0       0.0       0.0
 4 O  dxz             0.2       0.2       0.3       0.0       0.3       0.0
 4 O  dyz             0.0       0.0       0.3       0.0       0.0       0.0
 4 O  dxy             0.3       0.0       0.5       0.0       0.2       0.0
 5 O  s               0.3       0.1       0.0       1.0       0.3       0.7
 5 O  pz              0.1       0.1       0.9       1.2       0.2       4.4
 5 O  px              0.1       0.0       1.7       3.2       0.8       2.7
 5 O  py              1.9       0.1       0.0       0.7       0.4       1.0
 5 O  dz2             0.0       0.1       0.1       0.1       0.1       0.1
 6 H  s               0.7       4.0       1.7       1.7      18.5       0.1
 7 H  s               3.4       0.0       0.0       1.3      15.8       1.5
 8 H  s               1.8       0.4      10.5       2.5       5.2       7.4
 9 H  s               1.5       1.8       6.4      18.3       0.6       6.6
10 H  s              14.5       1.1       1.4       1.4       2.0       7.8
11 H  s               1.3       7.6       0.2       0.0       1.1       0.2
12 H  s               4.6       1.2      18.2       0.6       6.5       0.0
13 H  s               0.1       0.9       1.8       3.2       0.9       3.3

                     54        55        56        57        58        59   
                   0.68468   0.70158   0.80818   0.90082   0.94508   0.97407
                   0.00000   0.00000   0.00000   0.00000   0.00000   0.00000
                  --------  --------  --------  --------  --------  --------
 0 C  s               0.6       0.9       2.2      18.0       1.0       0.6
 0 C  pz              3.4       8.5       3.1       1.0       0.3       1.1
 0 C  px              1.9       0.6       2.3       5.7       0.4       0.1
 0 C  py             22.0       4.1       0.0       0.3       0.0       0.1
 0 C  dz2             0.1       0.5       0.0       0.6       0.0       0.1
 0 C  dxz             0.1       0.0       0.1       1.4       0.5       0.1
 0 C  dyz             0.4       1.6       0.0       0.4       0.3       0.4
 0 C  dx2y2           0.0       0.0       0.0       0.1       0.0       0.9
 0 C  dxy             0.3       0.3       0.0       0.5       0.0       0.2
 1 C  s               0.1       0.1      20.6       9.1       0.7       0.1
 1 C  pz             12.3      17.6       0.5       0.2       0.3       0.3
 1 C  px              1.9       2.9       0.3       0.1       0.0       0.1
 1 C  py              1.3       3.4       1.6       0.1       0.3       0.1
 1 C  dz2             0.5       1.1       0.1       0.0       1.3       0.1
 1 C  dxz             0.0       0.1       0.8       0.2       0.2       0.4
 1 C  dyz             0.0       0.0       0.3       0.2       0.4       0.2
 1 C  dx2y2           0.0       0.0       0.6       0.6       0.0       0.5
 1 C  dxy             0.1       0.0       0.2       0.1       0.0       0.0
 2 C  s               1.2       1.4      16.7       0.2       0.4       0.5
 2 C  pz             20.5       1.0       0.0       1.1       0.3       0.1
 2 C  px              0.0       0.1       0.1       5.7       1.2       0.2
 2 C  py              0.3       0.8       0.0       3.1       0.2       0.7
 2 C  dz2             0.1       0.1       0.1       0.4       0.8       0.0
 2 C  dxz             0.7       1.0       0.1       0.2       0.1       0.7
 2 C  dyz             0.0       0.2       0.5       0.0       0.5       0.1
 2 C  dx2y2           0.0       0.4       0.3       0.0       0.1       0.5
 2 C  dxy             0.0       0.4       0.8       0.1       0.1       0.0
 3 O  s               0.8       0.0       4.0       4.7       6.2       9.5
 3 O  pz              0.2       0.0       8.7       0.1      26.4       0.5
 3 O  px              0.6       3.9       9.1       7.4       3.7       2.0
 3 O  py              0.2       0.0       0.0       3.0      10.4      31.5
 3 O  dz2             0.0       0.1       0.1       0.1       0.1       0.0
 3 O  dxz             0.1       0.0       0.2       0.0       0.0       0.0
 3 O  dyz             0.1       0.0       0.0       0.0       0.3       0.1
 3 O  dx2y2           0.0       0.0       0.0       0.0       0.1       0.3
 4 O  s               0.2       0.2       2.2       2.6       5.7       0.6
 4 O  pz              0.2       1.1       0.8       2.0      13.9       4.2
 4 O  px              1.7       0.5      10.2       4.8       0.1       2.0
 4 O  py              0.2       0.7       0.2       0.3       9.5       0.2
 4 O  dz2             0.1       0.0       0.2       0.2       0.1       0.0
 4 O  dxz             0.0       0.1       0.1       0.3       0.0       0.1
 4 O  dyz             0.0       0.1       0.0       0.0       0.0       0.0
 4 O  dx2y2           0.0       0.0       0.0       0.0       0.1       0.0
 4 O  dxy             0.1       0.0       0.1       0.0       0.0       0.0
 5 O  s               0.3       0.0       0.0       0.3       4.2       8.5
 5 O  pz              0.7       3.7       0.1       0.0       0.1       1.0
[...]
 0 C  px              0.1       0.0       0.0       0.2       0.1       0.0
 0 C  py              0.3       0.1       0.0       0.1       0.1       0.1
 0 C  dz2             0.7       0.0       0.2       1.0       0.8       2.7
 0 C  dxz             1.7       0.6       0.1       0.8       0.2       0.5
 0 C  dyz             0.9       0.5       0.1       0.7       0.4       0.6
 0 C  dx2y2           0.5       0.1       0.1       1.7       0.6       2.7
 0 C  dxy             1.4       0.2       0.4       4.7       3.0       0.2
 1 C  s               0.0       0.1       0.0       0.0       0.1       0.0
 1 C  pz              0.2       0.1       0.3       0.1       0.1       0.0
 1 C  px              0.2       0.0       0.1       0.3       0.2       0.1
 1 C  py              0.0       0.0       0.0       0.2       0.1       0.1
 1 C  dz2             0.4       0.9       0.3       0.1       0.3       0.1
 1 C  dxz             0.1       0.1       0.1       0.6       1.4       1.3
 1 C  dyz             1.6       0.6       4.7       2.5       0.2       1.2
 1 C  dx2y2           0.6       0.2       0.1       0.3       0.1       1.0
 1 C  dxy             2.0       2.0       6.9       1.4       1.1       0.0
 2 C  s               0.0       0.0       0.1       0.1       0.3       0.0
 2 C  pz              0.2       0.3       0.0       0.0       0.1       0.0
 2 C  px              0.2       0.1       0.2       0.0       0.2       0.0
 2 C  py              0.0       0.1       0.1       0.0       0.1       0.1
 2 C  dz2             0.6       0.9       0.0       0.0       0.2       0.1
 2 C  dxz             0.4       0.4       0.3       0.0       1.1       0.0
 2 C  dyz             1.6       4.8       0.0       0.0       0.3       0.5
 2 C  dx2y2           0.1       1.7       0.4       0.1       0.0       0.0
 2 C  dxy             0.0       2.7       0.6       0.8       0.2       1.5
 3 O  s               0.0       0.0       0.4       0.2       1.9       0.1
 3 O  pz              0.2       0.3       0.1       0.0       0.2       0.0
 3 O  px              0.0       0.2       0.6       0.0       0.4       0.0
 3 O  dz2             3.9      10.6       1.3       1.0       8.1       0.9
 3 O  dxz             0.3       4.2      13.8       1.5      14.5       0.1
 3 O  dyz            14.3      25.3       0.3       0.0       0.0       0.6
 3 O  dx2y2           2.2       7.0       4.1       0.7       1.7       0.0
 3 O  dxy             2.8      12.7       0.5       4.8      21.1       3.8
 4 O  s               0.1       0.1       0.2       0.3       0.9       0.1
 4 O  pz              0.5       0.2       0.2       0.0       0.0       0.1
 4 O  px              0.5       0.3       0.7       0.2       0.1       0.0
 4 O  py              0.1       0.1       0.0       0.0       0.0       0.1
 4 O  dz2             0.0       0.5       4.3       2.7       1.7       0.1
 4 O  dxz            18.2      12.4       2.9       3.5       6.4       4.7
 4 O  dyz             5.0       0.8      31.9       9.6       5.5       0.0
 4 O  dx2y2           0.9       0.6       0.4       1.5       0.8       0.2
 4 O  dxy             2.0       0.9      19.3       4.1       0.5       2.4
 5 O  s               0.1       0.0       0.0       0.7       0.2       1.2
 5 O  pz              0.4       0.1       0.0       0.5       0.1       0.2
 5 O  px              0.0       0.0       0.0       0.3       0.1       0.0
 5 O  py              0.4       0.1       0.0       0.1       0.1       0.5
 5 O  dz2             0.0       0.1       0.0       0.8       0.0      46.8
 5 O  dxz             2.5       0.2       0.1       0.8       0.9       5.4
 5 O  dyz             1.2       0.1       0.2      27.3       7.9       6.6
 5 O  dx2y2           1.4       0.0       0.1      11.2       3.0       0.6
 5 O  dxy            28.0       6.0       0.7       8.9       7.4       7.3
11 H  s               0.0       0.0       2.0       0.6       3.7       0.1
12 H  s               0.5       0.5       0.3       1.3       1.0       0.6
13 H  s               0.5       0.1       0.0       1.5       0.3       4.2

                     96        97        98        99   
                   2.97660   3.26049   3.29374   3.31968
                   0.00000   0.00000   0.00000   0.00000
                  --------  --------  --------  --------
 0 C  s               0.2       0.3       1.5       1.3
 0 C  pz              0.0       0.1       0.4       0.3
 0 C  px              0.1       0.3       2.4       0.5
 0 C  py              0.1       0.0       0.0       0.1
 0 C  dz2             0.0       0.0       0.1       0.1
 0 C  dxz             0.7       0.4       4.4       1.2
 0 C  dyz             0.0       0.0       0.0       0.2
 0 C  dx2y2           0.8       0.4       3.4       1.0
 0 C  dxy             0.4       0.0       0.5       0.0
 1 C  s               0.0       0.3       0.6       1.2
 1 C  px              0.3       0.0       0.1       0.1
 1 C  py              0.0       0.1       1.2       2.7
 1 C  dz2             0.0       0.4       0.3       1.5
 1 C  dxz             1.1       0.0       0.0       0.1
 1 C  dyz             0.2       0.0       0.0       1.2
 1 C  dx2y2           0.2       0.2       3.8       5.1
 1 C  dxy             4.6       1.3       0.7       0.2
 2 C  s               0.0       2.1       0.0       0.2
 2 C  pz              0.0       0.1       0.0       0.0
 2 C  px              0.1       0.1       0.0       0.1
 2 C  py              0.2       2.8       0.0       0.7
 2 C  dz2             0.3       1.4       0.0       0.1
 2 C  dxz             0.5       0.3       0.0       0.0
 2 C  dyz             0.9       1.3       0.0       0.7
 2 C  dx2y2           0.0       6.3       0.3       1.4
 2 C  dxy             1.1       0.8       0.3       0.1
 3 O  s               0.8       2.8       0.0       0.7
 3 O  px              0.0       0.5       0.0       0.2
 3 O  py              0.0       3.2       0.1       0.6
 3 O  dz2             2.9       6.7       0.1       1.8
 3 O  dxz             1.8       0.9       0.0       0.2
 3 O  dyz             1.0      12.2       0.6       0.9
 3 O  dx2y2           0.0      38.8       0.6       5.3
 3 O  dxy            10.9       0.9       0.1       1.7
 4 O  s               1.2       0.1       1.1       3.5
 4 O  pz              0.3       0.0       0.0       0.0
 4 O  py              0.0       0.2       1.6       3.1
 4 O  dz2             0.8       0.6       2.8      10.4
 4 O  dxz             8.7       0.0       0.0       0.0
 4 O  dyz             4.3       1.3       2.5       2.0
 4 O  dx2y2           0.6       3.3      14.7      26.3
 4 O  dxy            34.9       0.3       2.0       2.7
 5 O  s               0.5       0.4       2.4       1.6
 5 O  pz              0.2       0.2       1.4       0.5
 5 O  px              0.1       0.3       1.6       0.7
 5 O  dz2             8.0       0.4       1.8       1.1
 5 O  dxz             0.0       3.2      25.3       8.4
 5 O  dyz             5.3       0.2       0.9       0.2
 5 O  dx2y2           0.1       3.1      18.0       7.0
 5 O  dxy             0.2       0.1       1.2       0.0
11 H  s               0.8       0.8       0.0       0.1
12 H  s               3.4       0.0       0.3       0.3
13 H  s               1.2       0.1       0.5       0.2


                      *****************************
                      * MAYER POPULATION ANALYSIS *
                      *****************************

  NA   - Mulliken gross atomic population
  ZA   - Total nuclear charge
  QA   - Mulliken gross atomic charge
  VA   - Mayer's total valence
  BVA  - Mayer's bonded valence
  FA   - Mayer's free valence

  ATOM       NA         ZA         QA         VA         BVA        FA
  0 C      5.9583     6.0000     0.0417     3.9526     3.9526     0.0000
  1 C      6.0114     6.0000    -0.0114     4.0983     4.0983    -0.0000
  2 C      6.0004     6.0000    -0.0004     3.9800     3.9800     0.0000
  3 O      8.4329     8.0000    -0.4329     1.9909     1.9909     0.0000
  4 O      8.4140     8.0000    -0.4140     1.9957     1.9957    -0.0000
  5 O      8.4320     8.0000    -0.4320     2.0033     2.0033     0.0000
  6 H      0.9130     1.0000     0.0870     0.9768     0.9768     0.0000
  7 H      0.9157     1.0000     0.0843     0.9727     0.9727     0.0000
  8 H      0.9494     1.0000     0.0506     0.9700     0.9700     0.0000
  9 H      0.9401     1.0000     0.0599     0.9560     0.9560     0.0000
 10 H      0.9245     1.0000     0.0755     0.9564     0.9564    -0.0000
 11 H      0.6960     1.0000     0.3040     0.8781     0.8781    -0.0000
 12 H      0.7037     1.0000     0.2963     0.8853     0.8853    -0.0000
 13 H      0.7087     1.0000     0.2913     0.8868     0.8868    -0.0000

  Mayer bond orders larger than 0.100000
B(  0-C ,  1-C ) :   1.0395 B(  0-C ,  5-O ) :   1.0807 B(  0-C ,  6-H ) :   0.9194 
B(  0-C ,  7-H ) :   0.9089 B(  1-C ,  2-C ) :   1.0289 B(  1-C ,  4-O ) :   1.0702 
B(  1-C ,  8-H ) :   0.8970 B(  2-C ,  3-O ) :   1.0680 B(  2-C ,  9-H ) :   0.9170 
B(  2-C , 10-H ) :   0.9107 B(  3-O , 11-H ) :   0.8488 B(  4-O , 12-H ) :   0.8500 
B(  5-O , 13-H ) :   0.8556 

-------
TIMINGS
-------

Total SCF time: 0 days 0 hours 0 min 4 sec 

Total time                  ....       4.909 sec
Sum of individual times     ....       4.463 sec  ( 90.9%)

SCF preparation             ....       0.167 sec  (  3.4%)
Fock matrix formation       ....       3.657 sec  ( 74.5%)
  Startup                   ....       0.053 sec  (  1.5% of F)
  Split-RI-J                ....       0.982 sec  ( 26.8% of F)
  XC integration            ....       2.067 sec  ( 56.5% of F)
    Basis function eval.    ....       0.685 sec  ( 33.1% of XC)
    Density eval.           ....       0.217 sec  ( 10.5% of XC)
    XC-Functional eval.     ....       0.215 sec  ( 10.4% of XC)
    XC-Potential eval.      ....       0.383 sec  ( 18.5% of XC)
Diagonalization             ....       0.000 sec  (  0.0%)
Density matrix formation    ....       0.152 sec  (  3.1%)
Total Energy calculation    ....       0.028 sec  (  0.6%)
Population analysis         ....       0.063 sec  (  1.3%)
Orbital Transformation      ....       0.054 sec  (  1.1%)
Orbital Orthonormalization  ....       0.000 sec  (  0.0%)
DIIS solution               ....       0.239 sec  (  4.9%)
  MO trafo                  ....       0.000 sec  (  0.0 % of DIIS)
  Orb grad                  ....       0.000 sec  (  0.0 % of DIIS)
  Energy W gradient         ....       0.000 sec  (  0.0 % of DIIS)
  DIIS error                ....       0.001 sec  (  0.6 % of DIIS)
  DIIS work                 ....       0.185 sec  ( 77.6 % of DIIS)
  Form Q                    ....       0.000 sec  (  0.0 % of DIIS)
  Form QpQm                 ....       0.000 sec  (  0.0 % of DIIS)
  Exp/Cayley                ....       0.000 sec  (  0.0 % of DIIS)
  Orb update                ....       0.000 sec  (  0.0 % of DIIS)
  Wake-sleep                ....       0.019 sec  (  7.9 % of DIIS)
SOSCF solution              ....       0.103 sec  (  2.1%)
  MO trafo                  ....       0.067 sec  ( 64.9 % of SOSCF)
  Orb grad                  ....       0.002 sec  (  1.7 % of SOSCF)
  Rot update                ....       0.015 sec  ( 15.0 % of SOSCF)
  Step                      ....       0.019 sec  ( 18.4 % of SOSCF)
Finished LeanSCF after   5.0 sec

Maximum memory used throughout the entire LEANSCF-calculation: 9.4 MB


-------------------------------------------------------------------------------
                          DFT DISPERSION CORRECTION                            
                                                                               
                                DFTD4 V3.4.0                                   
-------------------------------------------------------------------------------
The PBE functional is recognized
Active option DFTDOPT                   ...         5   

-------------------------   ----------------
Dispersion correction           -0.008967500
-------------------------   ----------------

------------------   -----------------
gCP correction             0.081552470
------------------   -----------------

-------------------------   --------------------
FINAL SINGLE POINT ENERGY      -344.002639493478
-------------------------   --------------------


------------------------------------------------------------------------------
                              ORCA PROPERTY CALCULATIONS
------------------------------------------------------------------------------

GBWName                                 ... sp.gbw
Number of atoms                         ...     14
Number of basis functions               ...    100
Max core memory                         ...   1024 MB

Electric properties:
Dipole moment                           ... YES
Quadrupole moment                       ...  NO
Static polarizability (Dipole/Dipole)   ...  NO
Static polarizability (Dipole/Quad.)    ...  NO
Static polarizability (Quad./Quad.)     ...  NO
Static polarizability (Velocity)        ...  NO

Atomic electric properties:
Dipole moment                           ...  NO
Quadrupole moment                       ...  NO
Static polarizability                   ...  NO

Choice of electric origin               ... Center of mass
Position of electric origin             ...     0.000012    -0.000002    -0.000006

General magnetic properties:
Magnetizability                         ...  NO

EPR properties:
g-Tensor (aka g-matrix)                 ...  NO
Zero-Field splitting spin-orbit         ...  NO
Zero-field splitting spin-spin          ...  NO
Hyperfine couplings                     ...  NO (   0 nuclei)
Quadrupole couplings                    ...  NO (   0 nuclei)
Contact density                         ...  NO (   0 nuclei)

NMR properties:
Chemical shifts                         ...  NO (   0 nuclei)
Spin-rotation constants                 ...  NO (   0 nuclei)
Spin-spin couplings                     ...  NO (   0 nuclei,    0 pairs)

Choice of magnetic origin               ... GIAO
Position of magnetic origin             ...     0.000000     0.000000     0.000000

Properties with geometric perturbations:
SCF Hessian                             ...  NO
IR spectrum                             ...  NO
VCD spectrum                            ...  NO
X-ray spectroscopy properties:
SCF XES/XAS/RIXS spectra                ...  NO


-------------
DIPOLE MOMENT
-------------

Method             : SCF
Type of density    : Electron Density
Multiplicity       :   1
Irrep              :   0
Energy             :  -344.0752244633973760 Eh
Relativity type    : 
Basis              : AO
                                X                 Y                 Z
Electronic contribution:     -1.299476577       0.506924605       0.796803192
Nuclear contribution   :      2.668589478      -0.698777055      -0.482997218
                        -----------------------------------------
Total Dipole Moment    :      1.369112901      -0.191852450       0.313805974
                        -----------------------------------------
Magnitude (a.u.)       :      1.417657112
Magnitude (Debye)      :      3.603398013



--------------------
Rotational spectrum 
--------------------
 
Rotational constants in cm-1:             0.164388             0.081760             0.059300 
Rotational constants in MHz :          4928.240439          2451.101399          1777.769661 

Dipole components along the rotational axes: 
x,y,z [a.u.] :    -1.335297     0.211156     0.426787 
x,y,z [Debye]:    -3.394054     0.536717     1.084807 

 

Dipole moment calculation done in   0.0 sec 

Maximum memory used throughout the entire PROP-calculation: 6.0 MB

--------------------------------
SUGGESTED CITATIONS FOR THIS RUN
--------------------------------

Below you find a list of papers that are relevant to this ORCA run
We neither can nor want to force you to cite these papers, but we appreciate if you do
You receive ORCA, which is the product of decades of hard work by many enthusiastic individuals, for free
The only thing we kindly ask in return is that you cite our papers,
We deeply appreciate it, if you show your appreciation for ORCA by not just citing the generic ORCA reference.

Please note that relegating all ORCA citations to the supporting information does *not* help us.
SI sections are not indexed - citations you put there will not count into any citation statistics
But we need these citations in order to attract the funding resources that allow us to do what we are doing

Therefore, if you are a happy ORCA user, please consider citing a few of the papers listed below in the main body of your paper

In addition to the list printed below, the program has created the file sp.bibtex that contains the list in bibtex format
You can import this file easily into all common literature databanks and citation aid programs


List of essential papers. We consider these as the minimum necessary citations

  1. Neese,F.
     Software update: the ORCA program system, version 5.0
     WIRES Comput. Molec. Sci., 2022 12(1)e1606
     doi.org/10.1002/wcms.1606

List of papers to cite with high priority. The work reported in these papers was absolutely
necessary for this run to complete.
Our perspective: the developers of density functionals and basis sets usually get cited in chemistry papers
Good! But without the algorithms to do something with them, the functionals or basis sets would not do anything.
Hence, in our opinion, the algorithm design and method developments papers are equally worthy of getting cited

  1. Neese,F.
     An improvement of the resolution of the identity approximation for the formation of the Coulomb matrix
     J. Comp. Chem., 2003 24(14)1740-1747
     doi.org/10.1002/jcc.10318
  2. Neese,F.
     The SHARK Integral Generation and Digestion System
     J. Comp. Chem., 2022  1-16
     doi.org/10.1002/jcc.26942
  3. Caldeweyher,E.; Bannwarth,C.; Grimme,S.
     Extension of the D3 dispersion coefficient model
     J. Chem. Phys., 2017 147 034112-XXXX
     doi.org/10.1063/1.4993215
  4. Caldeweyher,E.; Ehlert,S.; Hansen,A.; Neugebauer,H.; Spicher,S.; Bannwarth,C.; Grimme,S.
     A generally applicable atomic-charge dependent London dispersion correction
     J. Chem. Phys., 2019 150 154122-XXXX
     doi.org/10.1063/1.5090222
  5. Caldeweyher,E.; Mewes,J.; Ehlert,S.; Grimme,S.
     Extension and evaluation of the D4 London-dispersion model for periodic systems
     Phys. Chem. Chem. Phys., 2020 22(16)8499-8512
     doi.org/10.1039/D0CP00502A

List of suggested additional citations. These are papers that are important in the 'surrounding' of 
of this run, or papers that preceded the highly important papers. If you like your results we are grateful for a citation.

  1. Neese,F.
     The ORCA program system
     WIRES Comput. Molec. Sci., 2012 2(1)73-78
     doi.org/10.1002/wcms.81
  2. Neese,F.
     Software update: the ORCA program system, version 4.0
     WIRES Comput. Molec. Sci., 2018 8(1)1-6
     doi.org/10.1002/wcms.1327
  3. Neese,F.; Wennmohs,F.; Becker,U.; Riplinger,C.
     The ORCA quantum chemistry program package
     J. Chem. Phys., 2020 152 Art. No. L224108
     doi.org/10.1063/5.0004608

List of optional additional citations

  1. Neese,F.
     Approximate second-order SCF convergence for spin unrestricted wavefunctions
     Chem. Phys. Lett., 2000 325(1-3)93-98
     doi.org/10.1016/s0009-2614(00)00662-x

Timings for individual modules:

Sum of individual times          ...        6.216 sec (=   0.104 min)
Startup calculation              ...        0.559 sec (=   0.009 min)   9.0 %
SCF iterations                   ...        5.559 sec (=   0.093 min)  89.4 %
Property calculations            ...        0.098 sec (=   0.002 min)   1.6 %
                             ****ORCA TERMINATED NORMALLY****
TOTAL RUN TIME: 0 days 0 hours 0 minutes 6 seconds 953 msec
