
                                 *****************
                                 * O   R   C   A *
                                 *****************

                                            #,                                       
                                            ###                                      
                                            ####                                     
                                            #####                                    
                                            ######                                   
                                           ########,                                 
                                     ,,################,,,,,                         
                               ,,#################################,,                 
                          ,,##########################################,,             
                       ,#########################################, ''#####,          
                    ,#############################################,,   '####,        
                  ,##################################################,,,,####,       
                ,###########''''           ''''###############################       
              ,#####''   ,,,,##########,,,,          '''####'''          '####       
            ,##' ,,,,###########################,,,                        '##       
           ' ,,###''''                  '''############,,,                           
         ,,##''                                '''############,,,,        ,,,,,,###''
      ,#''                                            '''#######################'''  
     '                                                          ''''####''''         
             ,#######,   #######,   ,#######,      ##                                
            ,#'     '#,  ##    ##  ,#'     '#,    #''#        ,####,   ,####,        
            ##       ##  ##   ,#'  ##            #'  '#       #'       #'  '#        
            ##       ##  #######   ##           ,######,      #####,   #    #        
            '#,     ,#'  ##    ##  '#,     ,#' ,#      #,     #,   #   #,  ,#        
             '#######'   ##     ##  '#######'  #'      '#     '####' # '####'        



                #########################################################
                #                        -***-                          #
                #          Department of theory and spectroscopy        #
                #                                                       #
                #                      Frank Neese                      #
                #                                                       #
                #     Directorship, Architecture, Infrastructure        #
                #                    SHARK, DRIVERS                     #
                #        Core code/Algorithms in most modules           #
                #                                                       #
                #        Max Planck Institute fuer Kohlenforschung      #
                #                Kaiser Wilhelm Platz 1                 #
                #                 D-45470 Muelheim/Ruhr                 #
                #                      Germany                          #
                #                                                       #
                #                  All rights reserved                  #
                #                        -***-                          #
                #########################################################


                         Program Version 6.0.0  -   RELEASE  -


 With contributions from (in alphabetic order):
   Daniel Aravena         : Magnetic Suceptibility
   Michael Atanasov       : Ab Initio Ligand Field Theory (pilot matlab implementation)
   Alexander A. Auer      : GIAO ZORA, VPT2 properties, NMR spectrum
   Ute Becker             : All parallelization in ORCA, NUMFREQ, NUMCALC
   Giovanni Bistoni       : ED, misc. LED, open-shell LED, HFLD
   Martin Brehm           : Molecular dynamics
   Dmytro Bykov           : pre 5.0 version of the SCF Hessian
   Marcos Casanova-Páez   : Triplet and SCS-CIS(D). UHF-(DLPNO)-IP/EA/STEOM-CCSD. UHF-CVS-IP/STEOM-CCSD
   Vijay G. Chilkuri      : MRCI spin determinant printing, contributions to CSF-ICE
   Pauline Colinet        : FMM embedding
   Dipayan Datta          : RHF DLPNO-CCSD density
   Achintya Kumar Dutta   : EOM-CC, STEOM-CC
   Nicolas Foglia         : Exact transition moments, OPA infrastructure, MCD improvements
   Dmitry Ganyushin       : Spin-Orbit,Spin-Spin,Magnetic field MRCI
   Miquel Garcia          : C-PCM and meta-GGA Hessian, CCSD/C-PCM, Gaussian charge scheme
   Tiago L. C. Gouveia    : GS-ROHF, GS-ROCIS
   Yang Guo               : DLPNO-NEVPT2, F12-NEVPT2, CIM, IAO-localization
   Andreas Hansen         : Spin unrestricted coupled pair/coupled cluster methods
   Ingolf Harden          : AUTO-CI MPn and infrastructure 
   Benjamin Helmich-Paris : MC-RPA, TRAH-(SCF,CASSCF), AVAS, COSX integrals, SCF dyn. polar.
   Lee Huntington         : MR-EOM, pCC
   Robert Izsak           : Overlap fitted RIJCOSX, COSX-SCS-MP3, EOM
   Riya Kayal             : Wick's Theorem for AUTO-CI, AUTO-CI UHF-CCSDT
   Emily Kempfer          : AUTO-CI, RHF CISDT and CCSDT
   Christian Kollmar      : KDIIS, OOCD, Brueckner-CCSD(T), CCSD density, CASPT2, CASPT2-K, improved NEVPT2
   Axel Koslowski         : Symmetry handling
   Simone Kossmann        : Meta GGA functionals, TD-DFT gradient, OOMP2, (MP2 Hessian; deprecated post 5.0)
   Lucas Lang             : DCDCAS
   Marvin Lechner         : AUTO-CI (C++ implementation), FIC-MRCC
   Spencer Leger          : CASSCF response
   Dagmar Lenk            : GEPOL surface, SMD, ORCA-2-JSON
   Dimitrios Liakos       : Extrapolation schemes; Compound Job, initial MDCI parallelization
   Dimitrios Manganas     : Further ROCIS development; embedding schemes. LFT, Crystal Embedding
   Dimitrios Pantazis     : SARC Basis sets
   Anastasios Papadopoulos: AUTO-CI, single reference methods and gradients
   Taras Petrenko         : pre 6.0 DFT Hessian and TD-DFT gradient, (ASA, deprecated), ECA, 1-Electron XAS/XES, NRVS
   Peter Pinski           : DLPNO-MP2, DLPNO-MP2 Gradient
   Christoph Reimann      : Effective Core Potentials
   Marius Retegan         : Local ZFS, SOC
   Christoph Riplinger    : Optimizer, TS searches, QM/MM, DLPNO-CCSD(T), (RO)-DLPNO pert. Triples
   Michael Roemelt        : Original ROCIS implementation
   Masaaki Saitow         : Open-shell DLPNO-CCSD energy and density
   Barbara Sandhoefer     : DKH picture change effects
   Kantharuban Sivalingam : CASSCF convergence/infrastructure, NEVPT2 and variants, FIC-MRCI
   Bernardo de Souza      : ESD, SOC TD-DFT
   Georgi Stoychev        : AutoAux, RI-MP2 NMR, DLPNO-MP2 response, X2C
   Van Anh Tran           : RI-MP2 g-tensors
   Willem Van den Heuvel  : Paramagnetic NMR
   Zikuan Wang            : NOTCH, Electric field optimization 
   Frank Wennmohs         : Technical directorship and infrastructure
   Hang Xu                : AUTO-CI-Response properties 


 We gratefully acknowledge several colleagues who have allowed us to
 interface, adapt or use parts of their codes:
   Stefan Grimme, W. Hujo, H. Kruse, P. Pracht,  : VdW corrections, initial TS optimization,
                  C. Bannwarth, S. Ehlert,         DFT functionals, gCP, sTDA/sTD-DF
                  L. Wittmann, M. Mueller
   Ed Valeev, F. Pavosevic, A. Kumar             : LibInt (2-el integral package), F12 methods
   Garnet Chan, S. Sharma, J. Yang, R. Olivares  : DMRG
   Ulf Ekstrom                                   : XCFun DFT Library
   Mihaly Kallay                                 : mrcc  (arbitrary order and MRCC methods)
   Frank Weinhold                                : gennbo (NPA and NBO analysis)
   Simon Mueller                                 : openCOSMO-RS
   Christopher J. Cramer and Donald G. Truhlar   : smd solvation model
   Lars Goerigk                                  : TD-DFT with DH, B97 family of functionals
   V. Asgeirsson, H. Jonsson                     : NEB implementation
   FAccTs GmbH                                   : IRC, NEB, NEB-TS, DLPNO-Multilevel, CI-OPT
                                                   MM, QMMM, 2- and 3-layer-ONIOM, Crystal-QMMM,
                                                   LR-CPCM, SF, NACMEs, symmetry and pop. for TD-DFT,
                                                   nearIR, NL-DFT gradient (VV10), updates on ESD,
                                                   ML-optimized integration grids, MBIS, APM,
                                                   GOAT, DOCKER, SOLVATOR, interface openCOSMO-RS
   S Lehtola, MJT Oliveira, MAL Marques          : LibXC Library
   Liviu Ungur et al                             : ANISO software


 Your calculation uses the libint2 library for the computation of 2-el integrals
 For citations please refer to: http://libint.valeyev.net

 Your ORCA version has been built with support for libXC version: 6.2.2
 For citations please refer to: https://libxc.gitlab.io

 This ORCA versions uses:
   CBLAS   interface :  Fast vector & matrix operations
   LAPACKE interface :  Fast linear algebra routines
   SCALAPACK package :  Parallel linear algebra routines
   Shared memory     :  Shared parallel matrices
   BLAS/LAPACK       :  OpenBLAS 0.3.27  USE64BITINT DYNAMIC_ARCH NO_AFFINITY SkylakeX SINGLE_THREADED
        Core in use  :  SkylakeX
   Copyright (c) 2011-2014, The OpenBLAS Project


Your calculation utilizes the geometrical counterpoise correction gCP
Please cite in your paper:
H.Kruse, S. Grimme J.Chem.Phys., 136, (2012), 154101 
   

Your calculation utilizes the atom-pairwise dispersion correction
based on EEQ partial charges (D4)


================================================================================

----- Orbital basis set information -----
Your calculation utilizes the basis: def2-mTZVPP
   Stefan Grimme, Andreas Hansen, Sebastian Ehlert, and Jan-Michael Mewes 
   J. Chem. Phys. 154, 064103 (2021). DOI: 10.1063/5.0040021

----- AuxJ basis set information -----
Your calculation utilizes the auxiliary basis: def2/J
   F. Weigend, Phys. Chem. Chem. Phys. 8, 1057 (2006).

================================================================================
                                        WARNINGS
                       Please study these warnings very carefully!
================================================================================

Using LibXC functional ID 497 : Re-regularized SCAN exchange by Furness et al
[ 1]  J. W. Furness, A. D. Kaplan, J. Ning, J. P. Perdew, and J. Sun.,  J. Phys. Chem. Lett. 11, 8208-8215 (2020)
[ 2]  J. W. Furness, A. D. Kaplan, J. Ning, J. P. Perdew, and J. Sun.,  J. Phys. Chem. Lett. 11, 9248-9248 (2020)
Using LibXC functional ID 498 : Re-regularized SCAN correlation by Furness et al
[ 1]  J. W. Furness, A. D. Kaplan, J. Ning, J. P. Perdew, and J. Sun.,  J. Phys. Chem. Lett. 11, 8208-8215 (2020)
[ 2]  J. W. Furness, A. D. Kaplan, J. Ning, J. P. Perdew, and J. Sun.,  J. Phys. Chem. Lett. 11, 9248-9248 (2020)
Using LibXC functional ID 497 : Re-regularized SCAN exchange by Furness et al
[ 1]  J. W. Furness, A. D. Kaplan, J. Ning, J. P. Perdew, and J. Sun.,  J. Phys. Chem. Lett. 11, 8208-8215 (2020)
[ 2]  J. W. Furness, A. D. Kaplan, J. Ning, J. P. Perdew, and J. Sun.,  J. Phys. Chem. Lett. 11, 9248-9248 (2020)
Using LibXC functional ID 498 : Re-regularized SCAN correlation by Furness et al
[ 1]  J. W. Furness, A. D. Kaplan, J. Ning, J. P. Perdew, and J. Sun.,  J. Phys. Chem. Lett. 11, 8208-8215 (2020)
[ 2]  J. W. Furness, A. D. Kaplan, J. Ning, J. P. Perdew, and J. Sun.,  J. Phys. Chem. Lett. 11, 9248-9248 (2020)

================================================================================
                                       INPUT FILE
================================================================================
NAME = sp_gas.inp
|  1> ! r2scan-3c def2/J RI DEFGRID2 scfconv6 printgap
|  2> %output
|  3>     printlevel normal
|  4> end
|  5> * xyz 0 1
|  6> C -1.820535055 1.1666733701 0.6586411276
|  7> C -1.443091702 0.0339435687 -0.2878583298
|  8> C -0.0410711711 -0.5224999727 -0.0034904009
|  9> C 1.0765780966 0.4617240077 -0.38915224
| 10> C 2.0348755385 0.7536410771 0.7587580475
| 11> O 0.1930116588 -1.7179429472 -0.7367945456
| 12> H -1.1311284759 2.0012950472 0.5641453208
| 13> H -2.8226728776 1.5227294697 0.435055733
| 14> H -1.7988409476 0.8204494404 1.6895658942
| 15> H -2.1696286389 -0.77545692 -0.1781251768
| 16> H -1.4816287206 0.3752523803 -1.3243404356
| 17> H 0.0304534309 -0.7485649994 1.0727298325
| 18> H 1.6244415019 0.0101410966 -1.2182983138
| 19> H 0.6423845951 1.3948652373 -0.7483383743
| 20> H 2.8177253015 1.4327497872 0.4305803416
| 21> H 1.5052596377 1.2128629826 1.5904358415
| 22> H 2.5001896702 -0.1649814597 1.1081986013
| 23> H -0.4775560941 -2.3750780722 -0.5072464114
| 24> *
| 25> 
| 26>                          ****END OF INPUT****
================================================================================

                       ****************************
                       * Single Point Calculation *
                       ****************************

---------------------------------
CARTESIAN COORDINATES (ANGSTROEM)
---------------------------------
  C     -1.820535    1.166673    0.658641
  C     -1.443092    0.033944   -0.287858
  C     -0.041071   -0.522500   -0.003490
  C      1.076578    0.461724   -0.389152
  C      2.034876    0.753641    0.758758
  O      0.193012   -1.717943   -0.736795
  H     -1.131128    2.001295    0.564145
  H     -2.822673    1.522729    0.435056
  H     -1.798841    0.820449    1.689566
  H     -2.169629   -0.775457   -0.178125
  H     -1.481629    0.375252   -1.324340
  H      0.030453   -0.748565    1.072730
  H      1.624442    0.010141   -1.218298
  H      0.642385    1.394865   -0.748338
  H      2.817725    1.432750    0.430580
  H      1.505260    1.212863    1.590436
  H      2.500190   -0.164981    1.108199
  H     -0.477556   -2.375078   -0.507246

----------------------------
CARTESIAN COORDINATES (A.U.)
----------------------------
  NO LB      ZA    FRAG     MASS         X           Y           Z
   0 C     6.0000    0    12.011   -3.440313    2.204693    1.244651
   1 C     6.0000    0    12.011   -2.727048    0.064144   -0.543973
   2 C     6.0000    0    12.011   -0.077613   -0.987382   -0.006596
   3 C     6.0000    0    12.011    2.034438    0.872532   -0.735391
   4 C     6.0000    0    12.011    3.845357    1.424175    1.433845
   5 O     8.0000    0    15.999    0.364739   -3.246442   -1.392340
   6 H     1.0000    0     1.008   -2.137523    3.781900    1.066080
   7 H     1.0000    0     1.008   -5.334079    2.877542    0.822136
   8 H     1.0000    0     1.008   -3.399317    1.550425    3.192817
   9 H     1.0000    0     1.008   -4.100004   -1.465401   -0.336608
  10 H     1.0000    0     1.008   -2.799873    0.709124   -2.502641
  11 H     1.0000    0     1.008    0.057549   -1.414583    2.027166
  12 H     1.0000    0     1.008    3.069750    0.019164   -2.302250
  13 H     1.0000    0     1.008    1.213931    2.635913   -1.414155
  14 H     1.0000    0     1.008    5.324729    2.707505    0.813679
  15 H     1.0000    0     1.008    2.844528    2.291979    3.005488
  16 H     1.0000    0     1.008    4.724674   -0.311770    2.094192
  17 H     1.0000    0     1.008   -0.902450   -4.488247   -0.958557

--------------------------------
INTERNAL COORDINATES (ANGSTROEM)
--------------------------------
 C      0   0   0     0.000000000000     0.00000000     0.00000000
 C      1   0   0     1.523614620093     0.00000000     0.00000000
 C      2   1   0     1.534977557757   112.37654317     0.00000000
 C      3   2   1     1.538366595881   112.65713267   289.62321320
 C      4   3   2     1.523564107843   112.99605243   125.56901643
 O      3   2   1     1.421834605420   111.07664421   169.85377373
 H      1   2   3     1.086648164170   111.08983967    60.72271907
 H      1   2   3     1.086759674549   110.13351362   180.82503638
 H      1   2   3     1.087725846977   110.31605376   300.59497362
 H      2   1   3     1.093172647232   108.87217838   120.43070607
 H      2   1   3     1.091912067120   110.39891783   238.40390296
 H      3   2   1     1.102030469528   108.33449293    50.54125132
 H      4   3   2     1.091588131193   106.88092477   246.23858694
 H      4   3   2     1.090087716745   109.93151696     2.83501145
 H      5   4   3     1.087080033030   110.19382349   178.62546613
 H      5   4   3     1.087688242974   110.53196975   298.57624135
 H      5   4   3     1.087425081059   110.45067873    58.81203836
 H      6   3   2     0.966529890719   109.56803704   301.82836226

---------------------------
INTERNAL COORDINATES (A.U.)
---------------------------
 C      0   0   0     0.000000000000     0.00000000     0.00000000
 C      1   0   0     2.879214365615     0.00000000     0.00000000
 C      2   1   0     2.900687205876   112.37654317     0.00000000
 C      3   2   1     2.907091559788   112.65713267   289.62321320
 C      4   3   2     2.879118911295   112.99605243   125.56901643
 O      3   2   1     2.686878011976   111.07664421   169.85377373
 H      1   2   3     2.053467434210   111.08983967    60.72271907
 H      1   2   3     2.053678158287   110.13351362   180.82503638
 H      1   2   3     2.055503959574   110.31605376   300.59497362
 H      2   1   3     2.065796920361   108.87217838   120.43070607
 H      2   1   3     2.063414769180   110.39891783   238.40390296
 H      3   2   1     2.082535778644   108.33449293    50.54125132
 H      4   3   2     2.062802618995   106.88092477   246.23858694
 H      4   3   2     2.059967246599   109.93151696     2.83501145
 H      5   4   3     2.054283548081   110.19382349   178.62546613
 H      5   4   3     2.055432898307   110.53196975   298.57624135
 H      5   4   3     2.054935594359   110.45067873    58.81203836
 H      6   3   2     1.826476793707   109.56803704   301.82836226

---------------------
BASIS SET INFORMATION
---------------------
There are 3 groups of distinct atoms

 Group   1 Type C   : 11s6p1d contracted to 5s3p1d pattern {62111/411/1}
 Group   2 Type O   : 11s6p2d contracted to 5s3p2d pattern {62111/411/11}
 Group   3 Type H   : 4s1p contracted to 2s1p pattern {31/1}

Atom   0C    basis set group =>   1
Atom   1C    basis set group =>   1
Atom   2C    basis set group =>   1
Atom   3C    basis set group =>   1
Atom   4C    basis set group =>   1
Atom   5O    basis set group =>   2
Atom   6H    basis set group =>   3
Atom   7H    basis set group =>   3
Atom   8H    basis set group =>   3
Atom   9H    basis set group =>   3
Atom  10H    basis set group =>   3
Atom  11H    basis set group =>   3
Atom  12H    basis set group =>   3
Atom  13H    basis set group =>   3
Atom  14H    basis set group =>   3
Atom  15H    basis set group =>   3
Atom  16H    basis set group =>   3
Atom  17H    basis set group =>   3
---------------------------------
AUXILIARY/J BASIS SET INFORMATION
---------------------------------
There are 3 groups of distinct atoms

 Group   1 Type C   : 12s5p4d2f1g contracted to 6s4p3d1f1g pattern {711111/2111/211/2/1}
 Group   2 Type O   : 12s5p4d2f1g contracted to 6s4p3d1f1g pattern {711111/2111/211/2/1}
 Group   3 Type H   : 5s2p1d contracted to 3s1p1d pattern {311/2/1}

Atom   0C    basis set group =>   1
Atom   1C    basis set group =>   1
Atom   2C    basis set group =>   1
Atom   3C    basis set group =>   1
Atom   4C    basis set group =>   1
Atom   5O    basis set group =>   2
Atom   6H    basis set group =>   3
Atom   7H    basis set group =>   3
Atom   8H    basis set group =>   3
Atom   9H    basis set group =>   3
Atom  10H    basis set group =>   3
Atom  11H    basis set group =>   3
Atom  12H    basis set group =>   3
Atom  13H    basis set group =>   3
Atom  14H    basis set group =>   3
Atom  15H    basis set group =>   3
Atom  16H    basis set group =>   3
Atom  17H    basis set group =>   3

Checking for AutoStart:
The File: sp_gas.gbw exists
Trying to determine its content:
     ... Fine, the file contains calculation information
     ... Fine, the calculation information was read
     ... Fine, the file contains a basis set
     ... Fine, the basis set was read
     ... Fine, the file contains a geometry
     ... Fine, the geometry was read
     ... Fine, the file contains a set of orbitals
     ... Fine, the orbitals can be read
     => possible old guess file was deleted
     => GBW file was renamed to GES file
     => GES file is set as startup file
     => Guess is set to MORead
     ... now leaving AutoStart

------------------------------------------------------------------------------
                             ORCA STARTUP CALCULATIONS
                           -- RI-GTO INTEGRALS CHOSEN --
------------------------------------------------------------------------------
------------------------------------------------------------------------------
                   ___                                                        
                  /   \      - P O W E R E D   B Y -                         
                 /     \                                                     
                 |  |  |   _    _      __       _____    __    __             
                 |  |  |  | |  | |    /  \     |  _  \  |  |  /  |          
                  \  \/   | |  | |   /    \    | | | |  |  | /  /          
                 / \  \   | |__| |  /  /\  \   | |_| |  |  |/  /          
                |  |  |   |  __  | /  /__\  \  |    /   |      \           
                |  |  |   | |  | | |   __   |  |    \   |  |\   \          
                \     /   | |  | | |  |  |  |  | |\  \  |  | \   \       
                 \___/    |_|  |_| |__|  |__|  |_| \__\ |__|  \__/        
                                                                              
                      - O R C A' S   B I G   F R I E N D -                    
                                      &                                       
                       - I N T E G R A L  F E E D E R -                       
                                                                              
 v1 FN, 2020, v2 2021, v3 2022-2024                                           
------------------------------------------------------------------------------


----------------------
SHARK INTEGRAL PACKAGE
----------------------

Number of atoms                             ...     18
Number of basis functions                   ...    179
Number of shells                            ...     91
Maximum angular momentum                    ...      2
Integral batch strategy                     ... SHARK/LIBINT Hybrid
RI-J (if used) integral strategy            ... SPLIT-RIJ (Revised 2003 algorithm where possible)
Printlevel                                  ...      1
Contraction scheme used                     ... SEGMENTED contraction
Prescreening option                         ... SCHWARTZ
   Thresh                                   ... 1.000e-10
   Tcut                                     ... 1.000e-11
   Tpresel                                  ... 1.000e-11 
Coulomb Range Separation                    ... NOT USED
Exchange Range Separation                   ... NOT USED
Multipole approximations                    ... NOT USED
Finite Nucleus Model                        ... NOT USED
CABS basis                                  ... NOT available
Auxiliary Coulomb fitting basis             ... AVAILABLE
   # of basis functions in Aux-J            ...    426
   # of shells in Aux-J                     ...    150
   Maximum angular momentum in Aux-J        ...      4
Auxiliary J/K fitting basis                 ... NOT available
Auxiliary Correlation fitting basis         ... NOT available
Auxiliary 'external' fitting basis          ... NOT available

Checking pre-screening integrals            ... done (  0.0 sec) Dimension = 91
Check shell pair data                       ... done (  0.0 sec)
Shell pair information
Shell pair cut-off parameter TPreSel        ...   1.0e-11
Total number of shell pairs                 ...      4186
Shell pairs after pre-screening             ...      3888
Total number of primitive shell pairs       ...     14533
Primitive shell pairs kept                  ...      9927
          la=0 lb=0:   1371 shell pairs
          la=1 lb=0:   1494 shell pairs
          la=1 lb=1:    435 shell pairs
          la=2 lb=0:    360 shell pairs
          la=2 lb=1:    200 shell pairs
          la=2 lb=2:     28 shell pairs

Calculating one electron integrals          ... done (  0.0 sec)
Calculating RI/J V-Matrix + Cholesky decomp.... done (  0.1 sec)
Calculating Nuclear repulsion               ... done (  0.0 sec) ENN=    259.344091047466 Eh

Diagonalization of the overlap matrix:
Smallest eigenvalue                        ... 1.958e-04
Time for diagonalization                   ...    0.004 sec
Threshold for overlap eigenvalues          ... 1.000e-07
Number of eigenvalues below threshold      ... 0
Time for construction of square roots      ...    0.018 sec
Total time needed                          ...    0.034 sec

-------------------
DFT GRID GENERATION
-------------------

General Integration Accuracy     IntAcc      ... 4.388
Radial Grid Type                 RadialGrid  ... OptM3 with GC (2021)
Angular Grid (max. ang.)         AngularGrid ... 4 (Lebedev-302)
Angular grid pruning method      GridPruning ... 4 (adaptive)
Weight generation scheme         WeightScheme... mBecke (2022)
Basis function cutoff            BFCut       ... 1.0000e-10
Integration weight cutoff        WCut        ... 1.0000e-14
Partially contracted basis set               ... off
Rotationally invariant grid construction     ... off
Angular grids for H and He will be reduced by one unit
Diffuse basis detected: some atoms will have their outermost
                        angular grid increased by 1.

Total number of grid points                  ...    74894
Total number of batches                      ...     1178
Average number of points per batch           ...       63
Average number of grid points per atom       ...     4161
Initializing property integral containers    ... done (  0.0 sec)

SHARK setup successfully completed in   1.0 seconds

Maximum memory used throughout the entire STARTUP-calculation: 32.4 MB
-------------------------------------------------------------------------------
                                 ORCA GUESS
                   Start orbitals & Density for SCF / CASSCF
-------------------------------------------------------------------------------

------------
SCF SETTINGS
------------
Hamiltonian:
 Density Functional     Method          .... DFT(GTOs)
  Functional kind                       .... Exchange
  Functional name                       .... Re-regularized SCAN exchange by Furness et al
  Functional family                     .... MGGA
  Functional refs                              
    [ 0] J. W. Furness, A. D. Kaplan, J. Ning, J. P. Perdew, and J. Sun.,  J. Phys. Chem. Lett. 11, 8208-8215 (2020), doi: 10.1021/acs.jpclett.0c02405
    [ 1] J. W. Furness, A. D. Kaplan, J. Ning, J. P. Perdew, and J. Sun.,  J. Phys. Chem. Lett. 11, 9248-9248 (2020), doi: 10.1021/acs.jpclett.0c03077
  Functional external parameters        .... 6
    Parameter  0 _c1        =  6.670000e-01 : c1 parameter        
    Parameter  1 _c2        =  8.000000e-01 : c2 parameter        
    Parameter  2 _d         =  1.240000e+00 : d parameter         
    Parameter  3 _k1        =  6.500000e-02 : k1 parameter        
    Parameter  4 _eta       =  1.000000e-03 : eta parameter       
    Parameter  5 _dp2       =  3.610000e-01 : dp2 parameter       
  Functional kind                       .... Correlation
  Functional name                       .... Re-regularized SCAN correlation by Furness et al
  Functional family                     .... MGGA
  Functional refs                              
    [ 0] J. W. Furness, A. D. Kaplan, J. Ning, J. P. Perdew, and J. Sun.,  J. Phys. Chem. Lett. 11, 8208-8215 (2020), doi: 10.1021/acs.jpclett.0c02405
    [ 1] J. W. Furness, A. D. Kaplan, J. Ning, J. P. Perdew, and J. Sun.,  J. Phys. Chem. Lett. 11, 9248-9248 (2020), doi: 10.1021/acs.jpclett.0c03077
  Functional external parameters        .... 1
    Parameter  0 _eta       =  1.000000e-03 : Regularization parameter
 Gradients option       PostSCFGGA      .... off
 RI-approximation to the Coulomb term is turned on
   Number of AuxJ basis functions       .... 426


General Settings:
 Integral files         IntName         .... sp_gas
 Hartree-Fock type      HFTyp           .... RHF
 Total Charge           Charge          ....    0
 Multiplicity           Mult            ....    1
 Number of Electrons    NEL             ....   50
 Basis Dimension        Dim             ....  179
 Nuclear Repulsion      ENuc            ....    259.3440910475 Eh

Convergence Acceleration:
 AO-DIIS                CNVDIIS         .... on
   Start iteration      DIISMaxIt       ....    12
   Startup error        DIISStart       ....  0.200000
   # of expansion vecs  DIISMaxEq       ....     5
   Bias factor          DIISBfac        ....   1.050
   Max. coefficient     DIISMaxC        ....  10.000
 MO-DIIS                CNVKDIIS        .... off
 Trust-Rad. Augm. Hess. CNVTRAH         .... auto
   Auto Start mean grad. ratio tolernc. ....  1.125000
   Auto Start start iteration           ....     1
   Auto Start num. interpolation iter.  ....    10
   Max. Number of Micro iterations      ....    24
   Max. Number of Macro iterations      .... Maxiter - #DIIS iter
   Number of Davidson start vectors     ....     2
   Converg. threshold    (grad. norm)   ....   3.330e-04
   Grad. Scal. Fac. for Micro threshold ....   0.100
   Minimum threshold for Micro iter.    ....   1.000e-02
   NR start threshold (gradient norm)   ....   1.000e-04
   Initial trust radius                 ....   0.400
   Minimum AH scaling param. (alpha)    ....   1.000
   Maximum AH scaling param. (alpha)    .... 1000.000
   Quad. conv. algorithm                .... NR
   White noise on init. David. guess    .... on
   Maximum white noise                  ....   0.010
   Pseudo random numbers                .... off
   Inactive MOs                         .... canonical
   Orbital update algorithm             .... Taylor
   Preconditioner                       .... Diag
   Full preconditioner red. dimension   ....   250
   COSX micro iterations for RIJONX calc.... off
 SOSCF                  CNVSOSCF        .... on
   Start iteration      SOSCFMaxIt      ....   150
   Startup grad/error   SOSCFStart      ....  0.003300
   Hessian update       SOSCFHessUp     .... L-BFGS
 Level Shifting         CNVShift        .... on
   Level shift para.    LevelShift      ....    0.2500
   Turn off err/grad.   ShiftErr        ....    0.0010
 Zerner damping         CNVZerner       .... off
 Static damping         CNVDamp         .... on
   Fraction old density DampFac         ....    0.7000
   Max. Damping (<1)    DampMax         ....    0.9800
   Min. Damping (>=0)   DampMin         ....    0.0000
   Turn off err/grad.   DampErr         ....    0.1000

SCF Procedure:
 Maximum # iterations   MaxIter         ....   125
 SCF integral mode      SCFMode         .... Direct
   Integral package                     .... SHARK and LIBINT hybrid scheme
 Reset frequency        DirectResetFreq ....    20
 Integral Threshold     Thresh          ....  1.000e-10 Eh
 Primitive CutOff       TCut            ....  1.000e-11 Eh

Convergence Tolerance:
 Convergence Check Mode ConvCheckMode   .... Total+1el-Energy
 Convergence forced     ConvForced      .... 0
 Energy Change          TolE            ....  1.000e-06 Eh
 1-El. energy change                    ....  1.000e-03 Eh
 Orbital Gradient       TolG            ....  3.330e-04
 Orbital Rotation angle TolX            ....  3.330e-04
 DIIS Error             TolErr          ....  1.000e-06

---------------------
INITIAL GUESS: MOREAD
---------------------
Guess MOs are being read from file: sp_gas.ges
Input Geometry matches current geometry (good)
Atom 0: N(Shells)= 9 and 6 - projection required
Input basis set needs projection
NBasis(read)= 108
NBasis(calc)= 179
Basis set overlap was calculated
Using GuessMode=FMatrix for the initial guess
C*T matrix was formed
Effective Fockian was calculated
Effective Fockian was diagonalized
Initial density was built
                      ------------------
                      INITIAL GUESS DONE (   0.0 sec)
                      ------------------
             **** ENERGY FILE WAS UPDATED (sp_gas.en.tmp) ****
Finished Guess after   0.2 sec
Maximum memory used throughout the entire GUESS-calculation: 12.2 MB

-------------------------------------------------------------------------------------------
                                      ORCA LEAN-SCF
                              memory conserving SCF solver
-------------------------------------------------------------------------------------------

----------------------------------------D-I-I-S--------------------------------------------
Iteration    Energy (Eh)           Delta-E    RMSDP     MaxDP     DIISErr   Damp  Time(sec)
-------------------------------------------------------------------------------------------
               ***  Starting incremental Fock matrix formation  ***
    1    -272.7482180353622994     0.00e+00  3.53e-03  8.96e-02  6.27e-01  0.700   2.0
    2    -272.7942671037491777    -4.60e-02  2.95e-03  7.20e-02  4.40e-01  0.700   2.0
    3    -272.8269152808534841    -3.26e-02  2.19e-03  5.27e-02  3.09e-01  0.700   1.9
    4    -272.8498523474564195    -2.29e-02  1.57e-03  3.76e-02  2.16e-01  0.700   1.9
                               ***Turning on AO-DIIS***
    5    -272.8659502173063061    -1.61e-02  1.14e-03  2.68e-02  1.51e-01  0.700   1.9
    6    -272.8772412253982225    -1.13e-02  8.15e-04  1.89e-02  1.06e-01  0.700   1.9
    7    -272.8851590945075145    -7.92e-03  5.77e-04  1.33e-02  7.41e-02  0.700   1.8
    8    -272.8907089406356477    -5.55e-03  1.35e-03  3.12e-02  5.19e-02  0.000   1.8
                              *** Initializing SOSCF ***
---------------------------------------S-O-S-C-F--------------------------------------
Iteration    Energy (Eh)           Delta-E    RMSDP     MaxDP     MaxGrad    Time(sec)
--------------------------------------------------------------------------------------
    9    -272.9036823595167220    -1.30e-02  9.60e-06  1.77e-04  1.25e-04     1.9
               *** Restarting incremental Fock matrix formation ***
   10    -272.9036824597888540    -1.00e-07  9.03e-06  2.17e-04  2.70e-05     2.0
                  *** Gradient check signals convergence ***

               *****************************************************
               *                     SUCCESS                       *
               *           SCF CONVERGED AFTER  10 CYCLES          *
               *****************************************************

             **** ENERGY FILE WAS UPDATED (sp_gas.en.tmp) ****

----------------
TOTAL SCF ENERGY
----------------

Total Energy       :       -272.90368245978885 Eh           -7426.08673 eV

Components:
Nuclear Repulsion  :        259.34409104746572 Eh            7057.11149 eV
Electronic Energy  :       -532.24777350725458 Eh          -14483.19823 eV
One Electron Energy:       -882.49941215999957 Eh          -24014.02985 eV
Two Electron Energy:        350.25163865274493 Eh            9530.83163 eV

Virial components:
Potential Energy   :       -544.59045016712480 Eh          -14819.05954 eV
Kinetic Energy     :        271.68676770733589 Eh            7392.97280 eV
Virial Ratio       :          2.00447910939028

DFT components:
N(Alpha)           :       25.000025486568 electrons
N(Beta)            :       25.000025486568 electrons
N(Total)           :       50.000050973135 electrons
E(X)               :      -38.578343189296 Eh       
E(C)               :       -1.561463609943 Eh       
E(XC)              :      -40.139806799238 Eh       

---------------
SCF CONVERGENCE
---------------

  Last Energy change         ...    1.0027e-07  Tolerance :   1.0000e-06
  Last MAX-Density change    ...    2.1710e-04  Tolerance :   1.0000e-05
  Last RMS-Density change    ...    9.0255e-06  Tolerance :   1.0000e-06
  Last DIIS Error            ...    1.2479e-04  Tolerance :   1.0000e-06
  Last Orbital Gradient      ...    2.7040e-05  Tolerance :   3.3300e-04
  Last Orbital Rotation      ...    4.3340e-05  Tolerance :   3.3300e-04


----------------
ORBITAL ENERGIES
----------------

  NO   OCC          E(Eh)            E(eV) 
   0   2.0000     -18.942641      -515.4555 
   1   2.0000     -10.076964      -274.2081 
   2   2.0000     -10.026552      -272.8364 
   3   2.0000     -10.021889      -272.7095 
   4   2.0000     -10.021257      -272.6923 
   5   2.0000     -10.015862      -272.5454 
   6   2.0000      -0.979952       -26.6658 
   7   2.0000      -0.761552       -20.7229 
   8   2.0000      -0.719678       -19.5834 
   9   2.0000      -0.637958       -17.3597 
  10   2.0000      -0.581641       -15.8273 
  11   2.0000      -0.538739       -14.6598 
  12   2.0000      -0.480519       -13.0756 
  13   2.0000      -0.433865       -11.8061 
  14   2.0000      -0.410902       -11.1812 
  15   2.0000      -0.389062       -10.5869 
  16   2.0000      -0.380999       -10.3675 
  17   2.0000      -0.365216        -9.9380 
  18   2.0000      -0.345398        -9.3988 
  19   2.0000      -0.322619        -8.7789 
  20   2.0000      -0.315230        -8.5778 
  21   2.0000      -0.310757        -8.4561 
  22   2.0000      -0.302783        -8.2392 
  23   2.0000      -0.277601        -7.5539 
  24   2.0000      -0.229914        -6.2563 
  25   0.0000       0.062919         1.7121 
  26   0.0000       0.088083         2.3969 
  27   0.0000       0.108914         2.9637 
  28   0.0000       0.118020         3.2115 
  29   0.0000       0.128281         3.4907 
  30   0.0000       0.134902         3.6709 
  31   0.0000       0.153624         4.1803 
  32   0.0000       0.157101         4.2749 
  33   0.0000       0.168485         4.5847 
  34   0.0000       0.175776         4.7831 
  35   0.0000       0.179855         4.8941 
*Only the first 10 virtual orbitals were printed.

                    ********************************
                    * MULLIKEN POPULATION ANALYSIS *
                    ********************************

-----------------------
MULLIKEN ATOMIC CHARGES
-----------------------
   0 C :   -0.492975
   1 C :   -0.247738
   2 C :    0.050822
   3 C :   -0.270549
   4 C :   -0.496997
   5 O :   -0.428477
   6 H :    0.146842
   7 H :    0.149733
   8 H :    0.147891
   9 H :    0.123541
  10 H :    0.153937
  11 H :    0.132344
  12 H :    0.166475
  13 H :    0.143384
  14 H :    0.144051
  15 H :    0.145672
  16 H :    0.151939
  17 H :    0.280106
Sum of atomic charges:    0.0000000

--------------------------------
MULLIKEN REDUCED ORBITAL CHARGES
--------------------------------
  0 C s       :     3.332622  s :     3.332622
      pz      :     1.016902  p :     3.133321
      px      :     1.102888
      py      :     1.013531
      dz2     :     0.008487  d :     0.027032
      dxz     :     0.001709
      dyz     :     0.005310
      dx2y2   :     0.004225
      dxy     :     0.007300

  1 C s       :     3.194974  s :     3.194974
      pz      :     1.028083  p :     3.016704
      px      :     0.971815
      py      :     1.016806
      dz2     :     0.009985  d :     0.036060
      dxz     :     0.003532
      dyz     :     0.006457
      dx2y2   :     0.005960
      dxy     :     0.010125

  2 C s       :     3.225156  s :     3.225156
      pz      :     0.964652  p :     2.657320
      px      :     0.929632
      py      :     0.763036
      dz2     :     0.016947  d :     0.066702
      dxz     :     0.006222
      dyz     :     0.013430
      dx2y2   :     0.013773
      dxy     :     0.016330

  3 C s       :     3.205680  s :     3.205680
      pz      :     1.000965  p :     3.029946
      px      :     0.988922
      py      :     1.040059
      dz2     :     0.006037  d :     0.034923
      dxz     :     0.008557
      dyz     :     0.006474
      dx2y2   :     0.004866
      dxy     :     0.008989

  4 C s       :     3.347057  s :     3.347057
      pz      :     0.993207  p :     3.122630
      px      :     1.039021
      py      :     1.090402
      dz2     :     0.004997  d :     0.027310
      dxz     :     0.007396
      dyz     :     0.005438
      dx2y2   :     0.002242
      dxy     :     0.007237

  5 O s       :     3.770840  s :     3.770840
      pz      :     1.732547  p :     4.644587
      px      :     1.653100
      py      :     1.258940
      dz2     :     0.001867  d :     0.013050
      dxz     :     0.005126
      dyz     :     0.001913
      dx2y2   :     0.001477
      dxy     :     0.002667

  6 H s       :     0.834727  s :     0.834727
      pz      :     0.003735  p :     0.018431
      px      :     0.006676
      py      :     0.008020

  7 H s       :     0.831911  s :     0.831911
      pz      :     0.003967  p :     0.018356
      px      :     0.009858
      py      :     0.004531

  8 H s       :     0.833851  s :     0.833851
      pz      :     0.010263  p :     0.018258
      px      :     0.003711
      py      :     0.004284

  9 H s       :     0.858491  s :     0.858491
      pz      :     0.003590  p :     0.017969
      px      :     0.007047
      py      :     0.007333

 10 H s       :     0.828287  s :     0.828287
      pz      :     0.010323  p :     0.017776
      px      :     0.003365
      py      :     0.004088

 11 H s       :     0.850782  s :     0.850782
      pz      :     0.010861  p :     0.016873
      px      :     0.003284
      py      :     0.002729

 12 H s       :     0.815531  s :     0.815531
      pz      :     0.007957  p :     0.017993
      px      :     0.005204
      py      :     0.004832

 13 H s       :     0.838512  s :     0.838512
      pz      :     0.004545  p :     0.018104
      px      :     0.004628
      py      :     0.008931

 14 H s       :     0.837635  s :     0.837635
      pz      :     0.004248  p :     0.018314
      px      :     0.007538
      py      :     0.006527

 15 H s       :     0.836083  s :     0.836083
      pz      :     0.008024  p :     0.018246
      px      :     0.005244
      py      :     0.004978

 16 H s       :     0.829850  s :     0.829850
      pz      :     0.004432  p :     0.018211
      px      :     0.004983
      py      :     0.008796

 17 H s       :     0.676681  s :     0.676681
      pz      :     0.011681  p :     0.043213
      px      :     0.016738
      py      :     0.014794


------------------------
MULLIKEN OVERLAP CHARGES
------------------------
B(  0-C ,  1-C ) :   0.2133 B(  0-C ,  2-C ) :  -0.1039 B(  0-C ,  6-H ) :   0.8299 
B(  0-C ,  7-H ) :   0.7844 B(  0-C ,  8-H ) :   0.8608 B(  0-C ,  9-H ) :  -0.0707 
B(  0-C , 11-H ) :   0.0581 B(  1-C ,  2-C ) :   0.3496 B(  1-C ,  3-C ) :   0.0690 
B(  1-C ,  4-C ) :  -0.0615 B(  1-C ,  5-O ) :  -0.1364 B(  1-C ,  6-H ) :  -0.0629 
B(  1-C ,  7-H ) :  -0.0635 B(  1-C ,  8-H ) :  -0.1081 B(  1-C ,  9-H ) :   0.8608 
B(  1-C , 10-H ) :   0.8047 B(  1-C , 11-H ) :  -0.2155 B(  2-C ,  3-C ) :   0.2789 
B(  2-C ,  5-O ) :   0.3974 B(  2-C ,  9-H ) :  -0.1117 B(  2-C , 10-H ) :  -0.0833 
B(  2-C , 11-H ) :   0.9527 B(  2-C , 12-H ) :  -0.0725 B(  2-C , 13-H ) :  -0.1364 
B(  2-C , 17-H ) :  -0.1156 B(  3-C ,  4-C ) :   0.3184 B(  3-C ,  5-O ) :  -0.0843 
B(  3-C , 11-H ) :  -0.1840 B(  3-C , 12-H ) :   0.8223 B(  3-C , 13-H ) :   0.8511 
B(  3-C , 14-H ) :  -0.0868 B(  3-C , 15-H ) :  -0.0827 B(  3-C , 16-H ) :  -0.0871 
B(  4-C , 11-H ) :   0.0691 B(  4-C , 13-H ) :  -0.0620 B(  4-C , 14-H ) :   0.8137 
B(  4-C , 15-H ) :   0.8522 B(  4-C , 16-H ) :   0.8416 B(  5-O , 11-H ) :  -0.1156 
B(  5-O , 17-H ) :   0.5771 B(  6-H ,  8-H ) :  -0.0511 B( 15-H , 16-H ) :  -0.0509 



                     *******************************
                     * LOEWDIN POPULATION ANALYSIS *
                     *******************************

----------------------
LOEWDIN ATOMIC CHARGES
----------------------
   0 C :   -0.421898
   1 C :   -0.294459
   2 C :    0.056968
   3 C :   -0.279115
   4 C :   -0.420067
   5 O :   -0.622778
   6 H :    0.151517
   7 H :    0.152826
   8 H :    0.150979
   9 H :    0.152358
  10 H :    0.161041
  11 H :    0.160969
  12 H :    0.179648
  13 H :    0.155135
  14 H :    0.149951
  15 H :    0.147938
  16 H :    0.153064
  17 H :    0.265922

-------------------------------
LOEWDIN REDUCED ORBITAL CHARGES
-------------------------------
  0 C s       :     2.970502  s :     2.970502
      pz      :     1.127007  p :     3.387875
      px      :     1.148662
      py      :     1.112206
      dz2     :     0.020053  d :     0.063522
      dxz     :     0.003559
      dyz     :     0.012704
      dx2y2   :     0.009760
      dxy     :     0.017445

  1 C s       :     2.944469  s :     2.944469
      pz      :     1.117471  p :     3.271635
      px      :     1.063548
      py      :     1.090616
      dz2     :     0.021906  d :     0.078355
      dxz     :     0.006631
      dyz     :     0.014844
      dx2y2   :     0.012369
      dxy     :     0.022605

  2 C s       :     2.844096  s :     2.844096
      pz      :     1.015974  p :     2.956291
      px      :     1.033976
      py      :     0.906341
      dz2     :     0.040135  d :     0.142644
      dxz     :     0.010148
      dyz     :     0.028933
      dx2y2   :     0.027318
      dxy     :     0.036110

  3 C s       :     2.934355  s :     2.934355
      pz      :     1.107581  p :     3.269914
      px      :     1.068371
      py      :     1.093962
      dz2     :     0.012081  d :     0.074846
      dxz     :     0.019573
      dyz     :     0.013564
      dx2y2   :     0.010017
      dxy     :     0.019611

  4 C s       :     2.973988  s :     2.973988
      pz      :     1.109950  p :     3.382011
      px      :     1.119886
      py      :     1.152175
      dz2     :     0.010977  d :     0.064068
      dxz     :     0.017913
      dyz     :     0.012545
      dx2y2   :     0.005008
      dxy     :     0.017625

  5 O s       :     3.520561  s :     3.520561
      pz      :     1.758072  p :     4.809477
      px      :     1.668868
      py      :     1.382536
      dz2     :     0.066955  d :     0.292740
      dxz     :     0.022177
      dyz     :     0.059945
      dx2y2   :     0.048344
      dxy     :     0.095319

  6 H s       :     0.804559  s :     0.804559
      pz      :     0.008285  p :     0.043924
      px      :     0.016096
      py      :     0.019543

  7 H s       :     0.803476  s :     0.803476
      pz      :     0.008959  p :     0.043698
      px      :     0.024410
      py      :     0.010329

  8 H s       :     0.805586  s :     0.805586
      pz      :     0.025330  p :     0.043435
      px      :     0.008142
      py      :     0.009963

  9 H s       :     0.805040  s :     0.805040
      pz      :     0.008241  p :     0.042601
      px      :     0.016454
      py      :     0.017906

 10 H s       :     0.795619  s :     0.795619
      pz      :     0.025830  p :     0.043341
      px      :     0.007887
      py      :     0.009624

 11 H s       :     0.798660  s :     0.798660
      pz      :     0.025481  p :     0.040371
      px      :     0.007738
      py      :     0.007152

 12 H s       :     0.776889  s :     0.776889
      pz      :     0.019714  p :     0.043463
      px      :     0.012332
      py      :     0.011418

 13 H s       :     0.800846  s :     0.800846
      pz      :     0.010896  p :     0.044019
      px      :     0.010956
      py      :     0.022167

 14 H s       :     0.806686  s :     0.806686
      pz      :     0.009776  p :     0.043362
      px      :     0.018105
      py      :     0.015481

 15 H s       :     0.808741  s :     0.808741
      pz      :     0.019364  p :     0.043321
      px      :     0.012491
      py      :     0.011465

 16 H s       :     0.803543  s :     0.803543
      pz      :     0.010018  p :     0.043393
      px      :     0.011468
      py      :     0.021907

 17 H s       :     0.611050  s :     0.611050
      pz      :     0.031726  p :     0.123028
      px      :     0.049532
      py      :     0.041770


---------------------------------
LOEWDIN BOND ORDERS (THRESH 0.050000)
---------------------------------
B(  0-C ,  1-C ) :   1.1347 B(  0-C ,  2-C ) :   0.0735 B(  0-C ,  6-H ) :   0.9245 
B(  0-C ,  7-H ) :   0.9276 B(  0-C ,  8-H ) :   0.9280 B(  1-C ,  2-C ) :   1.0123 
B(  1-C ,  3-C ) :   0.0701 B(  1-C ,  5-O ) :   0.1745 B(  1-C ,  9-H ) :   0.8848 
B(  1-C , 10-H ) :   0.8867 B(  2-C ,  3-C ) :   0.9921 B(  2-C ,  4-C ) :   0.0762 
B(  2-C ,  5-O ) :   1.3991 B(  2-C , 11-H ) :   0.8001 B(  3-C ,  4-C ) :   1.1437 
B(  3-C ,  5-O ) :   0.1802 B(  3-C , 12-H ) :   0.8699 B(  3-C , 13-H ) :   0.8857 
B(  4-C , 14-H ) :   0.9289 B(  4-C , 15-H ) :   0.9291 B(  4-C , 16-H ) :   0.9281 
B(  5-O , 11-H ) :   0.0990 B(  5-O , 17-H ) :   0.9715 

------------------------------------------
LOEWDIN REDUCED ORBITAL POPULATIONS PER MO
-------------------------------------------
THRESHOLD FOR PRINTING IS 0.1%%
                      0         1         2         3         4         5   
                 -18.94264 -10.07696 -10.02655 -10.02189 -10.02126 -10.01586
                   2.00000   2.00000   2.00000   2.00000   2.00000   2.00000
                  --------  --------  --------  --------  --------  --------
 0 C  s               0.0       0.0       0.0      99.7       0.0       0.0
 1 C  s               0.0       0.0      99.7       0.0       0.0       0.0
 2 C  s               0.0      99.4       0.0       0.0       0.0       0.0
 3 C  s               0.0       0.0       0.0       0.0      99.7       0.0
 4 C  s               0.0       0.0       0.0       0.0       0.0      99.7
 5 O  s              99.9       0.0       0.0       0.0       0.0       0.0
 5 O  dyz             0.0       0.2       0.0       0.0       0.0       0.0

                      6         7         8         9        10        11   
                  -0.97995  -0.76155  -0.71968  -0.63796  -0.58164  -0.53874
                   2.00000   2.00000   2.00000   2.00000   2.00000   2.00000
                  --------  --------  --------  --------  --------  --------
 0 C  s               0.1      10.1      14.2      13.8       8.2       1.2
 0 C  pz              0.0       0.7       0.4       0.2       2.0       2.5
 0 C  px              0.0       0.4       0.0       0.3       0.1       0.0
 0 C  py              0.1       1.1       0.6       0.6       3.5       0.6
 1 C  s               0.9      16.9      11.7       0.5      10.3       3.8
 1 C  pz              0.0       0.6       0.6       0.8       1.6       3.9
 1 C  px              1.0       0.6       0.9       4.0       0.1       1.5
 1 C  py              0.6       0.4       0.8       3.4       3.9       0.1
 1 C  dx2y2           0.0       0.0       0.0       0.1       0.0       0.0
 2 C  s               9.6      11.0       0.1      11.0       0.0       6.7
 2 C  pz              2.2       0.0       0.0       0.0       0.2       6.1
 2 C  px              0.1       0.2       8.0       0.0       8.7       0.3
 2 C  py              6.0       5.8       0.2       0.5       0.3       2.9
 2 C  dyz             0.4       0.1       0.0       0.0       0.0       0.0
 2 C  dx2y2           0.3       0.1       0.0       0.0       0.1       0.0
 2 C  dxy             0.0       0.0       0.1       0.0       0.1       0.0
 3 C  s               0.8      14.2      14.4       0.3       6.3       7.9
 3 C  pz              0.0       0.7       1.0       1.2       2.5       5.8
 3 C  px              0.5       0.4       1.8       5.5       0.8       0.2
 3 C  py              1.1       0.1       0.1       2.1       0.3       3.4
 3 C  dxz             0.0       0.0       0.0       0.1       0.1       0.0
 3 C  dxy             0.0       0.0       0.0       0.0       0.0       0.1
 4 C  s               0.1       6.9      16.8      13.8       8.1       1.6
 4 C  pz              0.0       0.7       0.8       0.2       2.3       4.2
 4 C  px              0.1       0.9       0.5       0.5       1.5       0.5
 4 C  py              0.0       0.1       0.0       0.2       0.2       0.2
 5 O  s              59.5       3.4       0.0       2.1       0.2       0.5
 5 O  pz              1.2       0.2       0.0       0.7       0.0       3.1
 5 O  px              1.2       0.1       0.2       0.2       1.6       0.7
 5 O  py              0.2       2.7       0.1       7.6       0.5       8.1
 5 O  dz2             0.0       0.1       0.0       0.0       0.0       0.6
 5 O  dyz             0.1       0.4       0.0       0.7       0.0       0.9
 5 O  dx2y2           0.1       0.3       0.1       0.4       0.2       0.1
 5 O  dxy             0.0       0.1       0.3       0.2       0.6       0.2
 6 H  s               0.0       1.5       2.2       3.5       3.8       0.5
 6 H  px              0.0       0.1       0.1       0.1       0.1       0.0
 6 H  py              0.0       0.1       0.1       0.1       0.1       0.0
 7 H  s               0.0       1.3       2.5       4.0       3.1       0.4
 7 H  px              0.0       0.1       0.2       0.3       0.2       0.0
 8 H  s               0.0       1.4       2.4       3.4       3.1       1.3
 8 H  pz              0.0       0.1       0.2       0.2       0.2       0.1
 9 H  s               0.1       2.2       2.1       0.1       5.0       1.8
 9 H  px              0.0       0.1       0.1       0.0       0.2       0.0
 9 H  py              0.0       0.1       0.1       0.0       0.2       0.1
10 H  s               0.0       2.3       1.8       0.2       3.4       3.6
10 H  pz              0.0       0.2       0.2       0.0       0.2       0.2
11 H  s               0.7       1.6       0.0       2.1       0.0       6.9
11 H  pz              0.1       0.1       0.0       0.2       0.0       0.4
12 H  s               0.1       1.8       2.4       0.1       2.8       4.0
12 H  pz              0.0       0.1       0.1       0.0       0.1       0.1
12 H  py              0.0       0.0       0.0       0.0       0.0       0.1
13 H  s               0.0       2.2       2.1       0.1       2.1       6.3
13 H  py              0.0       0.1       0.1       0.0       0.1       0.3
14 H  s               0.0       0.9       2.8       3.9       3.1       0.4
14 H  px              0.0       0.0       0.1       0.2       0.1       0.0
14 H  py              0.0       0.0       0.1       0.1       0.1       0.0
15 H  s               0.0       0.9       2.7       3.4       3.0       1.3
15 H  pz              0.0       0.1       0.1       0.2       0.1       0.0
16 H  s               0.0       0.9       2.7       3.3       2.9       1.5
16 H  py              0.0       0.1       0.2       0.2       0.2       0.1
17 H  s              10.4       1.3       0.1       2.3       0.3       2.1
17 H  px              1.0       0.2       0.0       0.2       0.0       0.1
17 H  py              1.2       0.1       0.0       0.1       0.0       0.0

                     12        13        14        15        16        17   
                  -0.48052  -0.43387  -0.41090  -0.38906  -0.38100  -0.36522
                   2.00000   2.00000   2.00000   2.00000   2.00000   2.00000
                  --------  --------  --------  --------  --------  --------
 0 C  s               0.1       0.0       0.0       0.0       0.0       0.1
 0 C  pz              0.8       1.6       9.9       0.9       8.5       6.4
 0 C  px              2.1       7.2       0.6       9.7       1.2      11.4
 0 C  py              0.2       7.0       0.1       0.0      15.2       6.2
 0 C  dz2             0.0       0.0       0.0       0.0       0.1       0.0
 0 C  dyz             0.0       0.0       0.1       0.0       0.0       0.2
 0 C  dx2y2           0.0       0.0       0.0       0.0       0.1       0.1
 1 C  s               0.4       0.1       0.3       0.1       0.2       0.6
 1 C  pz              4.3       4.9       3.0       0.5       4.7       4.8
 1 C  px              3.0      12.5       2.5       6.5       0.1       1.1
 1 C  py              0.2       7.0       7.0       0.4       0.2      10.0
 1 C  dx2y2           0.0       0.0       0.0       0.0       0.0       0.1
 2 C  s               0.8       0.1       0.1       0.0       0.5       0.3
 2 C  pz             15.3       4.5       2.4       0.5       2.6       4.3
 2 C  px              1.8       0.5       9.3       1.6       0.6       0.9
 2 C  py              3.9       3.7       1.8       1.8       4.7       1.1
 2 C  dyz             0.2       0.0       0.1       0.0       0.0       0.0
 2 C  dx2y2           0.0       0.1       0.0       0.1       0.0       0.0
 2 C  dxy             0.1       0.0       0.0       0.0       0.0       0.3
 3 C  s               0.4       1.1       0.0       0.1       0.0       0.2
 3 C  pz              1.9       0.4       5.1       3.1       0.5       0.0
 3 C  px              1.5       9.1       0.2       2.5       3.1       1.3
 3 C  py              2.7       2.0       8.8       8.5       0.6       1.1
 3 C  dx2y2           0.0       0.0       0.0       0.2       0.0       0.0
 4 C  s               0.4       0.2       0.0       0.0       0.0       0.0
 4 C  pz              0.1       4.7       1.6       1.1       6.8       4.0
 4 C  px              2.8       0.0       2.8      15.6       3.8       0.8
 4 C  py              0.0       3.1      12.7      12.1       0.1       6.4
 5 O  s               0.8       0.2       0.3       0.0       2.4       1.9
 5 O  pz              0.6       1.6       0.1       1.6      11.0       0.4
 5 O  px              7.1       0.0       3.2       0.4       5.5      15.5
 5 O  py             26.3       0.3       5.4       1.3       0.0       0.1
 5 O  dz2             0.1       0.1       0.0       0.2       0.2       0.6
 5 O  dxz             0.1       0.0       0.2       0.0       0.1       0.0
 5 O  dyz             0.2       0.0       0.0       0.0       0.1       0.0
 5 O  dx2y2           0.0       0.1       0.1       0.0       0.0       0.0
 5 O  dxy             0.2       0.2       0.5       0.0       0.0       0.0
 6 H  s               0.0       5.2       0.0       1.1       3.0       0.1
 6 H  px              0.0       0.0       0.0       0.0       0.2       0.1
 6 H  py              0.0       0.1       0.0       0.1       0.0       0.1
 7 H  s               0.9       0.6       0.6       4.0       4.0       6.1
 7 H  pz              0.0       0.0       0.0       0.0       0.0       0.1
 7 H  px              0.0       0.0       0.0       0.1       0.1       0.1
 8 H  s               0.1       1.3       4.0       0.6       6.6       1.3
 8 H  pz              0.0       0.1       0.1       0.0       0.2       0.0
 8 H  py              0.0       0.0       0.0       0.0       0.0       0.1
 9 H  s               0.4       7.8       0.2       1.5       0.5       0.5
 9 H  py              0.0       0.2       0.0       0.0       0.0       0.0
10 H  s               2.0       1.9       3.3       0.0       1.4       0.1
10 H  pz              0.1       0.1       0.1       0.0       0.0       0.0
10 H  py              0.0       0.0       0.0       0.0       0.0       0.1
11 H  s               5.4       1.6       0.8       0.3       2.8       1.3
11 H  pz              0.2       0.1       0.0       0.0       0.1       0.0
12 H  s               0.8       3.8       0.2       3.6       0.3       0.0
12 H  pz              0.0       0.2       0.0       0.1       0.0       0.0
13 H  s               1.2       0.7       3.1       2.9       0.1       0.0
13 H  pz              0.0       0.0       0.0       0.1       0.0       0.0
14 H  s               0.7       0.2       5.6       0.5       2.4       3.7
14 H  px              0.0       0.0       0.1       0.0       0.0       0.1
14 H  py              0.0       0.0       0.0       0.2       0.1       0.0
15 H  s               0.0       2.8       0.0       6.6       3.8       0.5
15 H  pz              0.0       0.0       0.0       0.2       0.0       0.0
16 H  s               0.7       0.0       2.2       7.8       0.0       2.9
16 H  pz              0.0       0.0       0.0       0.1       0.0       0.0
16 H  px              0.0       0.0       0.1       0.0       0.0       0.1
16 H  py              0.0       0.0       0.0       0.1       0.0       0.0
17 H  s               8.4       0.0       0.3       0.3       0.5       1.3
17 H  pz              0.0       0.0       0.0       0.0       0.1       0.0
17 H  px              0.2       0.0       0.1       0.0       0.0       0.1

                     18        19        20        21        22        23   
                  -0.34540  -0.32262  -0.31523  -0.31076  -0.30278  -0.27760
                   2.00000   2.00000   2.00000   2.00000   2.00000   2.00000
                  --------  --------  --------  --------  --------  --------
 0 C  s               0.0       0.1       0.3       0.1       0.2       0.1
 0 C  pz              1.5       8.2      10.6       1.4       0.5       0.1
 0 C  px             20.0       0.5       0.5       0.2       0.0       2.4
 0 C  py              4.4       0.1       0.3      12.0       2.7       0.2
 0 C  dz2             0.0       0.1       0.2       0.4       0.0       0.0
 0 C  dx2y2           0.1       0.0       0.0       0.0       0.0       0.1
 0 C  dxy             0.4       0.0       0.1       0.1       0.1       0.1
 1 C  s               0.1       0.0       0.3       0.0       0.2       0.1
 1 C  pz              1.2       8.5      13.6       1.4       0.1       0.7
 1 C  px              1.6       0.8       1.2       0.3       1.5       7.3
 1 C  py              2.7       0.0       0.0      11.0       4.8       0.1
 1 C  dz2             0.0       0.1       0.3       0.3       0.0       0.1
 1 C  dyz             0.0       0.1       0.2       0.0       0.0       0.1
 1 C  dx2y2           0.1       0.0       0.0       0.0       0.0       0.0
 1 C  dxy             0.2       0.0       0.1       0.1       0.2       0.2
 2 C  s               1.3       0.2       0.3       0.3       0.1       0.3
 2 C  pz              0.1       0.0       3.2       0.4       0.7       4.6
 2 C  px              0.0       0.5       3.0       0.0       0.3      13.0
 2 C  py              5.0       1.7       0.4       3.5       0.2       1.1
 2 C  dz2             0.0       0.0       0.1       0.0       0.0       0.4
 2 C  dyz             0.1       0.0       0.3       0.0       0.0       0.0
 2 C  dx2y2           0.0       0.0       0.0       0.4       0.0       0.1
 2 C  dxy             0.0       0.0       0.0       0.0       0.0       0.5
 3 C  s               0.1       0.2       0.2       0.0       0.1       0.7
 3 C  pz              2.3      17.3      10.1       0.3       0.7       2.3
 3 C  px              5.9       1.0       1.0       0.1       8.2      10.1
 3 C  py              0.4       0.7       0.9       7.0      10.2       4.8
 3 C  dz2             0.1       0.0       0.0       0.0       0.2       0.1
 3 C  dxz             0.1       0.1       0.2       0.2       0.1       0.0
 3 C  dyz             0.0       0.0       0.0       0.1       0.4       0.0
 3 C  dx2y2           0.0       0.1       0.1       0.0       0.0       0.0
 3 C  dxy             0.1       0.3       0.0       0.1       0.0       0.2
 4 C  s               0.1       0.3       0.5       0.0       0.0       0.0
 4 C  pz              0.3      21.0       6.6       0.1       0.5       0.1
 4 C  px             12.4       0.3       2.5       0.0       7.2       3.3
 4 C  py              3.3       1.9       3.2       6.7       6.1       1.2
 4 C  dz2             0.1       0.0       0.0       0.0       0.2       0.1
 4 C  dxz             0.1       0.1       0.2       0.1       0.1       0.0
 4 C  dyz             0.0       0.0       0.0       0.1       0.4       0.0
 4 C  dxy             0.1       0.3       0.0       0.1       0.0       0.2
 5 O  s               0.1       0.3       0.2       0.6       1.6       2.1
 5 O  pz              1.5       2.8       3.5      13.3       1.6      11.3
 5 O  px              0.1       0.4       3.4       2.8      10.1       7.5
 5 O  py              1.8       0.2       4.1       1.9       0.2       0.0
 5 O  dz2             0.0       0.0       0.1       0.1       0.2       0.6
 5 O  dxz             0.0       0.2       0.0       0.0       0.1       0.1
 5 O  dx2y2           0.5       0.0       0.0       0.0       0.1       0.2
 5 O  dxy             0.0       0.1       0.2       0.0       0.5       1.2
 6 H  s              10.9       0.5       0.0       5.8       1.2       0.9
 6 H  pz              0.0       0.1       0.1       0.0       0.0       0.0
 6 H  px              0.0       0.0       0.0       0.1       0.0       0.0
 6 H  py              0.1       0.0       0.0       0.0       0.0       0.0
 7 H  s               8.2       0.0       1.2       0.6       0.0       1.9
 7 H  py              0.2       0.0       0.0       0.1       0.0       0.0
 8 H  s               0.2       4.4       5.7       4.3       0.0       0.0
 8 H  px              0.2       0.0       0.0       0.0       0.0       0.0
 9 H  s               3.1       0.5       0.2       6.1       4.4       3.8
 9 H  pz              0.0       0.1       0.1       0.0       0.0       0.0
10 H  s               0.4       4.8       9.2       3.4       0.2       1.3
11 H  s               0.2       0.0       3.8       0.2       0.4       4.6
11 H  px              0.0       0.0       0.0       0.0       0.0       0.2
12 H  s               0.0       3.6       2.9       2.4       7.8       2.2
12 H  pz              0.0       0.0       0.0       0.0       0.2       0.0
12 H  px              0.0       0.1       0.1       0.0       0.0       0.0
13 H  s               0.1       4.5       0.2       3.9       9.9       0.3
13 H  pz              0.0       0.1       0.1       0.0       0.1       0.0
13 H  px              0.0       0.0       0.0       0.0       0.0       0.1
14 H  s               6.9       3.0       1.0       1.5       0.2       3.3
14 H  px              0.0       0.1       0.0       0.0       0.0       0.0
15 H  s               0.2       4.0       2.0       1.3       7.0       0.6
16 H  s               0.0       4.5       0.1       3.4       6.9       0.1
17 H  s               0.2       0.0       0.2       0.1       0.9       1.9
17 H  pz              0.0       0.0       0.0       0.2       0.0       0.1

                     24        25        26        27        28        29   
                  -0.22991   0.06292   0.08808   0.10891   0.11802   0.12828
                   2.00000   0.00000   0.00000   0.00000   0.00000   0.00000
                  --------  --------  --------  --------  --------  --------
 0 C  s               0.0       0.4      21.2       1.5       4.5       3.5
 0 C  pz              0.2       1.6       0.8       1.4       1.9       5.6
 0 C  px              0.7       0.1       0.4       4.5       3.8       1.3
 0 C  py              0.7       0.8       0.7       1.2       6.1       0.7
 0 C  dz2             0.0       0.0       0.1       0.0       0.0       0.2
 0 C  dxz             0.0       0.0       0.0       0.0       0.2       0.0
 0 C  dyz             0.0       0.2       0.1       0.2       0.0       0.0
 0 C  dx2y2           0.0       0.0       0.3       0.0       0.4       0.3
 0 C  dxy             0.1       0.0       0.0       0.0       0.3       0.2
 1 C  s               1.1       3.0       4.8       8.1       0.5       1.6
 1 C  pz              0.6       0.2       0.2       0.7       3.8       4.6
 1 C  px              6.7       3.6       3.1       2.9       1.0       2.5
 1 C  py              1.9       3.1       0.8       0.7       3.6       3.5
 1 C  dz2             0.1       0.0       0.0       0.0       0.3       0.1
 1 C  dxz             0.0       0.3       0.1       0.2       0.0       0.3
 1 C  dyz             0.0       0.0       0.1       0.3       0.7       0.2
 1 C  dx2y2           0.1       0.4       0.1       0.0       0.0       0.0
 1 C  dxy             0.0       0.0       0.3       0.1       0.0       0.1
 2 C  s               0.1       2.3       1.2       0.3       1.7       1.5
 2 C  pz              3.4       3.7       3.8       1.1       5.9      11.3
 2 C  px              3.0       0.6       0.5       8.8       0.1       0.2
 2 C  py              0.9      16.3       4.5       1.4       4.0       1.3
 2 C  dz2             1.3       0.2       0.0       0.0       0.4       0.5
 2 C  dxz             0.0       0.0       0.0       0.6       0.0       0.0
 2 C  dyz             0.1       0.7       0.6       0.0       0.0       0.7
 2 C  dx2y2           0.0       0.5       0.4       0.6       0.7       0.0
 2 C  dxy             0.4       0.0       0.1       0.1       0.1       0.1
 3 C  s               0.0       0.9       5.5       2.3       1.2       1.2
 3 C  pz              0.2       1.0       0.5       0.6       2.0       4.1
 3 C  px              0.2       1.6       0.1       5.9       1.4       1.8
 3 C  py              0.1       0.6       1.2       1.7       7.6       0.8
 3 C  dz2             0.0       0.0       0.0       0.3       0.0       0.0
 3 C  dxz             0.0       0.7       0.2       0.1       0.1       1.4
 3 C  dyz             0.0       0.0       0.1       0.2       0.2       0.0
 3 C  dx2y2           0.0       0.1       0.1       0.4       0.4       0.1
 3 C  dxy             0.0       0.0       0.1       0.0       0.5       0.2
 4 C  s               0.1       0.5       8.3      21.9       0.6       2.0
 4 C  pz              0.1       0.6       1.8       0.9       2.0       2.1
 4 C  px              0.6       1.0       0.3       0.6       0.1       6.6
 4 C  py              0.0       0.2       0.8       0.6       4.0       1.4
 4 C  dxz             0.0       0.0       0.4       0.1       0.0       0.3
 4 C  dyz             0.0       0.0       0.0       0.0       0.2       0.1
 4 C  dx2y2           0.0       0.1       0.0       0.2       0.1       0.1
 5 O  s               0.0       7.7       0.6       0.8       0.0       0.2
 5 O  pz             33.5       1.5       1.2       0.3       0.7       0.1
 5 O  px             23.4       3.8       0.1       0.4       0.9       0.6
 5 O  py              8.0       2.2       1.5       0.3       1.1       2.1
 5 O  dz2             0.6       0.2       0.1       0.1       0.1       0.3
 5 O  dxz             0.1       0.1       0.0       1.8       0.0       0.0
 5 O  dyz             0.1       1.3       1.3       0.3       1.8       0.3
 5 O  dx2y2           0.0       0.1       0.5       0.0       0.0       2.1
 5 O  dxy             0.4       2.2       0.3       0.1       0.0       1.4
 6 H  s               0.0       0.1       2.4       0.2       5.4       0.5
 6 H  pz              0.0       0.2       0.0       0.1       0.2       0.0
 6 H  px              0.0       0.0       1.2       0.0       0.5       0.0
 6 H  py              0.0       0.0       0.4       0.0       1.5       0.5
 7 H  s               0.7       0.1       4.4       0.4       1.2       1.1
 7 H  pz              0.0       0.0       0.2       0.1       0.1       0.0
 7 H  px              0.0       0.0       1.5       0.2       0.0       0.0
 8 H  s               0.1       0.3       1.9       0.7       0.1       2.6
 8 H  pz              0.0       0.0       0.8       0.1       0.0       1.2
 8 H  px              0.0       0.0       0.1       0.0       0.5       0.0
 8 H  py              0.0       0.1       0.4       0.1       0.1       0.1
 9 H  s               0.0       1.0       1.9       1.1       0.4       0.5
 9 H  pz              0.0       0.1       0.0       0.1       0.5       0.2
 9 H  px              0.1       0.0       0.6       0.6       0.2       0.1
 9 H  py              0.0       0.9       0.3       0.5       0.1       0.4
10 H  s               0.5       0.6       0.7       2.0       3.1       0.1
10 H  pz              0.0       0.2       0.2       0.8       0.4       0.4
10 H  px              0.1       0.3       0.0       0.0       0.0       0.1
10 H  py              0.0       0.1       0.2       0.4       0.5       0.1
11 H  s               7.3       1.2       0.9       0.2       3.8       7.4
11 H  pz              0.0       0.3       0.5       0.0       1.5       2.5
11 H  px              0.0       0.0       0.0       0.9       0.0       0.0
11 H  py              0.0       0.9       0.3       0.0       0.1       0.3
12 H  s               0.0       0.9       2.3       0.2       0.1       3.0
12 H  pz              0.0       0.0       0.2       0.0       0.1       0.1
12 H  px              0.0       0.1       0.4       0.2       0.0       0.9
12 H  py              0.0       0.1       0.1       0.0       0.3       0.1
13 H  s               0.3       1.4       0.7       1.6       8.4       0.1
13 H  pz              0.0       0.1       0.0       0.0       0.1       0.2
13 H  px              0.0       0.1       0.3       0.1       0.7       0.0
13 H  py              0.0       0.1       0.4       1.0       1.6       0.2
14 H  s               0.3       0.0       0.6       2.2       0.3       0.6
14 H  pz              0.0       0.0       0.3       0.5       0.1       0.1
14 H  px              0.0       0.1       0.2       0.3       0.0       0.2
14 H  py              0.0       0.0       0.0       0.9       0.0       0.0
15 H  s               0.1       0.1       3.9       1.8       0.3       0.0
15 H  pz              0.0       0.1       0.3       0.7       0.1       0.0
15 H  px              0.0       0.0       1.0       0.4       0.2       0.0
15 H  py              0.0       0.0       0.1       0.4       0.1       0.1
16 H  s               0.0       0.2       0.3       4.0       0.0       0.2
16 H  pz              0.0       0.0       0.1       0.1       0.1       0.0
16 H  px              0.0       0.1       0.1       0.0       0.0       0.3
16 H  py              0.0       0.1       0.3       1.8       0.0       0.0
17 H  s               0.0      20.2       0.1       0.1       1.3       5.1
17 H  pz              0.7       0.2       0.0       0.0       0.1       0.0
17 H  px              0.4       2.3       0.0       0.0       0.1       0.7
17 H  py              0.2       2.8       0.0       0.1       0.1       0.3

                     30        31        32        33        34        35   
                   0.13490   0.15362   0.15710   0.16849   0.17578   0.17985
                   0.00000   0.00000   0.00000   0.00000   0.00000   0.00000
                  --------  --------  --------  --------  --------  --------
 0 C  s               5.4       0.8       0.1       0.4       0.1       0.7
 0 C  pz              5.3       7.7       0.1       1.1       2.0       1.1
 0 C  px              0.4       3.2       8.2       8.9       7.5       3.0
 0 C  py              4.7       8.0       5.6       0.3      13.3       6.5
 0 C  dz2             0.3       0.0       0.1       0.0       0.2       0.1
 0 C  dxz             0.0       0.2       0.4       0.0       0.3       0.2
 0 C  dyz             0.2       1.2       0.0       0.1       0.5       0.3
 0 C  dx2y2           0.1       0.1       0.1       0.1       0.0       0.3
 0 C  dxy             0.0       0.1       1.1       0.2       1.5       0.0
 1 C  s               1.7       4.1       1.9       1.4       1.7       0.4
 1 C  pz              4.4       0.1       2.5       4.8       7.3       8.6
 1 C  px              1.2       0.2       9.1       6.5       5.0       8.1
 1 C  py              2.9       5.3       0.6       0.5       1.7       0.5
 1 C  dz2             0.1       0.3       0.0       0.0       1.1       0.4
 1 C  dxz             0.1       0.0       0.0       0.0       0.1       0.2
 1 C  dyz             0.2       0.0       0.2       0.2       0.0       0.0
 1 C  dx2y2           0.0       0.3       0.6       0.0       0.2       0.3
 1 C  dxy             0.1       0.4       1.3       0.1       0.0       1.0
 2 C  s               0.6       2.1       4.7       1.9       1.8       2.6
 2 C  pz              0.1       1.3       3.7       0.7       0.8       0.6
 2 C  px              2.3       2.4       1.0       2.9       1.6       1.9
 2 C  py              1.8       1.8       0.3       0.4       0.8       1.3
 2 C  dz2             0.0       0.1       0.3       0.0       0.1       0.0
 2 C  dxz             0.2       0.1       0.0       0.0       0.3       0.2
 2 C  dyz             0.0       0.0       0.2       0.0       0.2       0.0
 2 C  dx2y2           0.0       0.1       0.0       0.4       0.1       0.0
 2 C  dxy             0.0       1.0       0.0       0.4       0.0       0.3
 3 C  s               8.2       7.0       0.8       1.2       0.4       0.8
 3 C  pz             12.1       3.4       4.5       3.3       0.3       1.4
 3 C  px              1.0       1.6       0.1      10.5       0.4       1.7
 3 C  py              1.2       3.0       0.1       6.0       1.3       1.4
 3 C  dz2             0.5       0.0       0.3       0.5       0.0       0.4
 3 C  dxz             0.1       0.1       0.1       0.2       0.2       0.0
 3 C  dyz             0.0       0.0       0.1       1.4       0.2       0.5
 3 C  dxy             0.0       0.6       0.2       1.0       0.2       0.6
 4 C  s               0.9       4.5       0.8       0.1       0.3       1.0
 4 C  pz              5.3       9.7       6.0       6.9       1.0       0.6
 4 C  px              6.0       5.9      10.8       1.1       4.8       5.9
 4 C  py              1.9       0.9       0.8       0.8       3.5       2.0
 4 C  dz2             0.3       0.0       0.0       0.8       0.0       0.3
 4 C  dxz             0.9       0.4       0.2       0.0       0.3       0.4
 4 C  dyz             0.2       0.3       0.0       0.0       0.3       1.0
 4 C  dx2y2           0.0       0.1       0.2       0.1       0.1       0.0
 4 C  dxy             0.3       0.1       1.3       0.2       0.2       0.0
 5 O  s               0.3       0.1       1.1       0.1       0.0       0.5
 5 O  pz              1.5       0.0       0.5       0.1       0.3       0.1
 5 O  px              0.6       0.0       0.4       0.4       0.6       0.1
 5 O  py              1.2       1.2       1.2       1.0       1.3       0.2
 5 O  dz2             0.3       0.0       0.1       0.1       0.1       0.4
 5 O  dxz             1.0       0.0       0.0       3.9       0.0       0.1
 5 O  dyz             0.5       0.1       0.2       2.0       0.3       0.5
 5 O  dx2y2           0.0       0.4       1.5       1.3       0.1       1.5
 5 O  dxy             1.3       1.0       0.2       0.2       0.8       0.3
 6 H  s               0.4       0.2       4.3       0.5       4.0       0.2
 6 H  pz              0.0       0.3       0.1       0.0       0.5       0.4
 6 H  px              0.0       0.0       1.1       0.0       0.1       0.0
 6 H  py              0.3       0.1       0.2       0.1       0.0       0.3
 7 H  s               0.3       0.3       0.0       2.1       3.4       1.1
 7 H  pz              0.0       0.3       0.2       0.2       0.0       0.1
 7 H  px              0.1       0.1       0.0       0.8       0.1       0.3
 7 H  py              0.1       0.2       1.1       0.1       0.7       0.1
 8 H  s               1.3       0.4       0.7       0.2       1.6       0.6
[...]
 2 C  pz              0.6       0.0       3.9       4.1       0.3       0.0
 2 C  px              1.5       3.0       0.8       0.2       0.0       0.0
 2 C  py              0.7       0.0       1.4       5.7       0.8       0.0
 2 C  dz2             2.3       0.1       9.2       1.1       0.0       0.0
 2 C  dxz             0.0       0.2       0.0       0.4       0.0       0.0
 2 C  dyz             0.0       0.1       0.1       7.4       0.9       0.0
 2 C  dx2y2           0.7       0.5       0.9       3.8       0.5       0.0
 2 C  dxy             0.2       3.4       0.1       0.5       0.3       0.0
 3 C  s               0.2       1.4       0.1       0.0       0.0       0.2
 3 C  pz              1.9       2.2       0.2       0.4       0.0       0.0
 3 C  px              0.8       0.4       5.3       0.1       0.0       0.0
 3 C  py              2.7       0.7       2.3       0.1       0.0       0.0
 3 C  dz2             1.1       0.3       4.1       0.0       0.0       0.0
 3 C  dxz             6.4       0.2       0.5       0.0       0.0       0.0
 3 C  dyz             3.8       0.2       5.4       0.4       0.0       0.0
 3 C  dx2y2           1.2       0.6       1.9       0.2       0.0       0.0
 3 C  dxy             0.1       5.2       0.5       0.1       0.1       0.0
 4 C  s               0.1       0.0       0.3       0.0       0.0      51.8
 4 C  pz              2.0       0.7       0.5       0.0       0.0       0.0
 4 C  px              0.7       0.0       0.7       0.0       0.0       0.0
 4 C  py              0.3       0.5       0.2       0.0       0.0       0.0
 4 C  dz2             1.1       0.0       1.0       0.0       0.0       0.0
 4 C  dxz             3.1       0.0       0.0       0.0       0.0       0.0
 4 C  dyz             2.4       0.0       1.1       0.0       0.0       0.0
 4 C  dx2y2           0.1       0.4       0.9       0.0       0.0       0.0
 4 C  dxy             1.0       2.2       0.3       0.0       0.0       0.0
 5 O  s               0.2       0.2       0.9      26.8       6.4       0.0
 5 O  pz              0.1       0.0       0.0       6.0       0.1       0.0
 5 O  px              0.1       0.2       0.1       2.0       6.6       0.0
 5 O  py              0.4       0.0       0.2      10.5      13.3       0.0
 5 O  dz2             0.0       0.3       0.2       2.1       5.0       0.0
 5 O  dxz             0.0       0.0       0.0       2.5       2.6       0.0
 5 O  dyz             0.4       0.0       0.1      10.1       6.9       0.0
 5 O  dx2y2           0.8       0.0       0.1       7.6       0.9       0.0
 5 O  dxy             0.3       0.1       0.0       0.2      24.8       0.0
 6 H  s               0.3       2.1       0.1       0.0       0.0       0.0
 6 H  px              0.3       1.8       0.0       0.0       0.0       0.0
 6 H  py              0.6       3.6       0.2       0.1       0.0       0.0
 7 H  s               0.0       0.4       0.1       0.0       0.0       0.0
 7 H  px              0.1       0.9       0.2       0.0       0.0       0.0
 7 H  py              0.0       0.2       0.1       0.0       0.0       0.0
 8 H  s               0.7       0.2       0.2       0.0       0.0       0.0
 8 H  pz              1.8       0.5       0.5       0.0       0.0       0.0
 9 H  s               0.1       5.6       0.1       0.0       0.0       0.0
 9 H  px              0.3       5.9       0.1       0.0       0.0       0.0
 9 H  py              0.0       8.5       0.0       0.0       0.0       0.0
10 H  s               2.0       0.9       1.7       0.0       0.0       0.0
10 H  pz              4.9       1.8       4.1       0.1       0.0       0.0
10 H  py              0.5       0.0       0.5       0.0       0.0       0.0
11 H  s               1.0       0.0       3.8       1.0       0.0       0.0
11 H  pz              2.8       0.0       9.7       1.0       0.0       0.0
11 H  px              0.0       0.3       0.0       0.0       0.0       0.0
11 H  py              0.1       0.1       0.2       0.8       0.0       0.0
12 H  s               4.4       1.0       2.0       0.2       0.0       0.0
12 H  pz              6.7       1.5       3.7       0.2       0.0       0.0
12 H  px              2.5       1.1       0.2       0.1       0.0       0.0
12 H  py              1.6       0.8       0.6       0.0       0.0       0.0
13 H  s               1.8       0.9       4.5       0.0       0.0       0.0
13 H  pz              1.1       0.1       1.1       0.0       0.0       0.0
13 H  px              0.9       0.6       1.1       0.0       0.0       0.0
13 H  py              2.2       2.4       7.3       0.0       0.0       0.0
14 H  s               0.5       0.6       0.0       0.0       0.0       0.0
14 H  px              0.7       0.9       0.0       0.0       0.0       0.0
14 H  py              0.4       0.4       0.0       0.0       0.0       0.0
15 H  s               2.8       0.1       0.1       0.0       0.0       0.0
15 H  pz              4.0       0.1       0.3       0.0       0.0       0.0
15 H  px              1.5       0.1       0.0       0.0       0.0       0.0
15 H  py              1.8       0.1       0.1       0.0       0.0       0.0
16 H  s               0.2       0.6       0.7       0.0       0.0       0.0
16 H  pz              0.3       0.1       0.2       0.0       0.0       0.0
16 H  px              0.1       0.4       0.6       0.0       0.0       0.0
16 H  py              0.3       1.1       1.2       0.0       0.0       0.0
17 H  s               0.0       0.0       0.0       0.6      13.9       0.0
17 H  pz              0.0       0.1       0.1       0.0       1.0       0.0
17 H  px              0.1       0.0       0.0       0.4       7.8       0.0
17 H  py              0.0       0.0       0.0       0.7       7.3       0.0

                    174       175       176       177       178   
                  21.95738  21.98892  22.06439  22.13191  43.69905
                   0.00000   0.00000   0.00000   0.00000   0.00000
                  --------  --------  --------  --------  --------
 0 C  s              54.1       0.3       0.1       0.6       0.0
 1 C  s               0.1      51.8      47.6       0.1       0.0
 2 C  s               5.2       5.0       6.9      79.5       0.1
 3 C  s               0.6      42.5      44.5      12.0       0.0
 4 C  s              39.7       0.1       0.6       7.4       0.0
 5 O  s               0.0       0.0       0.0       0.1      99.8


                      *****************************
                      * MAYER POPULATION ANALYSIS *
                      *****************************

  NA   - Mulliken gross atomic population
  ZA   - Total nuclear charge
  QA   - Mulliken gross atomic charge
  VA   - Mayer's total valence
  BVA  - Mayer's bonded valence
  FA   - Mayer's free valence

  ATOM       NA         ZA         QA         VA         BVA        FA
  0 C      6.4930     6.0000    -0.4930     3.8301     3.8301    -0.0000
  1 C      6.2477     6.0000    -0.2477     3.6513     3.6513    -0.0000
  2 C      5.9492     6.0000     0.0508     3.5308     3.5308     0.0000
  3 C      6.2705     6.0000    -0.2705     3.6447     3.6447     0.0000
  4 C      6.4970     6.0000    -0.4970     3.8653     3.8653     0.0000
  5 O      8.4285     8.0000    -0.4285     1.8075     1.8075     0.0000
  6 H      0.8532     1.0000     0.1468     0.9645     0.9645    -0.0000
  7 H      0.8503     1.0000     0.1497     0.9611     0.9611    -0.0000
  8 H      0.8521     1.0000     0.1479     0.9624     0.9624    -0.0000
  9 H      0.8765     1.0000     0.1235     0.9671     0.9671    -0.0000
 10 H      0.8461     1.0000     0.1539     0.9603     0.9603    -0.0000
 11 H      0.8677     1.0000     0.1323     0.9539     0.9539     0.0000
 12 H      0.8335     1.0000     0.1665     0.9636     0.9636    -0.0000
 13 H      0.8566     1.0000     0.1434     0.9620     0.9620     0.0000
 14 H      0.8559     1.0000     0.1441     0.9628     0.9628     0.0000
 15 H      0.8543     1.0000     0.1457     0.9609     0.9609     0.0000
 16 H      0.8481     1.0000     0.1519     0.9602     0.9602     0.0000
 17 H      0.7199     1.0000     0.2801     0.9201     0.9201    -0.0000

  Mayer bond orders larger than 0.100000
B(  0-C ,  1-C ) :   0.8883 B(  0-C ,  6-H ) :   0.9739 B(  0-C ,  7-H ) :   0.9672 
B(  0-C ,  8-H ) :   0.9838 B(  1-C ,  2-C ) :   0.8889 B(  1-C ,  9-H ) :   0.9730 
B(  1-C , 10-H ) :   0.9721 B(  2-C ,  3-C ) :   0.8582 B(  2-C ,  5-O ) :   0.9042 
B(  2-C , 11-H ) :   0.9982 B(  3-C ,  4-C ) :   0.8871 B(  3-C , 12-H ) :   0.9643 
B(  3-C , 13-H ) :   0.9800 B(  4-C , 14-H ) :   0.9728 B(  4-C , 15-H ) :   0.9826 
B(  4-C , 16-H ) :   0.9802 B(  5-O , 17-H ) :   0.9028 

-------
TIMINGS
-------

Total SCF time: 0 days 0 hours 0 min 19 sec 

Total time                  ....      19.616 sec
Sum of individual times     ....      19.104 sec  ( 97.4%)

SCF preparation             ....       0.172 sec  (  0.9%)
Fock matrix formation       ....      17.963 sec  ( 91.6%)
  Startup                   ....       0.070 sec  (  0.4% of F)
  Split-RI-J                ....       2.941 sec  ( 16.4% of F)
  XC integration            ....      14.399 sec  ( 80.2% of F)
    Basis function eval.    ....       2.657 sec  ( 18.5% of XC)
    Density eval.           ....       4.076 sec  ( 28.3% of XC)
    XC-Functional eval.     ....       2.096 sec  ( 14.6% of XC)
    XC-Potential eval.      ....       4.569 sec  ( 31.7% of XC)
Diagonalization             ....       0.000 sec  (  0.0%)
Density matrix formation    ....       0.273 sec  (  1.4%)
Total Energy calculation    ....       0.036 sec  (  0.2%)
Population analysis         ....       0.094 sec  (  0.5%)
Orbital Transformation      ....       0.053 sec  (  0.3%)
Orbital Orthonormalization  ....       0.000 sec  (  0.0%)
DIIS solution               ....       0.458 sec  (  2.3%)
  MO trafo                  ....       0.000 sec  (  0.0 % of DIIS)
  Orb grad                  ....       0.000 sec  (  0.0 % of DIIS)
  Energy W gradient         ....       0.000 sec  (  0.0 % of DIIS)
  DIIS error                ....       0.010 sec  (  2.1 % of DIIS)
  DIIS work                 ....       0.402 sec  ( 87.8 % of DIIS)
  Form Q                    ....       0.000 sec  (  0.0 % of DIIS)
  Form QpQm                 ....       0.000 sec  (  0.0 % of DIIS)
  Exp/Cayley                ....       0.000 sec  (  0.0 % of DIIS)
  Orb update                ....       0.000 sec  (  0.0 % of DIIS)
  Wake-sleep                ....       0.021 sec  (  4.7 % of DIIS)
SOSCF solution              ....       0.055 sec  (  0.3%)
  MO trafo                  ....       0.044 sec  ( 80.3 % of SOSCF)
  Orb grad                  ....       0.001 sec  (  1.3 % of SOSCF)
  Rot update                ....       0.000 sec  (  0.0 % of SOSCF)
  Step                      ....       0.010 sec  ( 18.2 % of SOSCF)
Finished LeanSCF after  19.7 sec

Maximum memory used throughout the entire LEANSCF-calculation: 19.5 MB


-------------------------------------------------------------------------------
                          DFT DISPERSION CORRECTION                            
                                                                               
                                DFTD4 V3.4.0                                   
-------------------------------------------------------------------------------
The R2SCAN3C composite method is recognized
Using three-body term ABC
Active option DFTDOPT                   ...         5   

-------------------------   ----------------
Dispersion correction           -0.004301876
-------------------------   ----------------

------------------   -----------------
gCP correction             0.009640499
------------------   -----------------

-------------------------   --------------------
FINAL SINGLE POINT ENERGY      -272.898343835994
-------------------------   --------------------


------------------------------------------------------------------------------
                              ORCA PROPERTY CALCULATIONS
------------------------------------------------------------------------------

GBWName                                 ... sp_gas.gbw
Number of atoms                         ...     18
Number of basis functions               ...    179
Max core memory                         ...   1024 MB

Electric properties:
Dipole moment                           ... YES
Quadrupole moment                       ...  NO
Static polarizability (Dipole/Dipole)   ...  NO
Static polarizability (Dipole/Quad.)    ...  NO
Static polarizability (Quad./Quad.)     ...  NO
Static polarizability (Velocity)        ...  NO

Atomic electric properties:
Dipole moment                           ...  NO
Quadrupole moment                       ...  NO
Static polarizability                   ...  NO

Choice of electric origin               ... Center of mass
Position of electric origin             ...    -0.000003     0.000025     0.000013

General magnetic properties:
Magnetizability                         ...  NO

EPR properties:
g-Tensor (aka g-matrix)                 ...  NO
Zero-Field splitting spin-orbit         ...  NO
Zero-field splitting spin-spin          ...  NO
Hyperfine couplings                     ...  NO (   0 nuclei)
Quadrupole couplings                    ...  NO (   0 nuclei)
Contact density                         ...  NO (   0 nuclei)

NMR properties:
Chemical shifts                         ...  NO (   0 nuclei)
Spin-rotation constants                 ...  NO (   0 nuclei)
Spin-spin couplings                     ...  NO (   0 nuclei,    0 pairs)

Choice of magnetic origin               ... GIAO
Position of magnetic origin             ...     0.000000     0.000000     0.000000

Properties with geometric perturbations:
SCF Hessian                             ...  NO
IR spectrum                             ...  NO
VCD spectrum                            ...  NO
X-ray spectroscopy properties:
SCF XES/XAS/RIXS spectra                ...  NO


-------------
DIPOLE MOMENT
-------------

Method             : SCF
Type of density    : Electron Density
Multiplicity       :   1
Irrep              :   0
Energy             :  -272.9036824597888540 Eh
Relativity type    : 
Basis              : AO
                                X                 Y                 Z
Electronic contribution:      0.265431272      -4.282586227      -2.387012657
Nuclear contribution   :     -0.711079658       4.389750651       2.723214864
                        -----------------------------------------
Total Dipole Moment    :     -0.445648386       0.107164424       0.336202207
                        -----------------------------------------
Magnitude (a.u.)       :      0.568435240
Magnitude (Debye)      :      1.444847556



--------------------
Rotational spectrum 
--------------------
 
Rotational constants in cm-1:             0.128117             0.090595             0.059440 
Rotational constants in MHz :          3840.854392          2715.983065          1781.968964 

Dipole components along the rotational axes: 
x,y,z [a.u.] :    -0.452403     0.212144     0.271008 
x,y,z [Debye]:    -1.149916     0.539228     0.688848 

 

Dipole moment calculation done in   0.0 sec 

Maximum memory used throughout the entire PROP-calculation: 10.6 MB

--------------------------------
SUGGESTED CITATIONS FOR THIS RUN
--------------------------------

Below you find a list of papers that are relevant to this ORCA run
We neither can nor want to force you to cite these papers, but we appreciate if you do
You receive ORCA, which is the product of decades of hard work by many enthusiastic individuals, for free
The only thing we kindly ask in return is that you cite our papers,
We deeply appreciate it, if you show your appreciation for ORCA by not just citing the generic ORCA reference.

Please note that relegating all ORCA citations to the supporting information does *not* help us.
SI sections are not indexed - citations you put there will not count into any citation statistics
But we need these citations in order to attract the funding resources that allow us to do what we are doing

Therefore, if you are a happy ORCA user, please consider citing a few of the papers listed below in the main body of your paper

In addition to the list printed below, the program has created the file sp_gas.bibtex that contains the list in bibtex format
You can import this file easily into all common literature databanks and citation aid programs


List of essential papers. We consider these as the minimum necessary citations

  1. Neese,F.
     Software update: the ORCA program system, version 5.0
     WIRES Comput. Molec. Sci., 2022 12(1)e1606
     doi.org/10.1002/wcms.1606
  2. Grimme,S.; Hansen,A.; Ehlert,S.; Mewes,J.
     r2SCAN-3c: A 'Swiss army knife' composite electronic-structure method
     J. Chem. Phys., 2021 154 064103
     doi.org/10.1063/5.0040021

List of papers to cite with high priority. The work reported in these papers was absolutely
necessary for this run to complete.
Our perspective: the developers of density functionals and basis sets usually get cited in chemistry papers
Good! But without the algorithms to do something with them, the functionals or basis sets would not do anything.
Hence, in our opinion, the algorithm design and method developments papers are equally worthy of getting cited

  1. Neese,F.
     An improvement of the resolution of the identity approximation for the formation of the Coulomb matrix
     J. Comp. Chem., 2003 24(14)1740-1747
     doi.org/10.1002/jcc.10318
  2. Neese,F.
     The SHARK Integral Generation and Digestion System
     J. Comp. Chem., 2022  1-16
     doi.org/10.1002/jcc.26942
  3. Lehtola,S.; Steigemann,C.; Oliveira,M.; Marques,M.
     Recent developments in Libxc - A comprehensive library of functionals for density functional theory
     Software X, 2018 7 
     doi.org/10.1016/j.softx.2017.11.002
  4. Caldeweyher,E.; Bannwarth,C.; Grimme,S.
     Extension of the D3 dispersion coefficient model
     J. Chem. Phys., 2017 147 034112-XXXX
     doi.org/10.1063/1.4993215
  5. Caldeweyher,E.; Ehlert,S.; Hansen,A.; Neugebauer,H.; Spicher,S.; Bannwarth,C.; Grimme,S.
     A generally applicable atomic-charge dependent London dispersion correction
     J. Chem. Phys., 2019 150 154122-XXXX
     doi.org/10.1063/1.5090222
  6. Caldeweyher,E.; Mewes,J.; Ehlert,S.; Grimme,S.
     Extension and evaluation of the D4 London-dispersion model for periodic systems
     Phys. Chem. Chem. Phys., 2020 22(16)8499-8512
     doi.org/10.1039/D0CP00502A

List of suggested additional citations. These are papers that are important in the 'surrounding' of 
of this run, or papers that preceded the highly important papers. If you like your results we are grateful for a citation.

  1. Neese,F.
     The ORCA program system
     WIRES Comput. Molec. Sci., 2012 2(1)73-78
     doi.org/10.1002/wcms.81
  2. Neese,F.
     Software update: the ORCA program system, version 4.0
     WIRES Comput. Molec. Sci., 2018 8(1)1-6
     doi.org/10.1002/wcms.1327
  3. Neese,F.; Wennmohs,F.; Becker,U.; Riplinger,C.
     The ORCA quantum chemistry program package
     J. Chem. Phys., 2020 152 Art. No. L224108
     doi.org/10.1063/5.0004608

List of optional additional citations

  1. Neese,F.
     Approximate second-order SCF convergence for spin unrestricted wavefunctions
     Chem. Phys. Lett., 2000 325(1-3)93-98
     doi.org/10.1016/s0009-2614(00)00662-x

Timings for individual modules:

Sum of individual times          ...       21.138 sec (=   0.352 min)
Startup calculation              ...        1.073 sec (=   0.018 min)   5.1 %
SCF iterations                   ...       19.964 sec (=   0.333 min)  94.4 %
Property calculations            ...        0.100 sec (=   0.002 min)   0.5 %
                             ****ORCA TERMINATED NORMALLY****
TOTAL RUN TIME: 0 days 0 hours 0 minutes 21 seconds 905 msec
