      -----------------------------------------------------------      
     |                   =====================                   |     
     |                           x T B                           |     
     |                   =====================                   |     
     |                         S. Grimme                         |     
     |          Mulliken Center for Theoretical Chemistry        |     
     |                    University of Bonn                     |     
      -----------------------------------------------------------      

   * xtb version 6.7.1 (edcfbbe) compiled by 'albert@albert-system' on 2024-07-22

   xtb is free software: you can redistribute it and/or modify it under
   the terms of the GNU Lesser General Public License as published by
   the Free Software Foundation, either version 3 of the License, or
   (at your option) any later version.
   
   xtb is distributed in the hope that it will be useful,
   but WITHOUT ANY WARRANTY; without even the implied warranty of
   MERCHANTABILITY or FITNESS FOR A PARTICULAR PURPOSE.  See the
   GNU Lesser General Public License for more details.
   
   Cite this work as:
   * C. Bannwarth, E. Caldeweyher, S. Ehlert, A. Hansen, P. Pracht,
     J. Seibert, S. Spicher, S. Grimme, WIREs Comput. Mol. Sci., 2020, 11,
     e01493. DOI: 10.1002/wcms.1493
   
   for GFN2-xTB:
   * C. Bannwarth, S. Ehlert and S. Grimme., J. Chem. Theory Comput., 2019,
     15, 1652-1671. DOI: 10.1021/acs.jctc.8b01176
   for GFN1-xTB:
   * S. Grimme, C. Bannwarth, P. Shushkov, J. Chem. Theory Comput., 2017,
     13, 1989-2009. DOI: 10.1021/acs.jctc.7b00118
   for GFN0-xTB:
   * P. Pracht, E. Caldeweyher, S. Ehlert, S. Grimme, ChemRxiv, 2019, preprint.
     DOI: 10.26434/chemrxiv.8326202.v1
   for GFN-FF:
   * S. Spicher and S. Grimme, Angew. Chem. Int. Ed., 2020, 59, 15665-15673.
     DOI: 10.1002/anie.202004239
   
   for ALPB and GBSA implicit solvation:
   * S. Ehlert, M. Stahn, S. Spicher, S. Grimme, J. Chem. Theory Comput.,
     2021, 17, 4250-4261. DOI: 10.1021/acs.jctc.1c00471
   
   for ddCOSMO and CPCM-X implicit solvation:
   * M. Stahn, S. Ehlert, S. Grimme, J. Phys. Chem. A,
     2023, XX, XXXX-XXXX. DOI: 10.1021/acs.jpca.3c04382
   
   for DFT-D4:
   * E. Caldeweyher, C. Bannwarth and S. Grimme, J. Chem. Phys., 2017,
     147, 034112. DOI: 10.1063/1.4993215
   * E. Caldeweyher, S. Ehlert, A. Hansen, H. Neugebauer, S. Spicher,
     C. Bannwarth and S. Grimme, J. Chem. Phys., 2019, 150, 154122.
     DOI: 10.1063/1.5090222
   * E. Caldeweyher, J.-M. Mewes, S. Ehlert and S. Grimme, Phys. Chem. Chem. Phys.
     2020, 22, 8499-8512. DOI: 10.1039/D0CP00502A
   
   for sTDA-xTB:
   * S. Grimme and C. Bannwarth, J. Chem. Phys., 2016, 145, 054103.
     DOI: 10.1063/1.4959605
   
   in the mass-spec context:
   * V. Asgeirsson, C. Bauer and S. Grimme, Chem. Sci., 2017, 8, 4879.
     DOI: 10.1039/c7sc00601b
   * J. Koopman and S. Grimme, ACS Omega 2019, 4, 12, 15120-15133.
     DOI: 10.1021/acsomega.9b02011
   
   for metadynamics refer to:
   * S. Grimme, J. Chem. Theory Comput., 2019, 155, 2847-2862
     DOI: 10.1021/acs.jctc.9b00143
   
   for SPH calculations refer to:
   * S. Spicher and S. Grimme, J. Chem. Theory Comput., 2021, 17, 1701-1714
     DOI: 10.1021/acs.jctc.0c01306
   
   for ONIOM refer to:
   * C. Plett, A. Katbashev, S. Ehlert, S. Grimme, M. Bursch,
     Phys. Chem. Chem. Phys., 2023, 25, 17860-17868. DOI: 10.1039/D3CP02178E
   
   for DIPRO refer to:
   * J. Kohn, N. Gildemeister, S. Grimme, D. Fazzi, A. Hansen,
     J. Chem. Phys., 2023, just accepted.
   
   for PTB refer to:
   * S. Grimme, M. Mueller, A. Hansen, J. Chem. Phys., 2023, 158, 124111.
     DOI: 10.1063/5.0137838
   
   with help from (in alphabetical order)
   P. Atkinson, C. Bannwarth, F. Bohle, G. Brandenburg, E. Caldeweyher
   M. Checinski, S. Dohm, S. Ehlert, S. Ehrlich, I. Gerasimov, C. Hölzer
   A. Katbashev, J. Kohn, J. Koopman, C. Lavigne, S. Lehtola, F. März, M. Müller,
   F. Musil, H. Neugebauer, J. Pisarek, C. Plett, P. Pracht, F. Pultar,
   J. Seibert, P. Shushkov, S. Spicher, M. Stahn, M. Steiner, T. Strunk,
   J. Stückrath, T. Rose, and J. Unsleber
   
 * started run on 2025/04/11 at 11:23:47.481     
   ID    Z sym.   atoms
    1    6 C      1-10
    2    1 H      11-24

           -------------------------------------------------
          |                Calculation Setup                |
           -------------------------------------------------

          program call               : /srv/scratch/z5358697/.xtb/bin/xtb gas.coord --gfn2 --sp --chrg 0 --norestart --parallel 1
          hostname                   : k114
          coordinate file            : gas.coord
          omp threads                :                     1


           -------------------------------------------------
          |                 G F N 2 - x T B                 |
           -------------------------------------------------

        Reference                      10.1021/acs.jctc.8b01176
      * Hamiltonian:
        H0-scaling (s, p, d)           1.850000    2.230000    2.230000
        zeta-weighting                 0.500000
      * Dispersion:
        s8                             2.700000
        a1                             0.520000
        a2                             5.000000
        s9                             5.000000
      * Repulsion:
        kExp                           1.500000    1.000000
        rExp                           1.000000
      * Coulomb:
        alpha                          2.000000
        third order                    shell-resolved
        anisotropic                    true
        a3                             3.000000
        a5                             4.000000
        cn-shift                       1.200000
        cn-exp                         4.000000
        max-rad                        5.000000


          ...................................................
          :                      SETUP                      :
          :.................................................:
          :  # basis functions                  54          :
          :  # atomic orbitals                  54          :
          :  # shells                           34          :
          :  # electrons                        54          :
          :  max. iterations                   250          :
          :  Hamiltonian                  GFN2-xTB          :
          :  restarted?                      false          :
          :  GBSA solvation                  false          :
          :  PC potential                    false          :
          :  electronic temp.          300.0000000     K    :
          :  accuracy                    1.0000000          :
          :  -> integral cutoff          0.2500000E+02      :
          :  -> integral neglect         0.1000000E-07      :
          :  -> SCF convergence          0.1000000E-05 Eh   :
          :  -> wf. convergence          0.1000000E-03 e    :
          :  Broyden damping             0.4000000          :
          :  net charge                          0          :
          :  unpaired electrons                  0          :
          ...................................................

 iter      E             dE          RMSdq      gap      omega  full diag
   1    -29.0041492 -0.290041E+02  0.330E+00    4.71       0.0  T
   2    -29.0438556 -0.397064E-01  0.191E+00    4.73       1.0  T
   3    -29.0443984 -0.542833E-03  0.695E-01    4.65       1.0  T
   4    -29.0448475 -0.449102E-03  0.259E-01    4.70       1.0  T
   5    -29.0457423 -0.894773E-03  0.643E-02    4.70       1.0  T
   6    -29.0457683 -0.260574E-04  0.315E-02    4.70       1.0  T
   7    -29.0457710 -0.268952E-05  0.102E-02    4.70       2.0  T
   8    -29.0457713 -0.242377E-06  0.232E-03    4.70       8.8  T
   9    -29.0457714 -0.105457E-06  0.753E-04    4.70      27.1  T
  10    -29.0457714  0.225427E-09  0.321E-04    4.70      63.5  T

   *** convergence criteria satisfied after 10 iterations ***

         #    Occupation            Energy/Eh            Energy/eV
      -------------------------------------------------------------
         1        2.0000           -0.6389221             -17.3860
       ...           ...                  ...                  ...
        21        2.0000           -0.4370791             -11.8935
        22        2.0000           -0.4356725             -11.8553
        23        2.0000           -0.4229188             -11.5082
        24        2.0000           -0.4136232             -11.2553
        25        2.0000           -0.4115341             -11.1984
        26        2.0000           -0.3974497             -10.8152
        27        2.0000           -0.3889284             -10.5833 (HOMO)
        28                         -0.2162262              -5.8838 (LUMO)
        29                         -0.2161216              -5.8810
        30                         -0.0882012              -2.4001
        31                          0.0774684               2.1080
        32                          0.0834022               2.2695
       ...                                ...                  ...
        54                          0.6699309              18.2297
      -------------------------------------------------------------
                  HL-Gap            0.1727022 Eh            4.6995 eV
             Fermi-level           -0.3025773 Eh           -8.2335 eV

 SCC (total)                   0 d,  0 h,  0 min,  0.031 sec
 SCC setup                      ...        0 min,  0.000 sec (  0.783%)
 Dispersion                     ...        0 min,  0.000 sec (  0.568%)
 classical contributions        ...        0 min,  0.000 sec (  0.122%)
 integral evaluation            ...        0 min,  0.002 sec (  7.372%)
 iterations                     ...        0 min,  0.021 sec ( 67.247%)
 molecular gradient             ...        0 min,  0.007 sec ( 23.336%)
 printout                       ...        0 min,  0.000 sec (  0.526%)

         :::::::::::::::::::::::::::::::::::::::::::::::::::::
         ::                     SUMMARY                     ::
         :::::::::::::::::::::::::::::::::::::::::::::::::::::
         :: total energy             -28.540939887833 Eh    ::
         :: gradient norm              0.001747427353 Eh/a0 ::
         :: HOMO-LUMO gap              4.699466133960 eV    ::
         ::.................................................::
         :: SCC energy               -29.045650062844 Eh    ::
         :: -> isotropic ES            0.003461391813 Eh    ::
         :: -> anisotropic ES          0.006481889179 Eh    ::
         :: -> anisotropic XC          0.018966947565 Eh    ::
         :: -> dispersion             -0.019795221593 Eh    ::
         :: repulsion energy           0.504710175011 Eh    ::
         :: add. restraining           0.000000000000 Eh    ::
         :: total charge              -0.000000000000 e     ::
         :::::::::::::::::::::::::::::::::::::::::::::::::::::

           -------------------------------------------------
          |                Property Printout                |
           -------------------------------------------------

    * Orbital Energies and Occupations

         #    Occupation            Energy/Eh            Energy/eV
      -------------------------------------------------------------
         1        2.0000           -0.6389221             -17.3860
       ...           ...                  ...                  ...
        15        2.0000           -0.4801888             -13.0666
        16        2.0000           -0.4719490             -12.8424
        17        2.0000           -0.4685817             -12.7508
        18        2.0000           -0.4631196             -12.6021
        19        2.0000           -0.4599595             -12.5161
        20        2.0000           -0.4505362             -12.2597
        21        2.0000           -0.4370791             -11.8935
        22        2.0000           -0.4356725             -11.8553
        23        2.0000           -0.4229188             -11.5082
        24        2.0000           -0.4136232             -11.2553
        25        2.0000           -0.4115341             -11.1984
        26        2.0000           -0.3974497             -10.8152
        27        2.0000           -0.3889284             -10.5833 (HOMO)
        28                         -0.2162262              -5.8838 (LUMO)
        29                         -0.2161216              -5.8810
        30                         -0.0882012              -2.4001
        31                          0.0774684               2.1080
        32                          0.0834022               2.2695
        33                          0.1019284               2.7736
        34                          0.1284803               3.4961
        35                          0.1327309               3.6118
        36                          0.1439902               3.9182
        37                          0.1650636               4.4916
        38                          0.1768399               4.8121
       ...                                ...                  ...
        54                          0.6699309              18.2297
      -------------------------------------------------------------
                  HL-Gap            0.1727022 Eh            4.6995 eV
             Fermi-level           -0.3025773 Eh           -8.2335 eV

     #   Z          covCN         q      C6AA      α(0)
     1   6 C        3.754    -0.104    22.537     6.769
     2   6 C        3.846    -0.005    20.643     6.463
     3   6 C        3.756    -0.105    22.563     6.773
     4   6 C        3.807    -0.071    21.848     6.654
     5   6 C        2.967     0.018    27.597     8.617
     6   6 C        2.925    -0.037    28.914     8.818
     7   6 C        2.919    -0.032    28.788     8.799
     8   6 C        2.920    -0.034    28.845     8.807
     9   6 C        2.919    -0.031    28.783     8.798
    10   6 C        2.925    -0.038    28.938     8.822
    11   1 H        0.925     0.036     2.501     2.473
    12   1 H        0.925     0.034     2.531     2.488
    13   1 H        0.925     0.033     2.542     2.493
    14   1 H        0.924     0.026     2.642     2.542
    15   1 H        0.925     0.032     2.561     2.503
    16   1 H        0.925     0.034     2.534     2.489
    17   1 H        0.925     0.036     2.501     2.473
    18   1 H        0.924     0.041     2.430     2.438
    19   1 H        0.924     0.033     2.540     2.492
    20   1 H        0.926     0.027     2.626     2.534
    21   1 H        0.926     0.026     2.641     2.541
    22   1 H        0.926     0.026     2.644     2.543
    23   1 H        0.926     0.026     2.640     2.541
    24   1 H        0.926     0.027     2.635     2.538

 Mol. C6AA /au·bohr⁶  :       5353.994051
 Mol. C8AA /au·bohr⁸  :     123126.719694
 Mol. α(0) /au        :        114.408073


Wiberg/Mayer (AO) data.
largest (>0.10) Wiberg bond orders for each atom

 ---------------------------------------------------------------------------
     #   Z sym  total        # sym  WBO       # sym  WBO       # sym  WBO
 ---------------------------------------------------------------------------
     1   6 C    3.997 --     2 C    1.012    13 H    0.986    11 H    0.985
                            12 H    0.985
     2   6 C    3.995 --     1 C    1.012     3 C    1.011    14 H    0.973
                             4 C    0.968
     3   6 C    3.996 --     2 C    1.011    15 H    0.987    17 H    0.987
                            16 H    0.986
     4   6 C    3.996 --     5 C    1.016    19 H    0.977    18 H    0.972
                             2 C    0.968
     5   6 C    3.989 --     6 C    1.411    10 C    1.410     4 C    1.016
                             8 C    0.110
     6   6 C    3.992 --     7 C    1.446     5 C    1.411    20 H    0.970
                             9 C    0.110
     7   6 C    3.993 --     6 C    1.446     8 C    1.438    21 H    0.971
                            10 C    0.110
     8   6 C    3.992 --     7 C    1.438     9 C    1.438    22 H    0.972
                             5 C    0.110
     9   6 C    3.993 --    10 C    1.446     8 C    1.438    23 H    0.971
                             6 C    0.110
    10   6 C    3.992 --     9 C    1.446     5 C    1.410    24 H    0.970
                             7 C    0.110
    11   1 H    0.999 --     1 C    0.985
    12   1 H    0.999 --     1 C    0.985
    13   1 H    0.999 --     1 C    0.986
    14   1 H    0.999 --     2 C    0.973
    15   1 H    0.999 --     3 C    0.987
    16   1 H    0.998 --     3 C    0.986
    17   1 H    0.999 --     3 C    0.987
    18   1 H    0.998 --     4 C    0.972
    19   1 H    0.999 --     4 C    0.977
    20   1 H    0.999 --     6 C    0.970
    21   1 H    0.999 --     7 C    0.971
    22   1 H    0.999 --     8 C    0.972
    23   1 H    0.999 --     9 C    0.971
    24   1 H    0.999 --    10 C    0.970
 ---------------------------------------------------------------------------

Topologies differ in total number of bonds
Writing topology from bond orders to xtbtopo.mol

molecular dipole:
                 x           y           z       tot (Debye)
 q only:        0.201      -0.006       0.038
   full:        0.191      -0.009       0.033       0.494
molecular quadrupole (traceless):
                xx          xy          yy          xz          yz          zz
 q only:        0.237      -0.128       0.199       0.625       0.358      -0.436
  q+dip:        0.954      -1.197       2.085       2.072       2.635      -3.038
   full:        0.412      -0.527       0.966       1.024       1.206      -1.378


           -------------------------------------------------
          | TOTAL ENERGY              -28.540939887833 Eh   |
          | GRADIENT NORM               0.001747427353 Eh/α |
          | HOMO-LUMO GAP               4.699466133960 eV   |
           -------------------------------------------------

------------------------------------------------------------------------
 * finished run on 2025/04/11 at 11:23:47.543     
------------------------------------------------------------------------
 total:
 * wall-time:     0 d,  0 h,  0 min,  0.061 sec
 *  cpu-time:     0 d,  0 h,  0 min,  0.028 sec
 * ratio c/w:     0.460 speedup
 SCF:
 * wall-time:     0 d,  0 h,  0 min,  0.031 sec
 *  cpu-time:     0 d,  0 h,  0 min,  0.020 sec
 * ratio c/w:     0.628 speedup

