
                                 *****************
                                 * O   R   C   A *
                                 *****************

                                            #,                                       
                                            ###                                      
                                            ####                                     
                                            #####                                    
                                            ######                                   
                                           ########,                                 
                                     ,,################,,,,,                         
                               ,,#################################,,                 
                          ,,##########################################,,             
                       ,#########################################, ''#####,          
                    ,#############################################,,   '####,        
                  ,##################################################,,,,####,       
                ,###########''''           ''''###############################       
              ,#####''   ,,,,##########,,,,          '''####'''          '####       
            ,##' ,,,,###########################,,,                        '##       
           ' ,,###''''                  '''############,,,                           
         ,,##''                                '''############,,,,        ,,,,,,###''
      ,#''                                            '''#######################'''  
     '                                                          ''''####''''         
             ,#######,   #######,   ,#######,      ##                                
            ,#'     '#,  ##    ##  ,#'     '#,    #''#        ,####,   ,####,        
            ##       ##  ##   ,#'  ##            #'  '#       #'       #'  '#        
            ##       ##  #######   ##           ,######,      #####,   #    #        
            '#,     ,#'  ##    ##  '#,     ,#' ,#      #,     #,   #   #,  ,#        
             '#######'   ##     ##  '#######'  #'      '#     '####' # '####'        



                #########################################################
                #                        -***-                          #
                #          Department of theory and spectroscopy        #
                #                                                       #
                #                      Frank Neese                      #
                #                                                       #
                #     Directorship, Architecture, Infrastructure        #
                #                    SHARK, DRIVERS                     #
                #        Core code/Algorithms in most modules           #
                #                                                       #
                #        Max Planck Institute fuer Kohlenforschung      #
                #                Kaiser Wilhelm Platz 1                 #
                #                 D-45470 Muelheim/Ruhr                 #
                #                      Germany                          #
                #                                                       #
                #                  All rights reserved                  #
                #                        -***-                          #
                #########################################################


                         Program Version 6.0.0  -   RELEASE  -


 With contributions from (in alphabetic order):
   Daniel Aravena         : Magnetic Suceptibility
   Michael Atanasov       : Ab Initio Ligand Field Theory (pilot matlab implementation)
   Alexander A. Auer      : GIAO ZORA, VPT2 properties, NMR spectrum
   Ute Becker             : All parallelization in ORCA, NUMFREQ, NUMCALC
   Giovanni Bistoni       : ED, misc. LED, open-shell LED, HFLD
   Martin Brehm           : Molecular dynamics
   Dmytro Bykov           : pre 5.0 version of the SCF Hessian
   Marcos Casanova-Páez   : Triplet and SCS-CIS(D). UHF-(DLPNO)-IP/EA/STEOM-CCSD. UHF-CVS-IP/STEOM-CCSD
   Vijay G. Chilkuri      : MRCI spin determinant printing, contributions to CSF-ICE
   Pauline Colinet        : FMM embedding
   Dipayan Datta          : RHF DLPNO-CCSD density
   Achintya Kumar Dutta   : EOM-CC, STEOM-CC
   Nicolas Foglia         : Exact transition moments, OPA infrastructure, MCD improvements
   Dmitry Ganyushin       : Spin-Orbit,Spin-Spin,Magnetic field MRCI
   Miquel Garcia          : C-PCM and meta-GGA Hessian, CCSD/C-PCM, Gaussian charge scheme
   Tiago L. C. Gouveia    : GS-ROHF, GS-ROCIS
   Yang Guo               : DLPNO-NEVPT2, F12-NEVPT2, CIM, IAO-localization
   Andreas Hansen         : Spin unrestricted coupled pair/coupled cluster methods
   Ingolf Harden          : AUTO-CI MPn and infrastructure 
   Benjamin Helmich-Paris : MC-RPA, TRAH-(SCF,CASSCF), AVAS, COSX integrals, SCF dyn. polar.
   Lee Huntington         : MR-EOM, pCC
   Robert Izsak           : Overlap fitted RIJCOSX, COSX-SCS-MP3, EOM
   Riya Kayal             : Wick's Theorem for AUTO-CI, AUTO-CI UHF-CCSDT
   Emily Kempfer          : AUTO-CI, RHF CISDT and CCSDT
   Christian Kollmar      : KDIIS, OOCD, Brueckner-CCSD(T), CCSD density, CASPT2, CASPT2-K, improved NEVPT2
   Axel Koslowski         : Symmetry handling
   Simone Kossmann        : Meta GGA functionals, TD-DFT gradient, OOMP2, (MP2 Hessian; deprecated post 5.0)
   Lucas Lang             : DCDCAS
   Marvin Lechner         : AUTO-CI (C++ implementation), FIC-MRCC
   Spencer Leger          : CASSCF response
   Dagmar Lenk            : GEPOL surface, SMD, ORCA-2-JSON
   Dimitrios Liakos       : Extrapolation schemes; Compound Job, initial MDCI parallelization
   Dimitrios Manganas     : Further ROCIS development; embedding schemes. LFT, Crystal Embedding
   Dimitrios Pantazis     : SARC Basis sets
   Anastasios Papadopoulos: AUTO-CI, single reference methods and gradients
   Taras Petrenko         : pre 6.0 DFT Hessian and TD-DFT gradient, (ASA, deprecated), ECA, 1-Electron XAS/XES, NRVS
   Peter Pinski           : DLPNO-MP2, DLPNO-MP2 Gradient
   Christoph Reimann      : Effective Core Potentials
   Marius Retegan         : Local ZFS, SOC
   Christoph Riplinger    : Optimizer, TS searches, QM/MM, DLPNO-CCSD(T), (RO)-DLPNO pert. Triples
   Michael Roemelt        : Original ROCIS implementation
   Masaaki Saitow         : Open-shell DLPNO-CCSD energy and density
   Barbara Sandhoefer     : DKH picture change effects
   Kantharuban Sivalingam : CASSCF convergence/infrastructure, NEVPT2 and variants, FIC-MRCI
   Bernardo de Souza      : ESD, SOC TD-DFT
   Georgi Stoychev        : AutoAux, RI-MP2 NMR, DLPNO-MP2 response, X2C
   Van Anh Tran           : RI-MP2 g-tensors
   Willem Van den Heuvel  : Paramagnetic NMR
   Zikuan Wang            : NOTCH, Electric field optimization 
   Frank Wennmohs         : Technical directorship and infrastructure
   Hang Xu                : AUTO-CI-Response properties 


 We gratefully acknowledge several colleagues who have allowed us to
 interface, adapt or use parts of their codes:
   Stefan Grimme, W. Hujo, H. Kruse, P. Pracht,  : VdW corrections, initial TS optimization,
                  C. Bannwarth, S. Ehlert,         DFT functionals, gCP, sTDA/sTD-DF
                  L. Wittmann, M. Mueller
   Ed Valeev, F. Pavosevic, A. Kumar             : LibInt (2-el integral package), F12 methods
   Garnet Chan, S. Sharma, J. Yang, R. Olivares  : DMRG
   Ulf Ekstrom                                   : XCFun DFT Library
   Mihaly Kallay                                 : mrcc  (arbitrary order and MRCC methods)
   Frank Weinhold                                : gennbo (NPA and NBO analysis)
   Simon Mueller                                 : openCOSMO-RS
   Christopher J. Cramer and Donald G. Truhlar   : smd solvation model
   Lars Goerigk                                  : TD-DFT with DH, B97 family of functionals
   V. Asgeirsson, H. Jonsson                     : NEB implementation
   FAccTs GmbH                                   : IRC, NEB, NEB-TS, DLPNO-Multilevel, CI-OPT
                                                   MM, QMMM, 2- and 3-layer-ONIOM, Crystal-QMMM,
                                                   LR-CPCM, SF, NACMEs, symmetry and pop. for TD-DFT,
                                                   nearIR, NL-DFT gradient (VV10), updates on ESD,
                                                   ML-optimized integration grids, MBIS, APM,
                                                   GOAT, DOCKER, SOLVATOR, interface openCOSMO-RS
   S Lehtola, MJT Oliveira, MAL Marques          : LibXC Library
   Liviu Ungur et al                             : ANISO software


 Your calculation uses the libint2 library for the computation of 2-el integrals
 For citations please refer to: http://libint.valeyev.net

 Your ORCA version has been built with support for libXC version: 6.2.2
 For citations please refer to: https://libxc.gitlab.io

 This ORCA versions uses:
   CBLAS   interface :  Fast vector & matrix operations
   LAPACKE interface :  Fast linear algebra routines
   SCALAPACK package :  Parallel linear algebra routines
   Shared memory     :  Shared parallel matrices
   BLAS/LAPACK       :  OpenBLAS 0.3.27  USE64BITINT DYNAMIC_ARCH NO_AFFINITY SkylakeX SINGLE_THREADED
        Core in use  :  SkylakeX
   Copyright (c) 2011-2014, The OpenBLAS Project


Your calculation utilizes the geometrical counterpoise correction gCP
Please cite in your paper:
H.Kruse, S. Grimme J.Chem.Phys., 136, (2012), 154101 
   

Your calculation utilizes the atom-pairwise dispersion correction
based on EEQ partial charges (D4)


================================================================================

----- Orbital basis set information -----
Your calculation utilizes the basis: def2-mTZVPP
   Stefan Grimme, Andreas Hansen, Sebastian Ehlert, and Jan-Michael Mewes 
   J. Chem. Phys. 154, 064103 (2021). DOI: 10.1063/5.0040021

----- AuxJ basis set information -----
Your calculation utilizes the auxiliary basis: def2/J
   F. Weigend, Phys. Chem. Chem. Phys. 8, 1057 (2006).

================================================================================
                                        WARNINGS
                       Please study these warnings very carefully!
================================================================================

Using LibXC functional ID 497 : Re-regularized SCAN exchange by Furness et al
[ 1]  J. W. Furness, A. D. Kaplan, J. Ning, J. P. Perdew, and J. Sun.,  J. Phys. Chem. Lett. 11, 8208-8215 (2020)
[ 2]  J. W. Furness, A. D. Kaplan, J. Ning, J. P. Perdew, and J. Sun.,  J. Phys. Chem. Lett. 11, 9248-9248 (2020)
Using LibXC functional ID 498 : Re-regularized SCAN correlation by Furness et al
[ 1]  J. W. Furness, A. D. Kaplan, J. Ning, J. P. Perdew, and J. Sun.,  J. Phys. Chem. Lett. 11, 8208-8215 (2020)
[ 2]  J. W. Furness, A. D. Kaplan, J. Ning, J. P. Perdew, and J. Sun.,  J. Phys. Chem. Lett. 11, 9248-9248 (2020)
Using LibXC functional ID 497 : Re-regularized SCAN exchange by Furness et al
[ 1]  J. W. Furness, A. D. Kaplan, J. Ning, J. P. Perdew, and J. Sun.,  J. Phys. Chem. Lett. 11, 8208-8215 (2020)
[ 2]  J. W. Furness, A. D. Kaplan, J. Ning, J. P. Perdew, and J. Sun.,  J. Phys. Chem. Lett. 11, 9248-9248 (2020)
Using LibXC functional ID 498 : Re-regularized SCAN correlation by Furness et al
[ 1]  J. W. Furness, A. D. Kaplan, J. Ning, J. P. Perdew, and J. Sun.,  J. Phys. Chem. Lett. 11, 8208-8215 (2020)
[ 2]  J. W. Furness, A. D. Kaplan, J. Ning, J. P. Perdew, and J. Sun.,  J. Phys. Chem. Lett. 11, 9248-9248 (2020)

================================================================================
                                       INPUT FILE
================================================================================
NAME = sp_gas.inp
|  1> ! r2scan-3c def2/J RI DEFGRID2 scfconv6 printgap
|  2> %output
|  3>     printlevel normal
|  4> end
|  5> * xyz 0 1
|  6> C -1.3533293058 -0.3945332918 -0.4061279633
|  7> C 0.0056238088 -0.0730791181 0.2291436074
|  8> C 1.153674122 -0.7414675214 -0.5342378317
|  9> O 2.3883668661 -0.5646615972 0.1145530752
| 10> O 0.2381854887 1.3228253768 0.2217402393
| 11> O -2.3977582417 0.278822703 0.2592290396
| 12> H -1.5152776585 -1.4767224233 -0.4182178333
| 13> H -1.3663692338 -0.0227056768 -1.4333680395
| 14> H 0.0215457473 -0.4322082426 1.2718995272
| 15> H 1.1912985702 -0.3269196682 -1.5500072323
| 16> H 0.9894413017 -1.8187039917 -0.5903888398
| 17> H 2.5202642056 0.3854739672 0.2501045275
| 18> H -0.6094471285 1.7696175285 0.3696048874
| 19> H -2.5510869997 -0.1307566233 1.1224371277
| 20> *
| 21> 
| 22>                          ****END OF INPUT****
================================================================================

                       ****************************
                       * Single Point Calculation *
                       ****************************

---------------------------------
CARTESIAN COORDINATES (ANGSTROEM)
---------------------------------
  C     -1.353329   -0.394533   -0.406128
  C      0.005624   -0.073079    0.229144
  C      1.153674   -0.741468   -0.534238
  O      2.388367   -0.564662    0.114553
  O      0.238185    1.322825    0.221740
  O     -2.397758    0.278823    0.259229
  H     -1.515278   -1.476722   -0.418218
  H     -1.366369   -0.022706   -1.433368
  H      0.021546   -0.432208    1.271900
  H      1.191299   -0.326920   -1.550007
  H      0.989441   -1.818704   -0.590389
  H      2.520264    0.385474    0.250105
  H     -0.609447    1.769618    0.369605
  H     -2.551087   -0.130757    1.122437

----------------------------
CARTESIAN COORDINATES (A.U.)
----------------------------
  NO LB      ZA    FRAG     MASS         X           Y           Z
   0 C     6.0000    0    12.011   -2.557422   -0.745560   -0.767471
   1 C     6.0000    0    12.011    0.010627   -0.138100    0.433019
   2 C     6.0000    0    12.011    2.180128   -1.401171   -1.009563
   3 O     8.0000    0    15.999    4.513359   -1.067056    0.216474
   4 O     8.0000    0    15.999    0.450105    2.499778    0.419028
   5 O     8.0000    0    15.999   -4.531106    0.526899    0.489872
   6 H     1.0000    0     1.008   -2.863460   -2.790601   -0.790317
   7 H     1.0000    0     1.008   -2.582064   -0.042908   -2.708673
   8 H     1.0000    0     1.008    0.040716   -0.816755    2.403542
   9 H     1.0000    0     1.008    2.251228   -0.617789   -2.929089
  10 H     1.0000    0     1.008    1.869773   -3.436852   -1.115673
  11 H     1.0000    0     1.008    4.762609    0.728440    0.472629
  12 H     1.0000    0     1.008   -1.151688    3.344092    0.698452
  13 H     1.0000    0     1.008   -4.820856   -0.247094    2.121099

--------------------------------
INTERNAL COORDINATES (ANGSTROEM)
--------------------------------
 C      0   0   0     0.000000000000     0.00000000     0.00000000
 C      1   0   0     1.534163068911     0.00000000     0.00000000
 C      2   1   0     1.532159848341   111.46972364     0.00000000
 O      3   2   1     1.405936039812   111.91661205   185.93645368
 O      2   1   3     1.415163984738   110.49222514   119.75976426
 O      1   2   3     1.409588606362   111.14792811   183.04094222
 H      1   2   3     1.094306515669   110.05216534    58.90260103
 H      1   2   3     1.092541985074   109.18355990   299.38845896
 H      2   1   3     1.102981026341   109.63564089   239.77904197
 H      3   2   1     1.097749059162   108.78229267    63.61661443
 H      3   2   1     1.091129583468   110.09286029   303.88303449
 H      4   3   2     0.968776906788   107.90686658   305.31456557
 H      5   2   1     0.969519589652   108.06487729    35.69107300
 H      6   1   2     0.967674085591   109.65023241   287.33179922

---------------------------
INTERNAL COORDINATES (A.U.)
---------------------------
 C      0   0   0     0.000000000000     0.00000000     0.00000000
 C      1   0   0     2.899148045018     0.00000000     0.00000000
 C      2   1   0     2.895362506754   111.46972364     0.00000000
 O      3   2   1     2.656834077054   111.91661205   185.93645368
 O      2   1   3     2.674272365743   110.49222514   119.75976426
 O      1   2   3     2.663736427520   111.14792811   183.04094222
 H      1   2   3     2.067939621180   110.05216534    58.90260103
 H      1   2   3     2.064605141601   109.18355990   299.38845896
 H      2   1   3     2.084332070695   109.63564089   239.77904197
 H      3   2   1     2.074445085585   108.78229267    63.61661443
 H      3   2   1     2.061936089374   110.09286029   303.88303449
 H      4   3   2     1.830723038696   107.90686658   305.31456557
 H      5   2   1     1.832126505915   108.06487729    35.69107300
 H      6   1   2     1.828639008659   109.65023241   287.33179922

---------------------
BASIS SET INFORMATION
---------------------
There are 3 groups of distinct atoms

 Group   1 Type C   : 11s6p1d contracted to 5s3p1d pattern {62111/411/1}
 Group   2 Type O   : 11s6p2d contracted to 5s3p2d pattern {62111/411/11}
 Group   3 Type H   : 4s1p contracted to 2s1p pattern {31/1}

Atom   0C    basis set group =>   1
Atom   1C    basis set group =>   1
Atom   2C    basis set group =>   1
Atom   3O    basis set group =>   2
Atom   4O    basis set group =>   2
Atom   5O    basis set group =>   2
Atom   6H    basis set group =>   3
Atom   7H    basis set group =>   3
Atom   8H    basis set group =>   3
Atom   9H    basis set group =>   3
Atom  10H    basis set group =>   3
Atom  11H    basis set group =>   3
Atom  12H    basis set group =>   3
Atom  13H    basis set group =>   3
---------------------------------
AUXILIARY/J BASIS SET INFORMATION
---------------------------------
There are 3 groups of distinct atoms

 Group   1 Type C   : 12s5p4d2f1g contracted to 6s4p3d1f1g pattern {711111/2111/211/2/1}
 Group   2 Type O   : 12s5p4d2f1g contracted to 6s4p3d1f1g pattern {711111/2111/211/2/1}
 Group   3 Type H   : 5s2p1d contracted to 3s1p1d pattern {311/2/1}

Atom   0C    basis set group =>   1
Atom   1C    basis set group =>   1
Atom   2C    basis set group =>   1
Atom   3O    basis set group =>   2
Atom   4O    basis set group =>   2
Atom   5O    basis set group =>   2
Atom   6H    basis set group =>   3
Atom   7H    basis set group =>   3
Atom   8H    basis set group =>   3
Atom   9H    basis set group =>   3
Atom  10H    basis set group =>   3
Atom  11H    basis set group =>   3
Atom  12H    basis set group =>   3
Atom  13H    basis set group =>   3

Checking for AutoStart:
The File: sp_gas.gbw exists
Trying to determine its content:
     ... Fine, the file contains calculation information
     ... Fine, the calculation information was read
     ... Fine, the file contains a basis set
     ... Fine, the basis set was read
     ... Fine, the file contains a geometry
     ... Fine, the geometry was read
     ... Fine, the file contains a set of orbitals
     ... Fine, the orbitals can be read
     => possible old guess file was deleted
     => GBW file was renamed to GES file
     => GES file is set as startup file
     => Guess is set to MORead
     ... now leaving AutoStart

------------------------------------------------------------------------------
                             ORCA STARTUP CALCULATIONS
                           -- RI-GTO INTEGRALS CHOSEN --
------------------------------------------------------------------------------
------------------------------------------------------------------------------
                   ___                                                        
                  /   \      - P O W E R E D   B Y -                         
                 /     \                                                     
                 |  |  |   _    _      __       _____    __    __             
                 |  |  |  | |  | |    /  \     |  _  \  |  |  /  |          
                  \  \/   | |  | |   /    \    | | | |  |  | /  /          
                 / \  \   | |__| |  /  /\  \   | |_| |  |  |/  /          
                |  |  |   |  __  | /  /__\  \  |    /   |      \           
                |  |  |   | |  | | |   __   |  |    \   |  |\   \          
                \     /   | |  | | |  |  |  |  | |\  \  |  | \   \       
                 \___/    |_|  |_| |__|  |__|  |_| \__\ |__|  \__/        
                                                                              
                      - O R C A' S   B I G   F R I E N D -                    
                                      &                                       
                       - I N T E G R A L  F E E D E R -                       
                                                                              
 v1 FN, 2020, v2 2021, v3 2022-2024                                           
------------------------------------------------------------------------------


----------------------
SHARK INTEGRAL PACKAGE
----------------------

Number of atoms                             ...     14
Number of basis functions                   ...    169
Number of shells                            ...     81
Maximum angular momentum                    ...      2
Integral batch strategy                     ... SHARK/LIBINT Hybrid
RI-J (if used) integral strategy            ... SPLIT-RIJ (Revised 2003 algorithm where possible)
Printlevel                                  ...      1
Contraction scheme used                     ... SEGMENTED contraction
Prescreening option                         ... SCHWARTZ
   Thresh                                   ... 1.000e-10
   Tcut                                     ... 1.000e-11
   Tpresel                                  ... 1.000e-11 
Coulomb Range Separation                    ... NOT USED
Exchange Range Separation                   ... NOT USED
Multipole approximations                    ... NOT USED
Finite Nucleus Model                        ... NOT USED
CABS basis                                  ... NOT available
Auxiliary Coulomb fitting basis             ... AVAILABLE
   # of basis functions in Aux-J            ...    382
   # of shells in Aux-J                     ...    130
   Maximum angular momentum in Aux-J        ...      4
Auxiliary J/K fitting basis                 ... NOT available
Auxiliary Correlation fitting basis         ... NOT available
Auxiliary 'external' fitting basis          ... NOT available

Checking pre-screening integrals            ... done (  0.0 sec) Dimension = 81
Check shell pair data                       ... done (  0.0 sec)
Shell pair information
Shell pair cut-off parameter TPreSel        ...   1.0e-11
Total number of shell pairs                 ...      3321
Shell pairs after pre-screening             ...      3090
Total number of primitive shell pairs       ...     11632
Primitive shell pairs kept                  ...      8066
          la=0 lb=0:    982 shell pairs
          la=1 lb=0:   1117 shell pairs
          la=1 lb=1:    333 shell pairs
          la=2 lb=0:    390 shell pairs
          la=2 lb=1:    224 shell pairs
          la=2 lb=2:     44 shell pairs

Calculating one electron integrals          ... done (  0.0 sec)
Calculating RI/J V-Matrix + Cholesky decomp.... done (  0.1 sec)
Calculating Nuclear repulsion               ... done (  0.0 sec) ENN=    260.974012965687 Eh

Diagonalization of the overlap matrix:
Smallest eigenvalue                        ... 2.366e-04
Time for diagonalization                   ...    0.003 sec
Threshold for overlap eigenvalues          ... 1.000e-07
Number of eigenvalues below threshold      ... 0
Time for construction of square roots      ...    0.013 sec
Total time needed                          ...    0.024 sec

-------------------
DFT GRID GENERATION
-------------------

General Integration Accuracy     IntAcc      ... 4.388
Radial Grid Type                 RadialGrid  ... OptM3 with GC (2021)
Angular Grid (max. ang.)         AngularGrid ... 4 (Lebedev-302)
Angular grid pruning method      GridPruning ... 4 (adaptive)
Weight generation scheme         WeightScheme... mBecke (2022)
Basis function cutoff            BFCut       ... 1.0000e-10
Integration weight cutoff        WCut        ... 1.0000e-14
Partially contracted basis set               ... off
Rotationally invariant grid construction     ... off
Angular grids for H and He will be reduced by one unit
Diffuse basis detected: some atoms will have their outermost
                        angular grid increased by 1.

Total number of grid points                  ...    62994
Total number of batches                      ...      992
Average number of points per batch           ...       63
Average number of grid points per atom       ...     4500
Initializing property integral containers    ... done (  0.0 sec)

SHARK setup successfully completed in   0.9 seconds

Maximum memory used throughout the entire STARTUP-calculation: 27.7 MB
-------------------------------------------------------------------------------
                                 ORCA GUESS
                   Start orbitals & Density for SCF / CASSCF
-------------------------------------------------------------------------------

------------
SCF SETTINGS
------------
Hamiltonian:
 Density Functional     Method          .... DFT(GTOs)
  Functional kind                       .... Exchange
  Functional name                       .... Re-regularized SCAN exchange by Furness et al
  Functional family                     .... MGGA
  Functional refs                              
    [ 0] J. W. Furness, A. D. Kaplan, J. Ning, J. P. Perdew, and J. Sun.,  J. Phys. Chem. Lett. 11, 8208-8215 (2020), doi: 10.1021/acs.jpclett.0c02405
    [ 1] J. W. Furness, A. D. Kaplan, J. Ning, J. P. Perdew, and J. Sun.,  J. Phys. Chem. Lett. 11, 9248-9248 (2020), doi: 10.1021/acs.jpclett.0c03077
  Functional external parameters        .... 6
    Parameter  0 _c1        =  6.670000e-01 : c1 parameter        
    Parameter  1 _c2        =  8.000000e-01 : c2 parameter        
    Parameter  2 _d         =  1.240000e+00 : d parameter         
    Parameter  3 _k1        =  6.500000e-02 : k1 parameter        
    Parameter  4 _eta       =  1.000000e-03 : eta parameter       
    Parameter  5 _dp2       =  3.610000e-01 : dp2 parameter       
  Functional kind                       .... Correlation
  Functional name                       .... Re-regularized SCAN correlation by Furness et al
  Functional family                     .... MGGA
  Functional refs                              
    [ 0] J. W. Furness, A. D. Kaplan, J. Ning, J. P. Perdew, and J. Sun.,  J. Phys. Chem. Lett. 11, 8208-8215 (2020), doi: 10.1021/acs.jpclett.0c02405
    [ 1] J. W. Furness, A. D. Kaplan, J. Ning, J. P. Perdew, and J. Sun.,  J. Phys. Chem. Lett. 11, 9248-9248 (2020), doi: 10.1021/acs.jpclett.0c03077
  Functional external parameters        .... 1
    Parameter  0 _eta       =  1.000000e-03 : Regularization parameter
 Gradients option       PostSCFGGA      .... off
 RI-approximation to the Coulomb term is turned on
   Number of AuxJ basis functions       .... 382


General Settings:
 Integral files         IntName         .... sp_gas
 Hartree-Fock type      HFTyp           .... RHF
 Total Charge           Charge          ....    0
 Multiplicity           Mult            ....    1
 Number of Electrons    NEL             ....   50
 Basis Dimension        Dim             ....  169
 Nuclear Repulsion      ENuc            ....    260.9740129657 Eh

Convergence Acceleration:
 AO-DIIS                CNVDIIS         .... on
   Start iteration      DIISMaxIt       ....    12
   Startup error        DIISStart       ....  0.200000
   # of expansion vecs  DIISMaxEq       ....     5
   Bias factor          DIISBfac        ....   1.050
   Max. coefficient     DIISMaxC        ....  10.000
 MO-DIIS                CNVKDIIS        .... off
 Trust-Rad. Augm. Hess. CNVTRAH         .... auto
   Auto Start mean grad. ratio tolernc. ....  1.125000
   Auto Start start iteration           ....     1
   Auto Start num. interpolation iter.  ....    10
   Max. Number of Micro iterations      ....    24
   Max. Number of Macro iterations      .... Maxiter - #DIIS iter
   Number of Davidson start vectors     ....     2
   Converg. threshold    (grad. norm)   ....   3.330e-04
   Grad. Scal. Fac. for Micro threshold ....   0.100
   Minimum threshold for Micro iter.    ....   1.000e-02
   NR start threshold (gradient norm)   ....   1.000e-04
   Initial trust radius                 ....   0.400
   Minimum AH scaling param. (alpha)    ....   1.000
   Maximum AH scaling param. (alpha)    .... 1000.000
   Quad. conv. algorithm                .... NR
   White noise on init. David. guess    .... on
   Maximum white noise                  ....   0.010
   Pseudo random numbers                .... off
   Inactive MOs                         .... canonical
   Orbital update algorithm             .... Taylor
   Preconditioner                       .... Diag
   Full preconditioner red. dimension   ....   250
   COSX micro iterations for RIJONX calc.... off
 SOSCF                  CNVSOSCF        .... on
   Start iteration      SOSCFMaxIt      ....   150
   Startup grad/error   SOSCFStart      ....  0.003300
   Hessian update       SOSCFHessUp     .... L-BFGS
 Level Shifting         CNVShift        .... on
   Level shift para.    LevelShift      ....    0.2500
   Turn off err/grad.   ShiftErr        ....    0.0010
 Zerner damping         CNVZerner       .... off
 Static damping         CNVDamp         .... on
   Fraction old density DampFac         ....    0.7000
   Max. Damping (<1)    DampMax         ....    0.9800
   Min. Damping (>=0)   DampMin         ....    0.0000
   Turn off err/grad.   DampErr         ....    0.1000

SCF Procedure:
 Maximum # iterations   MaxIter         ....   125
 SCF integral mode      SCFMode         .... Direct
   Integral package                     .... SHARK and LIBINT hybrid scheme
 Reset frequency        DirectResetFreq ....    20
 Integral Threshold     Thresh          ....  1.000e-10 Eh
 Primitive CutOff       TCut            ....  1.000e-11 Eh

Convergence Tolerance:
 Convergence Check Mode ConvCheckMode   .... Total+1el-Energy
 Convergence forced     ConvForced      .... 0
 Energy Change          TolE            ....  1.000e-06 Eh
 1-El. energy change                    ....  1.000e-03 Eh
 Orbital Gradient       TolG            ....  3.330e-04
 Orbital Rotation angle TolX            ....  3.330e-04
 DIIS Error             TolErr          ....  1.000e-06

---------------------
INITIAL GUESS: MOREAD
---------------------
Guess MOs are being read from file: sp_gas.ges
Input Geometry matches current geometry (good)
Atom 0: N(Shells)= 9 and 6 - projection required
Input basis set needs projection
NBasis(read)= 100
NBasis(calc)= 169
Basis set overlap was calculated
Using GuessMode=FMatrix for the initial guess
C*T matrix was formed
Effective Fockian was calculated
Effective Fockian was diagonalized
Initial density was built
                      ------------------
                      INITIAL GUESS DONE (   0.0 sec)
                      ------------------
             **** ENERGY FILE WAS UPDATED (sp_gas.en.tmp) ****
Finished Guess after   0.2 sec
Maximum memory used throughout the entire GUESS-calculation: 11.4 MB

-------------------------------------------------------------------------------------------
                                      ORCA LEAN-SCF
                              memory conserving SCF solver
-------------------------------------------------------------------------------------------

----------------------------------------D-I-I-S--------------------------------------------
Iteration    Energy (Eh)           Delta-E    RMSDP     MaxDP     DIISErr   Damp  Time(sec)
-------------------------------------------------------------------------------------------
               ***  Starting incremental Fock matrix formation  ***
    1    -344.5224986222045231     0.00e+00  3.91e-03  8.29e-02  6.27e-01  0.700   1.9
    2    -344.5851075746682568    -6.26e-02  3.31e-03  5.90e-02  4.41e-01  0.700   1.8
    3    -344.6295535323018271    -4.44e-02  2.47e-03  4.19e-02  3.09e-01  0.700   1.8
    4    -344.6607922186025803    -3.12e-02  1.78e-03  2.96e-02  2.16e-01  0.700   1.8
                               ***Turning on AO-DIIS***
    5    -344.6827232422428438    -2.19e-02  1.28e-03  2.12e-02  1.51e-01  0.700   1.7
    6    -344.6981086258272740    -1.54e-02  9.14e-04  1.49e-02  1.06e-01  0.700   1.7
    7    -344.7089016430390416    -1.08e-02  6.46e-04  1.04e-02  7.42e-02  0.700   1.7
    8    -344.7164685503949499    -7.57e-03  1.52e-03  2.43e-02  5.20e-02  0.000   1.6
                              *** Initializing SOSCF ***
---------------------------------------S-O-S-C-F--------------------------------------
Iteration    Energy (Eh)           Delta-E    RMSDP     MaxDP     MaxGrad    Time(sec)
--------------------------------------------------------------------------------------
    9    -344.7341618384253366    -1.77e-02  9.12e-06  1.69e-04  1.83e-04     2.4
               *** Restarting incremental Fock matrix formation ***
   10    -344.7341618980488533    -5.96e-08  9.93e-06  3.94e-04  2.71e-05     1.9
                  *** Gradient check signals convergence ***

               *****************************************************
               *                     SUCCESS                       *
               *           SCF CONVERGED AFTER  10 CYCLES          *
               *****************************************************

             **** ENERGY FILE WAS UPDATED (sp_gas.en.tmp) ****

----------------
TOTAL SCF ENERGY
----------------

Total Energy       :       -344.73416189804885 Eh           -9380.69345 eV

Components:
Nuclear Repulsion  :        260.97401296568722 Eh            7101.46392 eV
Electronic Energy  :       -605.70817486373608 Eh          -16482.15737 eV
One Electron Energy:       -988.46470003515458 Eh          -26897.49193 eV
Two Electron Energy:        382.75652517141850 Eh           10415.33456 eV

Virial components:
Potential Energy   :       -688.09489364121055 Eh          -18724.01397 eV
Kinetic Energy     :        343.36073174316169 Eh            9343.32052 eV
Virial Ratio       :          2.00399996280272

DFT components:
N(Alpha)           :       24.999985886329 electrons
N(Beta)            :       24.999985886329 electrons
N(Total)           :       49.999971772658 electrons
E(X)               :      -43.317928267051 Eh       
E(C)               :       -1.628674820030 Eh       
E(XC)              :      -44.946603087080 Eh       

---------------
SCF CONVERGENCE
---------------

  Last Energy change         ...    5.9624e-08  Tolerance :   1.0000e-06
  Last MAX-Density change    ...    3.9392e-04  Tolerance :   1.0000e-05
  Last RMS-Density change    ...    9.9310e-06  Tolerance :   1.0000e-06
  Last DIIS Error            ...    1.8279e-04  Tolerance :   1.0000e-06
  Last Orbital Gradient      ...    2.7078e-05  Tolerance :   3.3300e-04
  Last Orbital Rotation      ...    4.8018e-05  Tolerance :   3.3300e-04


----------------
ORBITAL ENERGIES
----------------

  NO   OCC          E(Eh)            E(eV) 
   0   2.0000     -18.971754      -516.2477 
   1   2.0000     -18.955120      -515.7951 
   2   2.0000     -18.947167      -515.5786 
   3   2.0000     -10.090715      -274.5823 
   4   2.0000     -10.087558      -274.4964 
   5   2.0000     -10.079802      -274.2853 
   6   2.0000      -1.015477       -27.6325 
   7   2.0000      -0.994749       -27.0685 
   8   2.0000      -0.977137       -26.5893 
   9   2.0000      -0.732694       -19.9376 
  10   2.0000      -0.646764       -17.5993 
  11   2.0000      -0.580705       -15.8018 
  12   2.0000      -0.508283       -13.8311 
  13   2.0000      -0.490848       -13.3566 
  14   2.0000      -0.460944       -12.5429 
  15   2.0000      -0.437947       -11.9171 
  16   2.0000      -0.417721       -11.3668 
  17   2.0000      -0.390740       -10.6326 
  18   2.0000      -0.372131       -10.1262 
  19   2.0000      -0.325701        -8.8628 
  20   2.0000      -0.323256        -8.7962 
  21   2.0000      -0.305285        -8.3072 
  22   2.0000      -0.271198        -7.3797 
  23   2.0000      -0.241551        -6.5729 
  24   2.0000      -0.233506        -6.3540 
  25   0.0000       0.036468         0.9923 
  26   0.0000       0.067305         1.8314 
  27   0.0000       0.091067         2.4781 
  28   0.0000       0.105861         2.8806 
  29   0.0000       0.116748         3.1769 
  30   0.0000       0.129531         3.5247 
  31   0.0000       0.139357         3.7921 
  32   0.0000       0.154518         4.2046 
  33   0.0000       0.175922         4.7871 
  34   0.0000       0.186033         5.0622 
  35   0.0000       0.192548         5.2395 
*Only the first 10 virtual orbitals were printed.

                    ********************************
                    * MULLIKEN POPULATION ANALYSIS *
                    ********************************

-----------------------
MULLIKEN ATOMIC CHARGES
-----------------------
   0 C :   -0.213008
   1 C :    0.101765
   2 C :   -0.204684
   3 O :   -0.420418
   4 O :   -0.445588
   5 O :   -0.433644
   6 H :    0.131565
   7 H :    0.151500
   8 H :    0.127962
   9 H :    0.138071
  10 H :    0.130582
  11 H :    0.317682
  12 H :    0.313288
  13 H :    0.304927
Sum of atomic charges:   -0.0000000

--------------------------------
MULLIKEN REDUCED ORBITAL CHARGES
--------------------------------
  0 C s       :     3.349367  s :     3.349367
      pz      :     0.974356  p :     2.805833
      px      :     0.826231
      py      :     1.005246
      dz2     :     0.012539  d :     0.057807
      dxz     :     0.011351
      dyz     :     0.006258
      dx2y2   :     0.017998
      dxy     :     0.009662

  1 C s       :     3.104754  s :     3.104754
      pz      :     1.052481  p :     2.727394
      px      :     0.928414
      py      :     0.746500
      dz2     :     0.011546  d :     0.066087
      dxz     :     0.008131
      dyz     :     0.015825
      dx2y2   :     0.016914
      dxy     :     0.013672

  2 C s       :     3.341488  s :     3.341488
      pz      :     0.974367  p :     2.804405
      px      :     0.780045
      py      :     1.049993
      dz2     :     0.014055  d :     0.058790
      dxz     :     0.015247
      dyz     :     0.004853
      dx2y2   :     0.015234
      dxy     :     0.009401

  3 O s       :     3.761112  s :     3.761112
      pz      :     1.772813  p :     4.644969
      px      :     1.452764
      py      :     1.419392
      dz2     :     0.003264  d :     0.014337
      dxz     :     0.002996
      dyz     :     0.000948
      dx2y2   :     0.006691
      dxy     :     0.000437

  4 O s       :     3.769580  s :     3.769580
      pz      :     1.897868  p :     4.664610
      px      :     1.537790
      py      :     1.228951
      dz2     :     0.003205  d :     0.011398
      dxz     :     0.003736
      dyz     :    -0.002156
      dx2y2   :     0.005281
      dxy     :     0.001332

  5 O s       :     3.757274  s :     3.757274
      pz      :     1.363207  p :     4.656489
      px      :     1.602215
      py      :     1.691067
      dz2     :     0.004339  d :     0.019881
      dxz     :     0.000878
      dyz     :     0.005176
      dx2y2   :     0.005516
      dxy     :     0.003972

  6 H s       :     0.851069  s :     0.851069
      pz      :     0.003176  p :     0.017367
      px      :     0.002900
      py      :     0.011291

  7 H s       :     0.831222  s :     0.831222
      pz      :     0.010615  p :     0.017278
      px      :     0.002714
      py      :     0.003949

  8 H s       :     0.855190  s :     0.855190
      pz      :     0.010576  p :     0.016847
      px      :     0.003120
      py      :     0.003151

  9 H s       :     0.844877  s :     0.844877
      pz      :     0.010289  p :     0.017052
      px      :     0.002429
      py      :     0.004334

 10 H s       :     0.852040  s :     0.852040
      pz      :     0.003266  p :     0.017378
      px      :     0.002691
      py      :     0.011422

 11 H s       :     0.639313  s :     0.639313
      pz      :     0.011887  p :     0.043005
      px      :     0.009084
      py      :     0.022034

 12 H s       :     0.643201  s :     0.643201
      pz      :     0.012788  p :     0.043510
      px      :     0.020194
      py      :     0.010528

 13 H s       :     0.652130  s :     0.652130
      pz      :     0.019935  p :     0.042943
      px      :     0.010480
      py      :     0.012528


------------------------
MULLIKEN OVERLAP CHARGES
------------------------
B(  0-C ,  1-C ) :   0.3849 B(  0-C ,  4-O ) :  -0.0683 B(  0-C ,  5-O ) :   0.4669 
B(  0-C ,  6-H ) :   0.8818 B(  0-C ,  7-H ) :   0.8342 B(  0-C ,  8-H ) :  -0.0613 
B(  0-C , 13-H ) :  -0.0935 B(  1-C ,  2-C ) :   0.3053 B(  1-C ,  3-O ) :  -0.0773 
B(  1-C ,  4-O ) :   0.3055 B(  1-C ,  5-O ) :  -0.1509 B(  1-C ,  6-H ) :  -0.1788 
B(  1-C ,  7-H ) :  -0.0659 B(  1-C ,  8-H ) :   0.7587 B(  1-C ,  9-H ) :  -0.1634 
B(  1-C , 10-H ) :  -0.0633 B(  1-C , 12-H ) :  -0.1177 B(  2-C ,  3-O ) :   0.4416 
B(  2-C ,  4-O ) :  -0.0619 B(  2-C ,  9-H ) :   0.9078 B(  2-C , 10-H ) :   0.8237 
B(  2-C , 11-H ) :  -0.0876 B(  3-O ,  9-H ) :  -0.1132 B(  3-O , 10-H ) :  -0.1061 
B(  3-O , 11-H ) :   0.6012 B(  4-O ,  8-H ) :  -0.1371 B(  4-O , 12-H ) :   0.5960 
B(  5-O ,  6-H ) :  -0.0900 B(  5-O ,  7-H ) :  -0.1095 B(  5-O , 13-H ) :   0.6007 
B(  6-H ,  7-H ) :  -0.0579 B(  9-H , 10-H ) :  -0.0708 


                     *******************************
                     * LOEWDIN POPULATION ANALYSIS *
                     *******************************

----------------------
LOEWDIN ATOMIC CHARGES
----------------------
   0 C :    0.018681
   1 C :    0.063371
   2 C :    0.026033
   3 O :   -0.593127
   4 O :   -0.599787
   5 O :   -0.607689
   6 H :    0.165019
   7 H :    0.185426
   8 H :    0.168918
   9 H :    0.166872
  10 H :    0.179549
  11 H :    0.276015
  12 H :    0.281662
  13 H :    0.269057

-------------------------------
LOEWDIN REDUCED ORBITAL CHARGES
-------------------------------
  0 C s       :     2.873218  s :     2.873218
      pz      :     1.019459  p :     2.977124
      px      :     0.920397
      py      :     1.037267
      dz2     :     0.029699  d :     0.130978
      dxz     :     0.024234
      dyz     :     0.013050
      dx2y2   :     0.042838
      dxy     :     0.021156

  1 C s       :     2.849039  s :     2.849039
      pz      :     1.067665  p :     2.945145
      px      :     1.006020
      py      :     0.871460
      dz2     :     0.025585  d :     0.142445
      dxz     :     0.016767
      dyz     :     0.034620
      dx2y2   :     0.036500
      dxy     :     0.028973

  2 C s       :     2.870520  s :     2.870520
      pz      :     1.021206  p :     2.971655
      px      :     0.886819
      py      :     1.063629
      dz2     :     0.031786  d :     0.131792
      dxz     :     0.033709
      dyz     :     0.010150
      dx2y2   :     0.036735
      dxy     :     0.019411

  3 O s       :     3.517399  s :     3.517399
      pz      :     1.785944  p :     4.807601
      px      :     1.536414
      py      :     1.485243
      dz2     :     0.049598  d :     0.268127
      dxz     :     0.061855
      dyz     :     0.018802
      dx2y2   :     0.075622
      dxy     :     0.062250

  4 O s       :     3.507953  s :     3.507953
      pz      :     1.876966  p :     4.808770
      px      :     1.558052
      py      :     1.373752
      dz2     :     0.030895  d :     0.283063
      dxz     :     0.012696
      dyz     :     0.070733
      dx2y2   :     0.081108
      dxy     :     0.087631

  5 O s       :     3.519528  s :     3.519528
      pz      :     1.455916  p :     4.807449
      px      :     1.629253
      py      :     1.722280
      dz2     :     0.072777  d :     0.280711
      dxz     :     0.051757
      dyz     :     0.037642
      dx2y2   :     0.062123
      dxy     :     0.056412

  6 H s       :     0.793711  s :     0.793711
      pz      :     0.007353  p :     0.041269
      px      :     0.007499
      py      :     0.026417

  7 H s       :     0.774939  s :     0.774939
      pz      :     0.024083  p :     0.039635
      px      :     0.006131
      py      :     0.009420

  8 H s       :     0.791076  s :     0.791076
      pz      :     0.025446  p :     0.040006
      px      :     0.007050
      py      :     0.007509

  9 H s       :     0.792780  s :     0.792780
      pz      :     0.024153  p :     0.040348
      px      :     0.006107
      py      :     0.010089

 10 H s       :     0.780979  s :     0.780979
      pz      :     0.007011  p :     0.039472
      px      :     0.005859
      py      :     0.026602

 11 H s       :     0.601948  s :     0.601948
      pz      :     0.030879  p :     0.122037
      px      :     0.023375
      py      :     0.067782

 12 H s       :     0.594846  s :     0.594846
      pz      :     0.033317  p :     0.123493
      px      :     0.061522
      py      :     0.028653

 13 H s       :     0.608928  s :     0.608928
      pz      :     0.059149  p :     0.122015
      px      :     0.027323
      py      :     0.035544


---------------------------------
LOEWDIN BOND ORDERS (THRESH 0.050000)
---------------------------------
B(  0-C ,  1-C ) :   0.9438 B(  0-C ,  2-C ) :   0.0815 B(  0-C ,  4-O ) :   0.1508 
B(  0-C ,  5-O ) :   1.4466 B(  0-C ,  6-H ) :   0.8278 B(  0-C ,  7-H ) :   0.8184 
B(  1-C ,  2-C ) :   0.9419 B(  1-C ,  3-O ) :   0.1629 B(  1-C ,  4-O ) :   1.3946 
B(  1-C ,  5-O ) :   0.1671 B(  1-C ,  8-H ) :   0.7950 B(  2-C ,  3-O ) :   1.4549 
B(  2-C ,  4-O ) :   0.1605 B(  2-C ,  9-H ) :   0.8253 B(  2-C , 10-H ) :   0.8202 
B(  3-O ,  4-O ) :   0.0568 B(  3-O ,  9-H ) :   0.1030 B(  3-O , 10-H ) :   0.0984 
B(  3-O , 11-H ) :   0.9615 B(  4-O ,  5-O ) :   0.0755 B(  4-O ,  8-H ) :   0.0968 
B(  4-O , 12-H ) :   0.9442 B(  5-O ,  6-H ) :   0.1022 B(  5-O ,  7-H ) :   0.0976 
B(  5-O , 13-H ) :   0.9718 

------------------------------------------
LOEWDIN REDUCED ORBITAL POPULATIONS PER MO
-------------------------------------------
THRESHOLD FOR PRINTING IS 0.1%%
                      0         1         2         3         4         5   
                 -18.97175 -18.95512 -18.94717 -10.09071 -10.08756 -10.07980
                   2.00000   2.00000   2.00000   2.00000   2.00000   2.00000
                  --------  --------  --------  --------  --------  --------
 0 C  s               0.0       0.0       0.0      99.3       0.1       0.0
 1 C  s               0.0       0.0       0.0       0.1      99.3       0.0
 2 C  s               0.0       0.0       0.0       0.0       0.0      99.4
 3 O  s               0.0       0.0      99.9       0.0       0.0       0.0
 3 O  dxz             0.0       0.0       0.0       0.0       0.0       0.1
 3 O  dx2y2           0.0       0.0       0.0       0.0       0.0       0.1
 4 O  s               0.0      99.9       0.0       0.0       0.0       0.0
 4 O  py              0.0       0.0       0.0       0.0       0.1       0.0
 4 O  dx2y2           0.0       0.0       0.0       0.0       0.2       0.0
 5 O  s              99.9       0.0       0.0       0.0       0.0       0.0
 5 O  dxz             0.0       0.0       0.0       0.1       0.0       0.0
 5 O  dxy             0.0       0.0       0.0       0.1       0.0       0.0

                      6         7         8         9        10        11   
                  -1.01548  -0.99475  -0.97714  -0.73269  -0.64676  -0.58071
                   2.00000   2.00000   2.00000   2.00000   2.00000   2.00000
                  --------  --------  --------  --------  --------  --------
 0 C  s               8.7       1.2       0.2      12.3      15.5       1.7
 0 C  pz              2.2       0.4       0.0       0.0       1.1       3.2
 0 C  px              1.5       3.5       1.0       4.9       0.1       2.5
 0 C  py              1.9       0.2       0.1       0.3       0.1       0.0
 0 C  dxz             0.2       0.1       0.0       0.1       0.0       0.1
 0 C  dyz             0.1       0.0       0.0       0.0       0.0       0.0
 0 C  dxy             0.1       0.1       0.0       0.0       0.0       0.0
 1 C  s               5.6       3.3       1.7      17.2       0.3       9.8
 1 C  pz              0.1       0.0       0.1       1.6       0.0       4.3
 1 C  px              0.4       2.6       0.2       0.2       9.7       0.0
 1 C  py              1.8       2.0       5.2       5.1       0.2       0.2
 1 C  dxz             0.0       0.0       0.0       0.0       0.2       0.0
 1 C  dx2y2           0.1       0.2       0.3       0.2       0.0       0.0
 2 C  s               1.4       5.5       3.6       9.8      13.3       6.6
 2 C  pz              0.3       1.3       0.6       0.0       0.2       3.8
 2 C  px              0.1       1.9       5.4       5.5       0.5       1.6
 2 C  py              0.3       0.6       0.1       0.0       0.2       3.6
 2 C  dxz             0.0       0.1       0.3       0.1       0.0       0.1
 2 C  dx2y2           0.0       0.1       0.2       0.0       0.0       0.0
 3 O  s               2.2      24.2      33.7       2.3       2.7       0.2
 3 O  pz              0.0       0.2       0.2       0.3       1.5       3.1
 3 O  px              0.1       0.8       0.7       1.9       5.2       2.8
 3 O  py              0.0       0.4       0.5       0.6       2.3       5.3
 3 O  dz2             0.0       0.1       0.0       0.1       0.0       0.1
 3 O  dxz             0.0       0.1       0.1       0.2       0.6       0.7
 3 O  dx2y2           0.0       0.1       0.0       0.7       0.9       0.1
 3 O  dxy             0.0       0.0       0.0       0.0       0.0       0.3
 4 O  s              15.4      18.0      26.3       4.3       0.0       1.1
 4 O  pz              0.0       0.0       0.0       0.1       0.0       0.1
 4 O  px              0.5       0.3       0.8       0.3       0.8       1.7
 4 O  py              0.5       0.4       0.2       5.3       0.5      14.2
 4 O  dz2             0.2       0.1       0.0       0.3       0.0       0.1
 4 O  dyz             0.0       0.0       0.0       0.1       0.0       0.3
 4 O  dx2y2           0.0       0.1       0.0       1.2       0.2       0.8
 4 O  dxy             0.0       0.1       0.0       0.3       0.3       0.2
 5 O  s              39.5      17.5       4.0       2.3       2.3       0.0
 5 O  pz              0.1       0.1       0.0       1.7       8.4       5.0
 5 O  px              0.9       0.2       0.0       1.9       5.3       0.7
 5 O  py              1.0       0.4       0.1       0.3       0.5       0.0
 5 O  dz2             0.0       0.0       0.0       0.1       0.1       0.0
 5 O  dxz             0.1       0.0       0.0       0.2       0.5       0.2
 5 O  dyz             0.0       0.0       0.0       0.2       0.5       0.2
 5 O  dx2y2           0.1       0.0       0.0       0.2       0.1       0.1
 5 O  dxy             0.0       0.0       0.0       0.5       0.5       0.0
 6 H  s               0.6       0.1       0.0       2.5       4.1       0.8
 6 H  py              0.0       0.0       0.0       0.2       0.3       0.1
 7 H  s               0.6       0.1       0.0       2.4       5.1       1.9
 7 H  pz              0.0       0.0       0.0       0.2       0.4       0.1
 8 H  s               0.4       0.2       0.1       2.9       0.1       5.4
 8 H  pz              0.0       0.0       0.0       0.3       0.0       0.4
 9 H  s               0.1       0.4       0.3       1.7       3.3       3.1
 9 H  pz              0.0       0.0       0.0       0.1       0.2       0.2
10 H  s               0.1       0.4       0.3       2.1       4.0       4.5
10 H  py              0.0       0.0       0.0       0.2       0.3       0.3
11 H  s               0.4       4.2       5.6       0.9       2.2       2.4
11 H  py              0.1       0.8       1.2       0.2       0.4       0.2
12 H  s               2.9       2.7       4.5       1.8       0.2       3.6
12 H  px              0.4       0.5       0.8       0.4       0.0       0.4
12 H  py              0.2       0.2       0.3       0.0       0.0       0.0
13 H  s               6.8       3.0       0.8       1.1       3.5       1.2
13 H  pz              1.2       0.6       0.1       0.2       0.3       0.0
13 H  py              0.2       0.1       0.0       0.1       0.2       0.0

                     12        13        14        15        16        17   
                  -0.50828  -0.49085  -0.46094  -0.43795  -0.41772  -0.39074
                   2.00000   2.00000   2.00000   2.00000   2.00000   2.00000
                  --------  --------  --------  --------  --------  --------
 0 C  s               0.4       0.8       1.0       0.3       0.3       0.1
 0 C  pz              3.0       4.0       1.0       1.0      18.6       0.1
 0 C  px              4.7       1.3       5.6       7.6       1.2       0.2
 0 C  py              8.5       6.5      15.6       2.1       1.6       0.2
 0 C  dxz             0.1       0.0       0.0       0.0       0.0       0.0
 0 C  dyz             0.0       0.1       0.0       0.0       0.1       0.0
 0 C  dx2y2           0.0       0.0       0.1       0.0       0.0       0.0
 0 C  dxy             0.1       0.1       0.0       0.3       0.0       0.0
 1 C  s               0.3       0.7       0.5       0.2       0.2       0.1
 1 C  pz              2.3      11.6       1.7       4.2       1.0       0.0
 1 C  px              6.0       0.4       3.9       7.7       2.5       0.3
 1 C  py              7.6       0.0       1.4       8.1       1.9       2.5
 1 C  dxz             0.0       0.0       0.0       0.2       0.0       0.0
 1 C  dx2y2           0.0       0.0       0.1       0.0       0.0       0.4
 1 C  dxy             0.0       0.0       0.2       0.1       0.1       0.0
 2 C  s               0.1       0.3       0.5       0.8       0.2       0.6
 2 C  pz              0.9       6.3       4.5       0.7      13.7       2.3
 2 C  px              0.1       3.9       3.1       7.0       3.1       2.9
 2 C  py              4.9       3.3       0.0       0.0       1.3      27.8
 2 C  dxz             0.0       0.1       0.1       0.2       0.0       0.0
 2 C  dx2y2           0.0       0.0       0.0       0.1       0.0       0.5
 3 O  s               0.5       0.3       0.0       1.3       0.3       2.1
 3 O  pz              0.1       0.3       0.3       3.6       5.9       4.3
 3 O  px              0.1       3.9       4.6       0.6       0.4      21.4
 3 O  py              1.8      12.1       5.2      11.7       1.3       2.9
 3 O  dz2             0.0       0.0       0.0       0.3       0.4       0.0
 3 O  dxz             0.1       0.2       0.2       0.0       0.5       0.1
 3 O  dyz             0.0       0.0       0.0       0.0       0.0       0.4
 3 O  dx2y2           0.0       0.2       0.1       0.1       0.1       0.2
 3 O  dxy             0.3       0.1       0.1       0.0       0.0       1.0
 4 O  s               0.1       0.6       2.3       0.7       0.0       0.6
 4 O  pz              1.4       2.1       0.2       2.1       0.1       0.0
 4 O  px              7.4       1.6      12.2       1.8       0.0       1.7
 4 O  py             11.6       0.4       2.6      10.2       1.3       5.9
 4 O  dz2             0.0       0.0       0.2       0.0       0.0       0.1
 4 O  dxz             0.0       0.0       0.0       0.0       0.2       0.0
 4 O  dyz             0.2       0.7       0.2       0.2       0.0       0.1
 4 O  dxy             0.0       0.1       0.1       1.0       0.1       0.5
 5 O  s               1.2       0.1       0.5       0.3       2.2       0.0
 5 O  pz             15.9       8.6       0.1       9.8       0.4       0.2
 5 O  px              0.9       6.3       1.9       0.4      11.5       0.0
 5 O  py              1.1       1.0       9.0       0.8      10.1       0.1
 5 O  dz2             0.1       0.2       0.1       0.1       0.6       0.0
 5 O  dxz             0.1       0.2       0.0       0.2       0.4       0.0
 5 O  dyz             0.1       0.0       0.1       0.1       0.0       0.0
 5 O  dx2y2           0.0       0.2       0.8       0.4       0.0       0.0
 5 O  dxy             0.1       0.0       0.4       0.0       0.3       0.0
 6 H  s               3.0       3.3       9.8       0.5       0.6       0.0
 6 H  pz              0.0       0.0       0.0       0.0       0.1       0.0
 6 H  py              0.1       0.1       0.4       0.0       0.0       0.0
 7 H  s               0.8       1.2       0.2       1.7       8.1       0.2
 7 H  pz              0.1       0.0       0.0       0.0       0.2       0.0
 7 H  py              0.0       0.1       0.1       0.0       0.0       0.0
 8 H  s               2.1       4.4       0.0       3.0       0.0       0.3
 8 H  pz              0.1       0.2       0.0       0.1       0.0       0.0
 9 H  s               1.1       3.3       2.4       0.0       7.3       0.2
 9 H  pz              0.1       0.1       0.1       0.0       0.2       0.1
 9 H  py              0.0       0.0       0.0       0.0       0.0       0.2
10 H  s               0.8       0.1       0.3       0.9       0.2      16.2
10 H  py              0.0       0.0       0.0       0.0       0.0       0.3
11 H  s               0.2       4.0       2.2       3.5       0.1       0.4
11 H  px              0.0       0.0       0.0       0.0       0.0       0.3
11 H  py              0.0       0.1       0.1       0.1       0.0       0.1
12 H  s               4.9       0.1       2.9       0.7       0.3       1.7
12 H  px              0.3       0.0       0.0       0.2       0.0       0.0
13 H  s               4.0       3.8       0.5       2.0       0.0       0.0
13 H  pz              0.1       0.1       0.0       0.0       0.0       0.0
13 H  px              0.0       0.0       0.0       0.0       0.2       0.0
13 H  py              0.0       0.0       0.1       0.1       0.1       0.0

                     18        19        20        21        22        23   
                  -0.37213  -0.32570  -0.32326  -0.30529  -0.27120  -0.24155
                   2.00000   2.00000   2.00000   2.00000   2.00000   2.00000
                  --------  --------  --------  --------  --------  --------
 0 C  s               0.5       0.3       0.2       0.2       0.0       0.6
 0 C  pz              9.3       0.0       4.4       0.9       0.1       1.1
 0 C  px              0.5       3.1       1.1       1.7       0.4       4.0
 0 C  py              0.3       2.4       7.8       1.8       1.7       0.8
 0 C  dz2             0.1       0.2       0.9       0.1       0.0       0.1
 0 C  dxz             0.1       0.0       0.1       0.1       0.1       0.0
 0 C  dyz             0.1       0.0       0.0       0.1       0.1       0.0
 0 C  dx2y2           0.1       0.0       0.0       0.4       0.7       0.7
 1 C  s               0.2       0.4       0.6       0.6       0.6       0.4
 1 C  pz             17.3       1.2       1.3       0.0       0.1       5.4
 1 C  px              0.2       1.2       0.4       2.1       3.3       2.0
 1 C  py              0.7       3.8       0.9       1.2       0.5       0.2
 1 C  dz2             0.3       0.1       0.0       0.3       0.0       0.1
 1 C  dyz             0.0       0.0       0.0       0.0       0.3       1.1
 1 C  dx2y2           0.1       0.2       0.0       0.0       0.0       0.1
 1 C  dxy             0.0       0.4       0.1       0.1       0.0       0.0
 2 C  s               0.2       0.4       0.3       0.1       0.2       0.2
 2 C  pz              9.5       1.1       0.5       0.9       0.2       0.1
 2 C  px              2.6       0.8       0.0       2.3       1.4       0.3
 2 C  py              0.0       0.2       2.0       5.6       2.9       0.1
 2 C  dz2             0.1       0.0       0.0       0.2       0.3       0.1
 2 C  dyz             0.0       0.0       0.0       0.1       0.0       0.0
 2 C  dx2y2           0.0       0.0       0.2       0.2       0.0       0.1
 2 C  dxy             0.1       0.0       0.1       0.4       0.1       0.0
 3 O  s               0.1       0.1       1.4       3.6       0.8       0.0
 3 O  pz              4.4       1.9       1.3       1.5      14.6       0.1
 3 O  px              1.2       1.1       4.3      12.0       0.1       0.2
 3 O  py              0.7       1.2       5.9      17.3       4.9       0.0
 3 O  dz2             0.4       0.0       0.1       0.2       0.1       0.0
 3 O  dyz             0.0       0.0       0.1       0.2       0.0       0.0
 3 O  dx2y2           0.0       0.1       0.0       0.6       0.2       0.0
 3 O  dxy             0.0       0.1       0.2       0.4       0.4       0.0
 4 O  s               0.6       4.9       0.1       0.1       0.3       0.0
 4 O  pz             13.7       0.0       3.2       0.5      16.2      52.3
 4 O  px              1.5      43.4       0.1       1.0       0.0       2.1
 4 O  py              1.4      11.8       0.1       1.4       0.5       0.1
 4 O  dz2             0.1       0.1       0.0       0.1       0.0       0.0
 4 O  dyz             0.6       0.1       0.0       0.0       0.1       0.9
 4 O  dx2y2           0.0       0.0       0.1       0.8       0.1       0.1
 4 O  dxy             0.0       0.7       0.0       0.1       0.3       0.2
 5 O  s               0.5       0.0       4.5       0.8       0.0       0.1
 5 O  pz              0.3       2.1      10.1       0.3       5.6       2.9
 5 O  px              8.8       3.1      10.2       0.5      17.0       6.5
 5 O  py              3.2       3.6      13.7      20.7      14.8       5.2
 5 O  dz2             0.2       0.2       1.4       0.2       0.0       0.2
 5 O  dxz             0.0       0.0       0.4       0.0       0.0       0.0
 5 O  dyz             0.1       0.1       0.1       0.1       0.2       0.0
 5 O  dx2y2           0.0       0.2       0.1       0.0       0.3       0.4
 5 O  dxy             0.0       0.2       0.2       0.2       0.0       0.0
 6 H  s               0.3       1.6       4.5       2.9       2.9       1.9
 7 H  s               4.7       1.3       8.8       1.1       0.0       0.6
 7 H  pz              0.0       0.0       0.1       0.0       0.0       0.0
 8 H  s               8.4       2.0       0.1       1.8       1.3       6.4
 8 H  py              0.1       0.0       0.0       0.0       0.0       0.0
 9 H  s               4.9       0.3       0.3       2.8       2.1       0.3
10 H  s               0.0       0.1       2.4       5.1       1.6       0.1
11 H  s               0.1       0.2       1.0       2.1       0.5       0.0
11 H  pz              0.1       0.0       0.0       0.1       0.3       0.0
11 H  px              0.0       0.0       0.1       0.3       0.0       0.0
12 H  s               0.1       2.3       0.0       0.4       0.3       0.1
12 H  pz              0.2       0.0       0.1       0.0       0.3       1.0
12 H  py              0.0       0.6       0.0       0.0       0.0       0.0
13 H  s               0.0       0.0       3.1       0.5       0.0       0.0
13 H  pz              0.0       0.0       0.0       0.1       0.1       0.1
13 H  px              0.1       0.1       0.3       0.0       0.3       0.1
13 H  py              0.0       0.1       0.1       0.3       0.3       0.1

                     24        25        26        27        28        29   
                  -0.23351   0.03647   0.06730   0.09107   0.10586   0.11675
                   2.00000   0.00000   0.00000   0.00000   0.00000   0.00000
                  --------  --------  --------  --------  --------  --------
 0 C  s               0.1       3.0       3.6       4.5       0.4       8.8
 0 C  pz              0.5       8.2       0.5       2.6       2.3      19.3
 0 C  px              0.9       7.9       1.1       9.1       3.3       2.2
 0 C  py              0.1       3.0       3.3       2.4       2.1       2.4
 0 C  dz2             0.0       0.0       0.0       0.2       0.0       0.9
 0 C  dxz             0.1       0.6       0.0       1.1       0.2       0.2
 0 C  dyz             0.0       0.3       0.0       0.2       0.2       0.2
 0 C  dx2y2           0.0       0.3       0.0       0.0       0.0       0.0
 0 C  dxy             0.0       0.6       0.1       0.1       0.5       0.0
 1 C  s               0.4       1.5       1.1       2.9       3.7       0.6
 1 C  pz              1.1       2.4       0.4       3.2       1.2       8.5
 1 C  px              7.0       0.8       6.1       0.3       1.2       1.3
 1 C  py              0.5       3.4       3.1       4.8      15.2       2.0
 1 C  dz2             0.0       0.0       0.0       1.0       0.4       1.0
 1 C  dxz             0.1       0.1       0.4       0.1       0.2       0.2
 1 C  dyz             0.1       0.0       0.0       0.0       0.1       0.0
 1 C  dx2y2           0.0       0.8       0.7       0.1       0.8       0.0
 2 C  s               0.2       1.1       1.4       6.7       6.0       1.4
 2 C  pz              4.1       1.5       1.2       1.7       2.9       8.7
 2 C  px              1.8       1.7      14.9       5.5       2.7       0.5
 2 C  py              0.1       0.8       0.7       2.6       0.2       2.0
 2 C  dz2             0.8       0.0       0.1       0.3       0.2       0.2
 2 C  dxz             0.5       0.1       0.8       0.6       0.2       0.0
 2 C  dyz             0.1       0.0       0.0       0.1       0.6       0.1
 2 C  dx2y2           0.2       0.5       0.6       0.0       0.0       0.0
 2 C  dxy             0.0       0.1       0.4       0.0       0.0       0.1
 3 O  s               0.0       1.2       6.6       0.3       2.6       0.1
 3 O  pz             45.6       0.1       0.3       1.5       0.1       0.1
 3 O  px             15.4       0.9       1.6       0.9       1.2       0.1
 3 O  py              0.1       0.5       2.1       0.3       0.9       0.1
 3 O  dz2             0.6       0.3       0.2       0.0       0.1       0.2
 3 O  dxz             0.2       0.2       0.1       1.2       0.8       0.2
 3 O  dyz             0.0       0.0       0.3       0.0       0.9       0.3
 3 O  dx2y2           0.3       0.2       1.3       1.2       1.2       0.0
 3 O  dxy             0.0       0.0       0.2       0.6       0.6       0.1
 4 O  s               0.1       2.8       2.9       3.5       2.8       0.1
 4 O  pz              1.8       0.1       0.1       0.2       1.4       0.8
 4 O  px              0.5       1.6       0.5       1.0       3.9       0.5
 4 O  py              0.2       0.4       0.4       1.2       1.7       1.3
 4 O  dz2             0.1       0.2       0.7       0.7       0.8       0.0
 4 O  dxz             0.0       0.0       0.0       0.0       0.3       0.1
 4 O  dyz             0.1       0.3       0.0       0.1       0.3       0.2
 4 O  dx2y2           0.0       0.8       0.1       0.2       2.2       0.7
 4 O  dxy             0.2       0.2       0.6       0.8       0.1       0.2
 5 O  s               0.0       8.8       0.9       1.1       0.2       0.3
 5 O  pz              1.3       2.1       2.9       1.3       1.2       0.6
 5 O  px              5.3       2.0       0.9       0.4       0.5       0.3
 5 O  py              0.6       1.5       0.9       3.5       0.3       0.5
 5 O  dz2             0.1       0.6       2.2       0.3       0.6       0.3
 5 O  dxz             0.0       0.2       0.2       1.0       0.5       1.6
 5 O  dyz             0.0       1.2       1.9       0.2       2.8       0.5
 5 O  dx2y2           0.2       0.5       0.1       0.2       0.0       0.3
 5 O  dxy             0.0       0.2       0.0       1.9       0.1       0.0
 6 H  s               0.1       1.3       0.4       2.8       0.2       0.3
 6 H  pz              0.0       0.3       0.0       0.1       0.2       0.2
 6 H  px              0.0       0.4       0.0       0.2       0.4       0.0
 6 H  py              0.0       0.1       0.4       1.2       0.2       0.1
 7 H  s               0.1       0.1       0.5       0.6       0.7      11.3
 7 H  pz              0.0       0.0       0.2       0.1       0.0       4.0
 7 H  px              0.0       0.2       0.1       0.6       0.1       0.1
 7 H  py              0.0       0.4       0.0       0.0       0.1       0.7
 8 H  s               0.7       0.5       0.4       3.4       1.0       3.8
 8 H  pz              0.0       0.1       0.2       1.4       0.1       1.6
 8 H  px              0.1       0.1       0.5       0.0       0.1       0.1
 8 H  py              0.0       0.0       0.2       0.1       1.4       0.0
 9 H  s               5.7       0.0       0.2       0.7       5.1       3.6
 9 H  pz              0.0       0.1       0.0       0.1       0.8       1.4
 9 H  px              0.0       0.0       0.5       0.2       0.3       0.0
 9 H  py              0.0       0.1       0.1       0.1       0.6       0.2
10 H  s               0.0       0.8       0.3       3.4       0.7       0.0
10 H  pz              0.1       0.0       0.0       0.1       0.5       0.1
10 H  px              0.0       0.1       0.6       0.3       0.0       0.1
10 H  py              0.0       0.0       0.1       1.2       0.3       0.0
11 H  s               0.0       1.8      10.4       0.2       4.7       0.0
11 H  pz              0.8       0.0       0.1       0.0       0.0       0.0
11 H  px              0.3       0.0       0.2       0.1       0.1       0.0
11 H  py              0.0       0.4       2.8       0.0       1.4       0.0
12 H  s               0.3       5.6       2.6       6.7       4.9       1.5
12 H  px              0.0       1.0       0.3       1.1       0.9       0.3
12 H  py              0.0       0.4       0.3       0.6       1.0       0.0
13 H  s               0.0      15.9       8.1       0.2       1.3       0.6
13 H  pz              0.0       3.2       1.6       0.2       0.2       0.1
13 H  px              0.1       0.3       0.0       0.1       0.0       0.0
13 H  py              0.0       0.6       0.4       0.0       0.2       0.0

                     30        31        32        33        34        35   
                   0.12953   0.13936   0.15452   0.17592   0.18603   0.19255
                   0.00000   0.00000   0.00000   0.00000   0.00000   0.00000
                  --------  --------  --------  --------  --------  --------
 0 C  s               1.3       3.3       0.9       1.8       2.9       1.0
 0 C  pz              0.5       7.0       2.1       2.8       2.8       8.3
 0 C  px              4.6       3.9       0.3       2.4       7.7       0.1
 0 C  py             20.7       7.7       1.2       4.7       1.0       5.1
 0 C  dz2             0.1       0.0       0.3       0.4       0.1       0.0
 0 C  dxz             0.2       0.1       0.0       0.4       0.1       0.1
 0 C  dyz             0.1       0.7       0.5       0.2       0.0       0.3
 0 C  dx2y2           0.3       0.1       0.3       0.9       0.7       0.3
 0 C  dxy             0.4       0.2       0.2       0.0       0.1       0.5
 1 C  s               3.4       0.5       5.3       0.3       1.4       1.2
 1 C  pz              5.4       1.3       0.7       4.4       8.6       8.3
 1 C  px              0.6       4.6       1.6       4.3       0.1       4.8
 1 C  py              1.3       2.3       2.8       0.4       7.2       4.4
 1 C  dz2             0.0       0.3       0.0       0.0       0.0       0.2
 1 C  dxz             0.0       0.6       0.5       1.0       0.0       0.1
 1 C  dyz             0.1       0.0       0.1       0.0       0.1       0.0
 1 C  dx2y2           0.8       0.0       0.0       0.1       0.6       0.8
 1 C  dxy             0.3       0.7       0.0       0.0       0.7       0.1
 2 C  s               1.5       2.7       2.3       4.6       0.3       0.1
 2 C  pz              0.5       0.4      26.1       3.9       7.6       5.9
 2 C  px              2.7       2.4       1.2       2.1       5.4       0.6
 2 C  py             14.2       8.8       3.7       7.5      11.9       0.7
 2 C  dz2             0.0       0.1       0.3       0.2       0.1       0.0
 2 C  dxz             0.2       0.3       0.0       0.0       0.5       0.0
 2 C  dyz             0.1       0.2       0.6       0.0       0.6       0.4
 2 C  dx2y2           0.6       0.3       0.8       0.8       0.4       0.0
 2 C  dxy             0.0       0.0       0.2       0.0       0.3       0.3
 3 O  s               0.1       0.4       0.0       0.0       0.5       0.1
 3 O  pz              0.4       0.3       0.0       0.6       0.3       0.8
 3 O  px              0.5       0.7       1.5       0.2       0.4       0.3
 3 O  py              0.8       4.6       0.3       0.5       0.2       0.7
 3 O  dz2             0.0       0.9       0.2       0.2       1.2       0.9
 3 O  dxz             0.0       0.3       1.2       0.0       0.3       1.2
 3 O  dyz             0.0       0.0       2.2       2.2       2.6       2.7
 3 O  dx2y2           0.1       1.1       0.2       0.2       0.4       0.9
 3 O  dxy             0.7       1.1       0.0       0.3       0.1       0.1
 4 O  s               0.5       0.0       0.0       0.1       0.7       0.0
 4 O  pz              0.5       0.3       0.9       0.3       0.4       0.2
 4 O  px              0.2       1.7       0.1       0.3       0.1       1.8
 4 O  py              5.6       1.2       0.2       0.4       2.2       3.8
 4 O  dz2             0.9       0.3       1.2       0.4       1.5       3.2
 4 O  dxz             0.1       0.4       0.1       7.4       0.5       5.6
 4 O  dyz             0.0       0.0       0.7       0.3       0.7       0.1
 4 O  dx2y2           1.7       0.1       0.3       0.2       0.1       1.9
 4 O  dxy             0.9       5.7       0.0       0.3       1.8       0.8
 5 O  s               0.0       0.2       0.2       0.1       0.1       0.1
 5 O  pz              1.0       0.1       3.9       0.8       0.8       0.8
 5 O  px              0.1       0.4       1.9       0.4       1.3       0.6
 5 O  py              0.8       0.7       0.3       0.3       0.2       1.4
 5 O  dz2             0.4       0.2       1.3       1.7       0.2       0.3
 5 O  dxz             0.4       2.3       0.5       3.1       1.6       0.1
 5 O  dyz             0.0       0.9       0.1       3.9       0.0       0.7
 5 O  dx2y2           0.7       0.4       0.0       0.9       0.7       0.1
 5 O  dxy             0.5       0.3       0.3       1.6       0.2       2.4
 6 H  s               6.5       0.8       0.8       9.4       1.8       0.5
 6 H  pz              0.0       0.6       0.4       0.3       0.0       0.4
 6 H  px              0.4       0.5       0.0       0.0       0.0       0.1
 6 H  py              2.6       0.5       0.3       3.0       0.1       0.1
 7 H  s               0.1       0.3       3.9       0.0       1.6       3.2
 7 H  pz              0.0       0.2       0.4       0.1       0.7       0.7
 7 H  px              0.0       0.1       0.0       0.3       0.4       0.0
 7 H  py              0.0       0.3       0.7       0.9       0.0       0.8
 8 H  s               1.3       0.4       1.4       0.5       0.9       4.2
 8 H  pz              0.8       0.2       0.9       0.2       0.0       2.1
 8 H  px              0.1       0.3       0.2       0.9       0.0       0.6
 8 H  py              0.1       0.1       0.3       0.0       0.9       0.0
 9 H  s               0.0       0.6       0.8       0.9       4.8       0.5
 9 H  pz              0.0       0.3       1.5       0.1       1.1       0.2
 9 H  px              0.1       0.2       0.0       0.0       0.4       0.0
 9 H  py              0.0       0.0       0.5       0.6       1.8       0.2
10 H  s               4.3       2.0       1.7       7.5       1.3       0.5
10 H  pz              0.0       0.0       0.8       0.1       0.5       0.3
10 H  px              0.0       0.0       0.1       0.0       0.3       0.3
10 H  py              2.0       1.2       0.2       2.5       0.0       0.2
11 H  s               1.0      11.3       1.1       0.7       0.6       0.5
11 H  pz              0.0       0.0       0.0       0.1       0.1       0.0
11 H  px              0.0       0.1       0.0       0.0       0.0       0.0
11 H  py              0.2       2.6       0.2       0.1       0.1       0.2
12 H  s               2.2       3.6       0.0       0.7       1.3       6.7
12 H  px              0.7       0.7       0.0       0.2       0.1       1.6
12 H  py              0.1       0.3       0.0       0.0       0.0       0.2
13 H  s               0.5       0.0      11.4       0.7       0.5       0.3
13 H  pz              0.1       0.0       2.2       0.1       0.1       0.0
13 H  px              0.0       0.0       0.1       0.0       0.1       0.0
13 H  py              0.0       0.0       0.4       0.1       0.0       0.0

                     36        37        38        39        40        41   
                   0.19898   0.23245   0.24338   0.25082   0.29304   0.30025
                   0.00000   0.00000   0.00000   0.00000   0.00000   0.00000
                  --------  --------  --------  --------  --------  --------
 0 C  s               0.2       0.3       5.6       1.3       2.8       1.6
 0 C  pz              2.0       6.3      17.8       3.3       2.0       2.9
 0 C  px              7.7      10.4       0.7       2.3      12.8       2.5
 0 C  py              2.2       2.3       0.6      13.2      11.6       3.5
 0 C  dz2             0.9       0.0       0.0       0.6       1.2       0.4
 0 C  dxz             0.2       0.3       0.1       0.2       0.2       0.1
 0 C  dyz             0.2       0.5       0.4       0.3       0.0       0.3
 0 C  dx2y2           0.0       0.1       0.0       0.4       0.3       0.4
 0 C  dxy             0.6       0.4       0.0       0.0       0.1       0.0
 1 C  s               1.5       0.4       1.5       2.0       0.6       4.2
 1 C  pz              6.9       2.9       2.9       9.6       0.3       0.8
 1 C  px              1.3       0.5       7.3       1.1       3.8       1.2
 1 C  py              1.2       0.5       0.2       0.7       0.4       4.2
 1 C  dz2             0.0       0.4       0.7       1.6       0.0       0.2
 1 C  dxz             0.3       0.1       0.5       0.3       0.7       0.0
 1 C  dyz             0.2       0.0       0.1       0.0       0.0       0.0
 1 C  dx2y2           0.5       0.4       0.1       0.2       0.3       0.2
 1 C  dxy             0.3       0.0       0.0       0.1       0.7       0.0
 2 C  s               1.8       4.8       0.1       2.2       1.8       1.1
 2 C  pz              2.0       3.8       7.4      11.8       0.4       7.0
 2 C  px              1.8       8.4       8.3       1.1       3.5       2.0
 2 C  py              6.6       2.6       2.5       1.9       7.0       4.2
 2 C  dz2             0.5       0.2       0.3       0.4       0.1       0.5
 2 C  dxz             0.1       1.0       0.0       0.0       0.0       0.3
 2 C  dyz             0.5       0.0       0.2       0.2       0.0       0.4
 2 C  dx2y2           0.2       0.7       0.0       0.0       0.6       0.3
 2 C  dxy             0.0       0.0       0.5       0.1       0.0       0.2
 3 O  s               0.5       2.2       0.2       0.2       0.5       0.1
 3 O  pz              0.2       2.0       7.3       0.0       0.0       4.1
 3 O  px              0.1       6.7       0.9       0.2       2.5       0.4
 3 O  py              2.7       3.0       0.1       1.4       1.3       1.7
[...]
 4 O  py              0.1       1.1       8.7       8.2       0.5       5.6
 4 O  dz2             0.0       0.5       6.7       6.7       0.2       2.8
 4 O  dxz             0.1       0.0       0.1       0.2       0.1       1.0
 4 O  dyz             0.1       0.0       0.0       0.1       0.0       0.3
 4 O  dx2y2           0.0       0.4       4.0       3.5       0.8      10.0
 4 O  dxy             0.0       0.1       0.1       0.1       0.8      10.3
 5 O  s               0.0      16.2       6.9       2.6       5.2       0.4
 5 O  pz              0.1       1.2       0.3       0.2      15.1       1.1
 5 O  px              0.0       6.9       3.3       0.7       2.3       0.2
 5 O  py              0.0       3.7       2.5       0.5       1.0       0.1
 5 O  dz2             0.0       0.2       0.3       0.1      16.5       1.0
 5 O  dxz             0.0       8.3       3.4       1.5       0.2       0.0
 5 O  dyz             0.0       0.1       0.0       0.0      18.1       1.3
 5 O  dx2y2           0.0       1.1       0.1       0.2       1.4       0.1
 5 O  dxy             0.0       5.8       3.6       0.5       1.8       0.2
 6 H  s               0.0       0.3       0.3       0.1       0.0       0.0
 6 H  px              0.3       0.1       0.2       0.1       0.0       0.0
 6 H  py              0.0       0.3       0.4       0.0       0.0       0.0
 7 H  s               2.0       0.1       0.1       0.0       0.2       0.0
 7 H  pz              4.9       0.0       0.0       0.0       0.2       0.0
 7 H  px              0.0       0.1       0.1       0.2       0.0       0.0
 7 H  py              0.5       0.3       0.1       0.1       0.1       0.0
 8 H  s               7.0       0.0       0.3       0.4       0.0       0.0
 8 H  pz             14.5       0.1       0.5       0.6       0.0       0.0
 8 H  py              3.6       0.2       0.1       0.0       0.0       0.0
 9 H  s               2.5       0.1       0.1       0.3       0.0       0.0
 9 H  pz              5.9       0.1       0.1       0.2       0.0       0.0
 9 H  px              0.0       0.0       0.3       0.1       0.0       0.0
 9 H  py              0.8       0.1       0.1       0.1       0.0       0.0
10 H  s               0.2       0.1       0.0       0.1       0.0       0.1
10 H  pz              0.1       0.0       0.0       0.1       0.0       0.0
10 H  px              0.2       0.0       0.2       0.1       0.0       0.0
10 H  py              0.3       0.1       0.0       0.4       0.0       0.1
11 H  s               0.0       0.1       0.2       0.4       0.2       4.1
11 H  pz              0.0       0.0       0.0       0.0       0.0       0.1
11 H  px              0.1       0.0       0.1       0.0       0.0       0.1
11 H  py              0.0       0.2       0.1       0.7       0.3       4.7
12 H  s               0.1       0.0       0.2       0.3       0.7       8.7
12 H  pz              0.0       0.0       0.0       0.0       0.0       0.3
12 H  px              0.0       0.0       0.1       0.2       0.6       7.5
12 H  py              0.1       0.1       0.2       0.3       0.2       2.1
13 H  s               0.0       0.4       0.4       0.1      12.6       0.9
13 H  pz              0.0       0.6       0.5       0.1      12.0       0.8
13 H  px              0.0       0.0       0.2       0.0       0.4       0.0
13 H  py              0.0       0.1       0.0       0.0       2.7       0.1

                    162       163       164       165       166       167   
                   4.60287  22.00606  22.02977  22.09795  43.56987  43.60763
                   0.00000   0.00000   0.00000   0.00000   0.00000   0.00000
                  --------  --------  --------  --------  --------  --------
 0 C  s               0.0      89.9       9.7       0.0       0.0       0.0
 1 C  s               0.1       0.1       0.1      99.5       0.0       0.0
 1 C  py              0.3       0.0       0.0       0.0       0.0       0.0
 1 C  dx2y2           0.4       0.0       0.0       0.0       0.0       0.0
 1 C  dxy             0.1       0.0       0.0       0.0       0.0       0.0
 2 C  s               0.1       9.7      89.8       0.1       0.0       0.0
 2 C  px              0.8       0.0       0.0       0.0       0.0       0.0
 2 C  py              0.1       0.0       0.0       0.0       0.0       0.0
 2 C  dxz             0.6       0.0       0.0       0.0       0.0       0.0
 2 C  dx2y2           0.7       0.0       0.0       0.0       0.0       0.0
 3 O  s               4.5       0.0       0.1       0.0       0.0      87.9
 3 O  pz              0.8       0.0       0.0       0.0       0.0       0.0
 3 O  px              1.5       0.0       0.0       0.0       0.0       0.0
 3 O  py             11.0       0.0       0.0       0.0       0.0       0.0
 3 O  dz2             4.5       0.0       0.0       0.0       0.0       0.0
 3 O  dxz             0.3       0.0       0.0       0.0       0.0       0.0
 3 O  dyz             0.9       0.0       0.0       0.0       0.0       0.0
 3 O  dx2y2          20.5       0.0       0.0       0.0       0.0       0.0
 3 O  dxy             0.5       0.0       0.0       0.0       0.0       0.0
 4 O  s               3.2       0.0       0.0       0.1      14.3      10.2
 4 O  pz              0.1       0.0       0.0       0.0       0.0       0.0
 4 O  px              3.7       0.0       0.0       0.0       0.0       0.0
 4 O  py              2.5       0.0       0.0       0.1       0.0       0.0
 4 O  dz2             1.5       0.0       0.0       0.0       0.0       0.0
 4 O  dxz             0.6       0.0       0.0       0.0       0.0       0.0
 4 O  dyz             0.2       0.0       0.0       0.0       0.0       0.0
 4 O  dx2y2           4.9       0.0       0.0       0.0       0.0       0.0
 4 O  dxy             5.5       0.0       0.0       0.0       0.0       0.0
 5 O  s               0.1       0.1       0.0       0.0      85.6       1.8
10 H  s               0.1       0.0       0.0       0.0       0.0       0.0
10 H  py              0.2       0.0       0.0       0.0       0.0       0.0
11 H  s               9.0       0.0       0.0       0.0       0.0       0.0
11 H  pz              0.2       0.0       0.0       0.0       0.0       0.0
11 H  px              0.2       0.0       0.0       0.0       0.0       0.0
11 H  py             10.4       0.0       0.0       0.0       0.0       0.0
12 H  s               4.4       0.0       0.0       0.0       0.0       0.0
12 H  px              3.9       0.0       0.0       0.0       0.0       0.0
12 H  py              1.2       0.0       0.0       0.0       0.0       0.0

                    168   
                  43.72137
                   0.00000
                  --------
 3 O  s              12.0
 4 O  s              75.3
 5 O  s              12.5


                      *****************************
                      * MAYER POPULATION ANALYSIS *
                      *****************************

  NA   - Mulliken gross atomic population
  ZA   - Total nuclear charge
  QA   - Mulliken gross atomic charge
  VA   - Mayer's total valence
  BVA  - Mayer's bonded valence
  FA   - Mayer's free valence

  ATOM       NA         ZA         QA         VA         BVA        FA
  0 C      6.2130     6.0000    -0.2130     3.8629     3.8629     0.0000
  1 C      5.8982     6.0000     0.1018     3.5374     3.5374     0.0000
  2 C      6.2047     6.0000    -0.2047     3.9258     3.9258    -0.0000
  3 O      8.4204     8.0000    -0.4204     1.8292     1.8292    -0.0000
  4 O      8.4456     8.0000    -0.4456     1.7639     1.7639    -0.0000
  5 O      8.4336     8.0000    -0.4336     1.8565     1.8565     0.0000
  6 H      0.8684     1.0000     0.1316     0.9553     0.9553     0.0000
  7 H      0.8485     1.0000     0.1515     0.9545     0.9545     0.0000
  8 H      0.8720     1.0000     0.1280     0.9569     0.9569     0.0000
  9 H      0.8619     1.0000     0.1381     0.9512     0.9512    -0.0000
 10 H      0.8694     1.0000     0.1306     0.9569     0.9569     0.0000
 11 H      0.6823     1.0000     0.3177     0.9021     0.9021     0.0000
 12 H      0.6867     1.0000     0.3133     0.9119     0.9119    -0.0000
 13 H      0.6951     1.0000     0.3049     0.9074     0.9074     0.0000

  Mayer bond orders larger than 0.100000
B(  0-C ,  1-C ) :   0.9094 B(  0-C ,  5-O ) :   0.9667 B(  0-C ,  6-H ) :   0.9750 
B(  0-C ,  7-H ) :   0.9701 B(  1-C ,  2-C ) :   0.9398 B(  1-C ,  4-O ) :   0.8643 
B(  1-C ,  8-H ) :   0.9294 B(  2-C ,  3-O ) :   0.9686 B(  2-C ,  9-H ) :   0.9772 
B(  2-C , 10-H ) :   0.9701 B(  3-O , 11-H ) :   0.8776 B(  4-O , 12-H ) :   0.8691 
B(  5-O , 13-H ) :   0.8931 

-------
TIMINGS
-------

Total SCF time: 0 days 0 hours 0 min 18 sec 

Total time                  ....      18.711 sec
Sum of individual times     ....      18.219 sec  ( 97.4%)

SCF preparation             ....       0.203 sec  (  1.1%)
Fock matrix formation       ....      16.501 sec  ( 88.2%)
  Startup                   ....       0.061 sec  (  0.4% of F)
  Split-RI-J                ....       2.599 sec  ( 15.7% of F)
  XC integration            ....      13.254 sec  ( 80.3% of F)
    XC Preparation          ....       0.000 sec  (  0.0% of XC)
    Basis function eval.    ....       2.305 sec  ( 17.4% of XC)
    Density eval.           ....       3.774 sec  ( 28.5% of XC)
    XC-Functional eval.     ....       1.872 sec  ( 14.1% of XC)
    XC-Potential eval.      ....       4.414 sec  ( 33.3% of XC)
Diagonalization             ....       0.000 sec  (  0.0%)
Density matrix formation    ....       0.236 sec  (  1.3%)
Total Energy calculation    ....       0.038 sec  (  0.2%)
Population analysis         ....       0.101 sec  (  0.5%)
Orbital Transformation      ....       0.047 sec  (  0.3%)
Orbital Orthonormalization  ....       0.000 sec  (  0.0%)
DIIS solution               ....       1.040 sec  (  5.6%)
  MO trafo                  ....       0.000 sec  (  0.0 % of DIIS)
  Orb grad                  ....       0.000 sec  (  0.0 % of DIIS)
  Energy W gradient         ....       0.000 sec  (  0.0 % of DIIS)
  DIIS error                ....       0.008 sec  (  0.8 % of DIIS)
  DIIS work                 ....       0.986 sec  ( 94.8 % of DIIS)
  Form Q                    ....       0.000 sec  (  0.0 % of DIIS)
  Form QpQm                 ....       0.000 sec  (  0.0 % of DIIS)
  Exp/Cayley                ....       0.000 sec  (  0.0 % of DIIS)
  Orb update                ....       0.000 sec  (  0.0 % of DIIS)
  Wake-sleep                ....       0.021 sec  (  2.1 % of DIIS)
SOSCF solution              ....       0.053 sec  (  0.3%)
  MO trafo                  ....       0.041 sec  ( 78.5 % of SOSCF)
  Orb grad                  ....       0.003 sec  (  4.8 % of SOSCF)
  Rot update                ....       0.000 sec  (  0.1 % of SOSCF)
  Step                      ....       0.009 sec  ( 16.6 % of SOSCF)
Finished LeanSCF after  18.8 sec

Maximum memory used throughout the entire LEANSCF-calculation: 17.2 MB


-------------------------------------------------------------------------------
                          DFT DISPERSION CORRECTION                            
                                                                               
                                DFTD4 V3.4.0                                   
-------------------------------------------------------------------------------
The R2SCAN3C composite method is recognized
Using three-body term ABC
Active option DFTDOPT                   ...         5   

-------------------------   ----------------
Dispersion correction           -0.002981060
-------------------------   ----------------

------------------   -----------------
gCP correction             0.010640253
------------------   -----------------

-------------------------   --------------------
FINAL SINGLE POINT ENERGY      -344.726502705993
-------------------------   --------------------


------------------------------------------------------------------------------
                              ORCA PROPERTY CALCULATIONS
------------------------------------------------------------------------------

GBWName                                 ... sp_gas.gbw
Number of atoms                         ...     14
Number of basis functions               ...    169
Max core memory                         ...   1024 MB

Electric properties:
Dipole moment                           ... YES
Quadrupole moment                       ...  NO
Static polarizability (Dipole/Dipole)   ...  NO
Static polarizability (Dipole/Quad.)    ...  NO
Static polarizability (Quad./Quad.)     ...  NO
Static polarizability (Velocity)        ...  NO

Atomic electric properties:
Dipole moment                           ...  NO
Quadrupole moment                       ...  NO
Static polarizability                   ...  NO

Choice of electric origin               ... Center of mass
Position of electric origin             ...    -0.000005    -0.000018    -0.000010

General magnetic properties:
Magnetizability                         ...  NO

EPR properties:
g-Tensor (aka g-matrix)                 ...  NO
Zero-Field splitting spin-orbit         ...  NO
Zero-field splitting spin-spin          ...  NO
Hyperfine couplings                     ...  NO (   0 nuclei)
Quadrupole couplings                    ...  NO (   0 nuclei)
Contact density                         ...  NO (   0 nuclei)

NMR properties:
Chemical shifts                         ...  NO (   0 nuclei)
Spin-rotation constants                 ...  NO (   0 nuclei)
Spin-spin couplings                     ...  NO (   0 nuclei,    0 pairs)

Choice of magnetic origin               ... GIAO
Position of magnetic origin             ...     0.000000     0.000000     0.000000

Properties with geometric perturbations:
SCF Hessian                             ...  NO
IR spectrum                             ...  NO
VCD spectrum                            ...  NO
X-ray spectroscopy properties:
SCF XES/XAS/RIXS spectra                ...  NO


-------------
DIPOLE MOMENT
-------------

Method             : SCF
Type of density    : Electron Density
Multiplicity       :   1
Irrep              :   0
Energy             :  -344.7341618980488533 Eh
Relativity type    : 
Basis              : AO
                                X                 Y                 Z
Electronic contribution:      0.508727552       1.656816886       1.080078195
Nuclear contribution   :     -1.234644956      -1.910599068      -0.908629100
                        -----------------------------------------
Total Dipole Moment    :     -0.725917405      -0.253782182       0.171449095
                        -----------------------------------------
Magnitude (a.u.)       :      0.787880871
Magnitude (Debye)      :      2.002634021



--------------------
Rotational spectrum 
--------------------
 
Rotational constants in cm-1:             0.267671             0.065088             0.056431 
Rotational constants in MHz :          8024.586838          1951.281959          1691.772110 

Dipole components along the rotational axes: 
x,y,z [a.u.] :    -0.683155    -0.299649     0.253507 
x,y,z [Debye]:    -1.736442    -0.761647     0.644364 

 

Dipole moment calculation done in   0.0 sec 

Maximum memory used throughout the entire PROP-calculation: 9.8 MB

--------------------------------
SUGGESTED CITATIONS FOR THIS RUN
--------------------------------

Below you find a list of papers that are relevant to this ORCA run
We neither can nor want to force you to cite these papers, but we appreciate if you do
You receive ORCA, which is the product of decades of hard work by many enthusiastic individuals, for free
The only thing we kindly ask in return is that you cite our papers,
We deeply appreciate it, if you show your appreciation for ORCA by not just citing the generic ORCA reference.

Please note that relegating all ORCA citations to the supporting information does *not* help us.
SI sections are not indexed - citations you put there will not count into any citation statistics
But we need these citations in order to attract the funding resources that allow us to do what we are doing

Therefore, if you are a happy ORCA user, please consider citing a few of the papers listed below in the main body of your paper

In addition to the list printed below, the program has created the file sp_gas.bibtex that contains the list in bibtex format
You can import this file easily into all common literature databanks and citation aid programs


List of essential papers. We consider these as the minimum necessary citations

  1. Neese,F.
     Software update: the ORCA program system, version 5.0
     WIRES Comput. Molec. Sci., 2022 12(1)e1606
     doi.org/10.1002/wcms.1606
  2. Grimme,S.; Hansen,A.; Ehlert,S.; Mewes,J.
     r2SCAN-3c: A 'Swiss army knife' composite electronic-structure method
     J. Chem. Phys., 2021 154 064103
     doi.org/10.1063/5.0040021

List of papers to cite with high priority. The work reported in these papers was absolutely
necessary for this run to complete.
Our perspective: the developers of density functionals and basis sets usually get cited in chemistry papers
Good! But without the algorithms to do something with them, the functionals or basis sets would not do anything.
Hence, in our opinion, the algorithm design and method developments papers are equally worthy of getting cited

  1. Neese,F.
     An improvement of the resolution of the identity approximation for the formation of the Coulomb matrix
     J. Comp. Chem., 2003 24(14)1740-1747
     doi.org/10.1002/jcc.10318
  2. Neese,F.
     The SHARK Integral Generation and Digestion System
     J. Comp. Chem., 2022  1-16
     doi.org/10.1002/jcc.26942
  3. Lehtola,S.; Steigemann,C.; Oliveira,M.; Marques,M.
     Recent developments in Libxc - A comprehensive library of functionals for density functional theory
     Software X, 2018 7 
     doi.org/10.1016/j.softx.2017.11.002
  4. Caldeweyher,E.; Bannwarth,C.; Grimme,S.
     Extension of the D3 dispersion coefficient model
     J. Chem. Phys., 2017 147 034112-XXXX
     doi.org/10.1063/1.4993215
  5. Caldeweyher,E.; Ehlert,S.; Hansen,A.; Neugebauer,H.; Spicher,S.; Bannwarth,C.; Grimme,S.
     A generally applicable atomic-charge dependent London dispersion correction
     J. Chem. Phys., 2019 150 154122-XXXX
     doi.org/10.1063/1.5090222
  6. Caldeweyher,E.; Mewes,J.; Ehlert,S.; Grimme,S.
     Extension and evaluation of the D4 London-dispersion model for periodic systems
     Phys. Chem. Chem. Phys., 2020 22(16)8499-8512
     doi.org/10.1039/D0CP00502A

List of suggested additional citations. These are papers that are important in the 'surrounding' of 
of this run, or papers that preceded the highly important papers. If you like your results we are grateful for a citation.

  1. Neese,F.
     The ORCA program system
     WIRES Comput. Molec. Sci., 2012 2(1)73-78
     doi.org/10.1002/wcms.81
  2. Neese,F.
     Software update: the ORCA program system, version 4.0
     WIRES Comput. Molec. Sci., 2018 8(1)1-6
     doi.org/10.1002/wcms.1327
  3. Neese,F.; Wennmohs,F.; Becker,U.; Riplinger,C.
     The ORCA quantum chemistry program package
     J. Chem. Phys., 2020 152 Art. No. L224108
     doi.org/10.1063/5.0004608

List of optional additional citations

  1. Neese,F.
     Approximate second-order SCF convergence for spin unrestricted wavefunctions
     Chem. Phys. Lett., 2000 325(1-3)93-98
     doi.org/10.1016/s0009-2614(00)00662-x

Timings for individual modules:

Sum of individual times          ...       20.053 sec (=   0.334 min)
Startup calculation              ...        0.882 sec (=   0.015 min)   4.4 %
SCF iterations                   ...       19.069 sec (=   0.318 min)  95.1 %
Property calculations            ...        0.103 sec (=   0.002 min)   0.5 %
                             ****ORCA TERMINATED NORMALLY****
TOTAL RUN TIME: 0 days 0 hours 0 minutes 20 seconds 794 msec
