      -----------------------------------------------------------      
     |                   =====================                   |     
     |                           x T B                           |     
     |                   =====================                   |     
     |                         S. Grimme                         |     
     |          Mulliken Center for Theoretical Chemistry        |     
     |                    University of Bonn                     |     
      -----------------------------------------------------------      

   * xtb version 6.7.1 (edcfbbe) compiled by 'albert@albert-system' on 2024-07-22

   xtb is free software: you can redistribute it and/or modify it under
   the terms of the GNU Lesser General Public License as published by
   the Free Software Foundation, either version 3 of the License, or
   (at your option) any later version.
   
   xtb is distributed in the hope that it will be useful,
   but WITHOUT ANY WARRANTY; without even the implied warranty of
   MERCHANTABILITY or FITNESS FOR A PARTICULAR PURPOSE.  See the
   GNU Lesser General Public License for more details.
   
   Cite this work as:
   * C. Bannwarth, E. Caldeweyher, S. Ehlert, A. Hansen, P. Pracht,
     J. Seibert, S. Spicher, S. Grimme, WIREs Comput. Mol. Sci., 2020, 11,
     e01493. DOI: 10.1002/wcms.1493
   
   for GFN2-xTB:
   * C. Bannwarth, S. Ehlert and S. Grimme., J. Chem. Theory Comput., 2019,
     15, 1652-1671. DOI: 10.1021/acs.jctc.8b01176
   for GFN1-xTB:
   * S. Grimme, C. Bannwarth, P. Shushkov, J. Chem. Theory Comput., 2017,
     13, 1989-2009. DOI: 10.1021/acs.jctc.7b00118
   for GFN0-xTB:
   * P. Pracht, E. Caldeweyher, S. Ehlert, S. Grimme, ChemRxiv, 2019, preprint.
     DOI: 10.26434/chemrxiv.8326202.v1
   for GFN-FF:
   * S. Spicher and S. Grimme, Angew. Chem. Int. Ed., 2020, 59, 15665-15673.
     DOI: 10.1002/anie.202004239
   
   for ALPB and GBSA implicit solvation:
   * S. Ehlert, M. Stahn, S. Spicher, S. Grimme, J. Chem. Theory Comput.,
     2021, 17, 4250-4261. DOI: 10.1021/acs.jctc.1c00471
   
   for ddCOSMO and CPCM-X implicit solvation:
   * M. Stahn, S. Ehlert, S. Grimme, J. Phys. Chem. A,
     2023, XX, XXXX-XXXX. DOI: 10.1021/acs.jpca.3c04382
   
   for DFT-D4:
   * E. Caldeweyher, C. Bannwarth and S. Grimme, J. Chem. Phys., 2017,
     147, 034112. DOI: 10.1063/1.4993215
   * E. Caldeweyher, S. Ehlert, A. Hansen, H. Neugebauer, S. Spicher,
     C. Bannwarth and S. Grimme, J. Chem. Phys., 2019, 150, 154122.
     DOI: 10.1063/1.5090222
   * E. Caldeweyher, J.-M. Mewes, S. Ehlert and S. Grimme, Phys. Chem. Chem. Phys.
     2020, 22, 8499-8512. DOI: 10.1039/D0CP00502A
   
   for sTDA-xTB:
   * S. Grimme and C. Bannwarth, J. Chem. Phys., 2016, 145, 054103.
     DOI: 10.1063/1.4959605
   
   in the mass-spec context:
   * V. Asgeirsson, C. Bauer and S. Grimme, Chem. Sci., 2017, 8, 4879.
     DOI: 10.1039/c7sc00601b
   * J. Koopman and S. Grimme, ACS Omega 2019, 4, 12, 15120-15133.
     DOI: 10.1021/acsomega.9b02011
   
   for metadynamics refer to:
   * S. Grimme, J. Chem. Theory Comput., 2019, 155, 2847-2862
     DOI: 10.1021/acs.jctc.9b00143
   
   for SPH calculations refer to:
   * S. Spicher and S. Grimme, J. Chem. Theory Comput., 2021, 17, 1701-1714
     DOI: 10.1021/acs.jctc.0c01306
   
   for ONIOM refer to:
   * C. Plett, A. Katbashev, S. Ehlert, S. Grimme, M. Bursch,
     Phys. Chem. Chem. Phys., 2023, 25, 17860-17868. DOI: 10.1039/D3CP02178E
   
   for DIPRO refer to:
   * J. Kohn, N. Gildemeister, S. Grimme, D. Fazzi, A. Hansen,
     J. Chem. Phys., 2023, just accepted.
   
   for PTB refer to:
   * S. Grimme, M. Mueller, A. Hansen, J. Chem. Phys., 2023, 158, 124111.
     DOI: 10.1063/5.0137838
   
   with help from (in alphabetical order)
   P. Atkinson, C. Bannwarth, F. Bohle, G. Brandenburg, E. Caldeweyher
   M. Checinski, S. Dohm, S. Ehlert, S. Ehrlich, I. Gerasimov, C. Hölzer
   A. Katbashev, J. Kohn, J. Koopman, C. Lavigne, S. Lehtola, F. März, M. Müller,
   F. Musil, H. Neugebauer, J. Pisarek, C. Plett, P. Pracht, F. Pultar,
   J. Seibert, P. Shushkov, S. Spicher, M. Stahn, M. Steiner, T. Strunk,
   J. Stückrath, T. Rose, and J. Unsleber
   
 * started run on 2025/04/11 at 11:41:13.318     
   ID    Z sym.   atoms
    1    6 C      1-3
    2    8 O      4-6
    3    1 H      7-14

           -------------------------------------------------
          |                Calculation Setup                |
           -------------------------------------------------

          program call               : /srv/scratch/z5358697/.xtb/bin/xtb xtb_rrho.coord --gfn2 --ohess vtight --chrg 0 --enso --norestart -I rrho-xcontrol-inp --parallel 1 --alpb water
          hostname                   : k022
          coordinate file            : xtb_rrho.coord
          omp threads                :                     1


           -------------------------------------------------
          |                 G F N 2 - x T B                 |
           -------------------------------------------------

        Reference                      10.1021/acs.jctc.8b01176
      * Hamiltonian:
        H0-scaling (s, p, d)           1.850000    2.230000    2.230000
        zeta-weighting                 0.500000
      * Dispersion:
        s8                             2.700000
        a1                             0.520000
        a2                             5.000000
        s9                             5.000000
      * Repulsion:
        kExp                           1.500000    1.000000
        rExp                           1.000000
      * Coulomb:
        alpha                          2.000000
        third order                    shell-resolved
        anisotropic                    true
        a3                             3.000000
        a5                             4.000000
        cn-shift                       1.200000
        cn-exp                         4.000000
        max-rad                        5.000000

      * Solvation model:               ALPB
        Solvent                        water
        Parameter file                 internal GFN2-xTB/ALPB
        Dielectric constant                8.0200E+01
        Reference state                gsolv [1 M gas/solution]
        Free energy shift                  1.0808E-03 Eh       6.7819E-01 kcal/mol
        Temperature                        2.9815E+02 K
        Density                            1.0000E+00 kg/L
        Solvent mass                       1.8000E+01 g/mol
        Interaction kernel             P16
        Born radius scaling (c1)           1.4744E+00
        Born radii integrator          GBOBC
        Born offset                        0.0000E+00 a0       0.0000E+00 AA
        H-bond correction              true
        Ion screening                  false
        Surface tension                    1.0000E-05 Eh       1.5569E+01 dyn/cm
        Grid points                               974 per atom

          ...................................................
          :                      SETUP                      :
          :.................................................:
          :  # basis functions                  32          :
          :  # atomic orbitals                  32          :
          :  # shells                           20          :
          :  # electrons                        38          :
          :  max. iterations                   250          :
          :  Hamiltonian                  GFN2-xTB          :
          :  restarted?                      false          :
          :  GBSA solvation                   true          :
          :  PC potential                    false          :
          :  electronic temp.          300.0000000     K    :
          :  accuracy                    1.0000000          :
          :  -> integral cutoff          0.2500000E+02      :
          :  -> integral neglect         0.1000000E-07      :
          :  -> SCF convergence          0.1000000E-05 Eh   :
          :  -> wf. convergence          0.1000000E-03 e    :
          :  Broyden damping             0.4000000          :
          :  net charge                          0          :
          :  unpaired electrons                  0          :
          ...................................................

 iter      E             dE          RMSdq      gap      omega  full diag
   1    -22.8297414 -0.228297E+02  0.481E+00   11.20       0.0  T
   2    -22.8602501 -0.305088E-01  0.247E+00   10.94       1.0  T
   3    -22.8618650 -0.161489E-02  0.680E-01   10.91       1.0  T
   4    -22.8619722 -0.107181E-03  0.191E-01   10.92       1.0  T
   5    -22.8620091 -0.368963E-04  0.462E-02   10.94       1.0  T
   6    -22.8620133 -0.416818E-05  0.253E-02   10.94       1.1  T
   7    -22.8620142 -0.944605E-06  0.536E-03   10.93       5.0  T
   8    -22.8620143 -0.695893E-07  0.246E-03   10.93      10.9  T
   9    -22.8620143 -0.112746E-07  0.632E-04   10.93      42.3  T
  10    -22.8620143 -0.705949E-09  0.251E-04   10.93     106.4  T

   *** convergence criteria satisfied after 10 iterations ***

         #    Occupation            Energy/Eh            Energy/eV
      -------------------------------------------------------------
         1        2.0000           -0.6996041             -19.0372
       ...           ...                  ...                  ...
        13        2.0000           -0.5097374             -13.8707
        14        2.0000           -0.4878932             -13.2763
        15        2.0000           -0.4669398             -12.7061
        16        2.0000           -0.4548179             -12.3762
        17        2.0000           -0.4396087             -11.9624
        18        2.0000           -0.4174530             -11.3595
        19        2.0000           -0.4122019             -11.2166 (HOMO)
        20                         -0.0103847              -0.2826 (LUMO)
        21                          0.0271891               0.7399
        22                          0.0380574               1.0356
        23                          0.1014290               2.7600
        24                          0.1256805               3.4199
       ...                                ...                  ...
        32                          0.2647046               7.2030
      -------------------------------------------------------------
                  HL-Gap            0.4018172 Eh           10.9340 eV
             Fermi-level           -0.2112933 Eh           -5.7496 eV

 SCC (total)                   0 d,  0 h,  0 min,  0.015 sec
 SCC setup                      ...        0 min,  0.001 sec (  6.153%)
 Dispersion                     ...        0 min,  0.000 sec (  0.442%)
 classical contributions        ...        0 min,  0.000 sec (  0.110%)
 integral evaluation            ...        0 min,  0.001 sec (  6.920%)
 iterations                     ...        0 min,  0.010 sec ( 66.082%)
 molecular gradient             ...        0 min,  0.003 sec ( 19.162%)
 printout                       ...        0 min,  0.000 sec (  1.033%)

         :::::::::::::::::::::::::::::::::::::::::::::::::::::
         ::                     SUMMARY                     ::
         :::::::::::::::::::::::::::::::::::::::::::::::::::::
         :: total energy             -22.689777269979 Eh    ::
         :: total w/o Gsasa/hb       -22.678665392333 Eh    ::
         :: gradient norm              0.042263055183 Eh/a0 ::
         :: HOMO-LUMO gap             10.934001517099 eV    ::
         ::.................................................::
         :: SCC energy               -22.862004302975 Eh    ::
         :: -> isotropic ES            0.098846129302 Eh    ::
         :: -> anisotropic ES          0.002829664273 Eh    ::
         :: -> anisotropic XC         -0.001209167271 Eh    ::
         :: -> dispersion             -0.006877996225 Eh    ::
         :: -> Gsolv                  -0.025995980015 Eh    ::
         ::    -> Gelec               -0.014884102369 Eh    ::
         ::    -> Gsasa                0.003396734056 Eh    ::
         ::    -> Ghb                 -0.015589371400 Eh    ::
         ::    -> Gshift               0.001080759698 Eh    ::
         :: repulsion energy           0.172227032996 Eh    ::
         :: add. restraining           0.000000000000 Eh    ::
         :: total charge              -0.000000000000 e     ::
         :::::::::::::::::::::::::::::::::::::::::::::::::::::

      ----------------------------------------------------------- 
     |                   =====================                   |
     |                        A N C O P T                        |
     |                   =====================                   |
     |               Approximate Normal Coordinate               |
     |                Rational Function Optimizer                |
      ----------------------------------------------------------- 
      ----------------------------------------------------------- 
     |                   =====================                   |
     |                        A N C O P T                        |
     |                   =====================                   |
     |               Approximate Normal Coordinate               |
     |                Rational Function Optimizer                |
      ----------------------------------------------------------- 

          ...................................................
          :                      SETUP                      :
          :.................................................:
          :   optimization level         verytight          :
          :   max. optcycles                   280          :
          :   ANC micro-cycles                  20          :
          :   degrees of freedom                36          :
          :.................................................:
          :   RF solver                   davidson          :
          :   write xtbopt.log                true          :
          :   linear?                        false          :
          :   energy convergence         0.1000000E-06 Eh   :
          :   grad. convergence          0.2000000E-03 Eh/α :
          :   maxmium RF displ.          1.0000000          :
          :   Hlow (freq-cutoff)         0.1000000E-01      :
          :   Hmax (freq-cutoff)         5.0000000          :
          :   S6 in model hess.         20.0000000          :
          ...................................................

generating ANC from exact Hessian ...
Using Lindh-Hessian (1995)
 Shifting diagonal of input Hessian by   4.748118488551369E-003
 Lowest  eigenvalues of input Hessian
    0.000000    0.000000    0.000000    0.000000    0.000000    0.000000
    0.010000    0.010591    0.013021    0.018564    0.023042    0.030215
    0.032808    0.051249    0.055922    0.059827    0.064369    0.073087
 Highest eigenvalues
    1.206504    1.249370    1.302251    1.413116    1.420072    1.450895
 

........................................................................
.............................. CYCLE    1 ..............................
........................................................................

 iter      E             dE          RMSdq      gap      omega  full diag
   1    -22.8620143 -0.228620E+02  0.121E-04   10.93       0.0  T
   2    -22.8620143 -0.382876E-10  0.629E-05   10.93     424.6  T
   3    -22.8620143 -0.451550E-11  0.313E-05   10.93     853.6  T
     SCC iter.                  ...        0 min,  0.001 sec
     gradient                   ...        0 min,  0.003 sec
 * total energy  :   -22.6897773 Eh     change       -0.1716636E-09 Eh
   gradient norm :     0.0422629 Eh/α   predicted     0.0000000E+00 (-100.00%)
   displ. norm   :     0.1448887 α      lambda       -0.2340037E-02
   maximum displ.:     0.0713843 α      in ANC's #1, #4, #5, ...

........................................................................
.............................. CYCLE    2 ..............................
........................................................................

 iter      E             dE          RMSdq      gap      omega  full diag
   1    -22.8650704 -0.228651E+02  0.124E-01   11.26       0.0  T
   2    -22.8650745 -0.415669E-05  0.751E-02   11.26       1.0  T
   3    -22.8650757 -0.112599E-05  0.947E-03   11.26       2.8  T
   4    -22.8650761 -0.423057E-06  0.469E-03   11.26       5.7  T
   5    -22.8650761 -0.416613E-07  0.195E-03   11.26      13.7  T
   6    -22.8650761 -0.584535E-08  0.573E-04   11.26      46.6  T
   7    -22.8650761 -0.724494E-09  0.206E-04   11.26     130.0  T
     SCC iter.                  ...        0 min,  0.002 sec
     gradient                   ...        0 min,  0.003 sec
 * total energy  :   -22.6914545 Eh     change       -0.1677232E-02 Eh
   gradient norm :     0.0210549 Eh/α   predicted    -0.1194580E-02 ( -28.78%)
   displ. norm   :     0.1853402 α      lambda       -0.1204804E-02
   maximum displ.:     0.1114065 α      in ANC's #1, #6, #4, ...

........................................................................
.............................. CYCLE    3 ..............................
........................................................................

 iter      E             dE          RMSdq      gap      omega  full diag
   1    -22.8657604 -0.228658E+02  0.112E-01   11.54       0.0  T
   2    -22.8657644 -0.401893E-05  0.686E-02   11.54       1.0  T
   3    -22.8657653 -0.903496E-06  0.106E-02   11.55       2.5  T
   4    -22.8657659 -0.588936E-06  0.458E-03   11.55       5.8  T
   5    -22.8657660 -0.382262E-07  0.193E-03   11.55      13.8  T
   6    -22.8657660 -0.527081E-08  0.509E-04   11.54      52.5  T
   7    -22.8657660 -0.594337E-09  0.185E-04   11.54     144.4  T
     SCC iter.                  ...        0 min,  0.002 sec
     gradient                   ...        0 min,  0.003 sec
 * total energy  :   -22.6921462 Eh     change       -0.6917126E-03 Eh
   gradient norm :     0.0074612 Eh/α   predicted    -0.6231001E-03 (  -9.92%)
   displ. norm   :     0.0852498 α      lambda       -0.1603950E-03
   maximum displ.:     0.0624433 α      in ANC's #1, #6, #8, ...

........................................................................
.............................. CYCLE    4 ..............................
........................................................................

 iter      E             dE          RMSdq      gap      omega  full diag
   1    -22.8656772 -0.228657E+02  0.488E-02   11.58       0.0  T
   2    -22.8656773 -0.145275E-06  0.295E-02   11.58       1.0  T
   3    -22.8656774 -0.588127E-07  0.187E-03   11.58      14.3  T
   4    -22.8656774 -0.123706E-07  0.103E-03   11.58      26.0  T
   5    -22.8656774 -0.831466E-09  0.228E-04   11.58     117.0  T
   6    -22.8656774 -0.910525E-10  0.851E-05   11.58     314.1  T
     SCC iter.                  ...        0 min,  0.002 sec
     gradient                   ...        0 min,  0.003 sec
 * total energy  :   -22.6922662 Eh     change       -0.1199748E-03 Eh
   gradient norm :     0.0065261 Eh/α   predicted    -0.8077889E-04 ( -32.67%)
   displ. norm   :     0.1024591 α      lambda       -0.1338077E-03
   maximum displ.:     0.0766031 α      in ANC's #1, #6, #8, ...

........................................................................
.............................. CYCLE    5 ..............................
........................................................................

 iter      E             dE          RMSdq      gap      omega  full diag
   1    -22.8657846 -0.228658E+02  0.563E-02   11.60       0.0  T
   2    -22.8657848 -0.220261E-06  0.341E-02   11.60       1.0  T
   3    -22.8657849 -0.950270E-07  0.198E-03   11.60      13.5  T
   4    -22.8657849 -0.488341E-08  0.101E-03   11.60      26.6  T
   5    -22.8657849 -0.813305E-09  0.266E-04   11.60     100.3  T
   6    -22.8657849 -0.912230E-10  0.979E-05   11.60     273.1  T
     SCC iter.                  ...        0 min,  0.002 sec
     gradient                   ...        0 min,  0.003 sec
 * total energy  :   -22.6923543 Eh     change       -0.8813779E-04 Eh
   gradient norm :     0.0038580 Eh/α   predicted    -0.6760479E-04 ( -23.30%)
   displ. norm   :     0.0715437 α      lambda       -0.5028917E-04
   maximum displ.:     0.0503358 α      in ANC's #1, #6, #8, ...

........................................................................
.............................. CYCLE    6 ..............................
........................................................................

 iter      E             dE          RMSdq      gap      omega  full diag
   1    -22.8659251 -0.228659E+02  0.371E-02   11.60       0.0  T
   2    -22.8659252 -0.129991E-06  0.226E-02   11.60       1.2  T
   3    -22.8659253 -0.509294E-07  0.154E-03   11.60      17.4  T
   4    -22.8659253 -0.698687E-08  0.844E-04   11.60      31.7  T
   5    -22.8659253 -0.572129E-09  0.213E-04   11.60     125.3  T
     SCC iter.                  ...        0 min,  0.001 sec
     gradient                   ...        0 min,  0.003 sec
 * total energy  :   -22.6923901 Eh     change       -0.3578928E-04 Eh
   gradient norm :     0.0027415 Eh/α   predicted    -0.2527220E-04 ( -29.39%)
   displ. norm   :     0.0529804 α      lambda       -0.3016308E-04
   maximum displ.:     0.0285730 α      in ANC's #1, #6, #2, ...

........................................................................
.............................. CYCLE    7 ..............................
........................................................................

 iter      E             dE          RMSdq      gap      omega  full diag
   1    -22.8664197 -0.228664E+02  0.296E-02   11.59       0.0  T
   2    -22.8664198 -0.101996E-06  0.180E-02   11.59       1.5  T
   3    -22.8664198 -0.333531E-07  0.141E-03   11.59      18.9  T
   4    -22.8664199 -0.652584E-08  0.730E-04   11.59      36.6  T
   5    -22.8664199 -0.571440E-09  0.231E-04   11.59     115.5  T
     SCC iter.                  ...        0 min,  0.001 sec
     gradient                   ...        0 min,  0.003 sec
 * total energy  :   -22.6924091 Eh     change       -0.1901157E-04 Eh
   gradient norm :     0.0009639 Eh/α   predicted    -0.1512229E-04 ( -20.46%)
   displ. norm   :     0.0419148 α      lambda       -0.7764477E-05
   maximum displ.:     0.0282580 α      in ANC's #2, #6, #3, ...

........................................................................
.............................. CYCLE    8 ..............................
........................................................................

 iter      E             dE          RMSdq      gap      omega  full diag
   1    -22.8666578 -0.228667E+02  0.224E-02   11.58       0.0  T
   2    -22.8666579 -0.534676E-07  0.136E-02   11.58       2.0  T
   3    -22.8666579 -0.172674E-07  0.997E-04   11.58      26.8  T
   4    -22.8666579 -0.201222E-08  0.488E-04   11.58      54.8  T
     SCC iter.                  ...        0 min,  0.001 sec
     gradient                   ...        0 min,  0.003 sec
 * total energy  :   -22.6924158 Eh     change       -0.6669205E-05 Eh
   gradient norm :     0.0012466 Eh/α   predicted    -0.3886768E-05 ( -41.72%)
   displ. norm   :     0.0354049 α      lambda       -0.4995767E-05
   maximum displ.:     0.0244004 α      in ANC's #2, #1, #3, ...

........................................................................
.............................. CYCLE    9 ..............................
........................................................................

 iter      E             dE          RMSdq      gap      omega  full diag
   1    -22.8668501 -0.228669E+02  0.161E-02   11.57       0.0  T
   2    -22.8668502 -0.196611E-07  0.969E-03   11.57       2.8  T
   3    -22.8668502 -0.838960E-08  0.656E-04   11.57      40.7  T
   4    -22.8668502 -0.804121E-09  0.307E-04   11.57      87.0  T
     SCC iter.                  ...        0 min,  0.001 sec
     gradient                   ...        0 min,  0.003 sec
 * total energy  :   -22.6924212 Eh     change       -0.5371014E-05 Eh
   gradient norm :     0.0011947 Eh/α   predicted    -0.2498177E-05 ( -53.49%)
   displ. norm   :     0.0666603 α      lambda       -0.8488079E-05
   maximum displ.:     0.0471935 α      in ANC's #2, #1, #3, ...

........................................................................
.............................. CYCLE   10 ..............................
........................................................................

 iter      E             dE          RMSdq      gap      omega  full diag
   1    -22.8664647 -0.228665E+02  0.312E-02   11.56       0.0  T
   2    -22.8664648 -0.662059E-07  0.189E-02   11.56       1.4  T
   3    -22.8664648 -0.337648E-07  0.118E-03   11.55      22.7  T
   4    -22.8664648 -0.207746E-08  0.652E-04   11.55      41.0  T
   5    -22.8664648 -0.570967E-09  0.217E-04   11.55     122.9  T
     SCC iter.                  ...        0 min,  0.001 sec
     gradient                   ...        0 min,  0.003 sec
 * total energy  :   -22.6924301 Eh     change       -0.8921251E-05 Eh
   gradient norm :     0.0009059 Eh/α   predicted    -0.4253631E-05 ( -52.32%)
   displ. norm   :     0.0637380 α      lambda       -0.5651839E-05
   maximum displ.:     0.0488877 α      in ANC's #2, #1, #4, ...

........................................................................
.............................. CYCLE   11 ..............................
........................................................................

 iter      E             dE          RMSdq      gap      omega  full diag
   1    -22.8663605 -0.228664E+02  0.299E-02   11.55       0.0  T
   2    -22.8663605 -0.566940E-07  0.181E-02   11.55       1.5  T
   3    -22.8663606 -0.310935E-07  0.109E-03   11.55      24.5  T
   4    -22.8663606 -0.161293E-08  0.579E-04   11.55      46.2  T
   5    -22.8663606 -0.469701E-09  0.203E-04   11.55     131.8  T
     SCC iter.                  ...        0 min,  0.001 sec
     gradient                   ...        0 min,  0.003 sec
 * total energy  :   -22.6924359 Eh     change       -0.5772304E-05 Eh
   gradient norm :     0.0006638 Eh/α   predicted    -0.2832768E-05 ( -50.92%)
   displ. norm   :     0.0370248 α      lambda       -0.1909733E-05
   maximum displ.:     0.0294270 α      in ANC's #2, #1, #6, ...

........................................................................
.............................. CYCLE   12 ..............................
........................................................................

 iter      E             dE          RMSdq      gap      omega  full diag
   1    -22.8663601 -0.228664E+02  0.175E-02   11.55       0.0  T
   2    -22.8663601 -0.270430E-07  0.106E-02   11.55       2.5  T
   3    -22.8663601 -0.117674E-07  0.717E-04   11.55      37.3  T
   4    -22.8663601 -0.774730E-09  0.379E-04   11.55      70.5  T
     SCC iter.                  ...        0 min,  0.001 sec
     gradient                   ...        0 min,  0.003 sec
 * total energy  :   -22.6924377 Eh     change       -0.1863709E-05 Eh
   gradient norm :     0.0004422 Eh/α   predicted    -0.9568404E-06 ( -48.66%)
   displ. norm   :     0.0169974 α      lambda       -0.6441487E-06
   maximum displ.:     0.0140551 α      in ANC's #2, #4, #1, ...

........................................................................
.............................. CYCLE   13 ..............................
........................................................................

 iter      E             dE          RMSdq      gap      omega  full diag
   1    -22.8664363 -0.228664E+02  0.801E-03   11.55       0.0  T
   2    -22.8664363 -0.493829E-08  0.485E-03   11.55       5.5  T
   3    -22.8664363 -0.222983E-08  0.317E-04   11.55      84.2  T
   4    -22.8664363 -0.132246E-09  0.138E-04   11.55     193.7  T
     SCC iter.                  ...        0 min,  0.001 sec
     gradient                   ...        0 min,  0.003 sec
 * total energy  :   -22.6924384 Eh     change       -0.6926121E-06 Eh
   gradient norm :     0.0003343 Eh/α   predicted    -0.3208236E-06 ( -53.68%)
   displ. norm   :     0.0174964 α      lambda       -0.5161397E-06
   maximum displ.:     0.0138491 α      in ANC's #2, #4, #3, ...

........................................................................
.............................. CYCLE   14 ..............................
........................................................................

 iter      E             dE          RMSdq      gap      omega  full diag
   1    -22.8664621 -0.228665E+02  0.796E-03   11.54       0.0  T
   2    -22.8664621 -0.633494E-08  0.483E-03   11.54       5.5  T
   3    -22.8664621 -0.250719E-08  0.348E-04   11.54      76.7  T
   4    -22.8664621 -0.169560E-09  0.177E-04   11.54     150.8  T
     SCC iter.                  ...        0 min,  0.001 sec
     gradient                   ...        0 min,  0.003 sec
 * total energy  :   -22.6924389 Eh     change       -0.4959059E-06 Eh
   gradient norm :     0.0002075 Eh/α   predicted    -0.2577713E-06 ( -48.02%)
   displ. norm   :     0.0072104 α      lambda       -0.2201250E-06
   maximum displ.:     0.0038086 α      in ANC's #2, #3, #4, ...

........................................................................
.............................. CYCLE   15 ..............................
........................................................................

 iter      E             dE          RMSdq      gap      omega  full diag
   1    -22.8664721 -0.228665E+02  0.357E-03   11.54       0.0  T
   2    -22.8664721 -0.110410E-08  0.217E-03   11.54      12.3  T
   3    -22.8664721 -0.506795E-09  0.151E-04   11.54     176.6  T
   4    -22.8664721 -0.261373E-10  0.798E-05   11.54     334.9  T
     SCC iter.                  ...        0 min,  0.001 sec
     gradient                   ...        0 min,  0.003 sec
 * total energy  :   -22.6924391 Eh     change       -0.2083864E-06 Eh
   gradient norm :     0.0001403 Eh/α   predicted    -0.1094377E-06 ( -47.48%)
   displ. norm   :     0.0046756 α      lambda       -0.8554802E-07
   maximum displ.:     0.0028373 α      in ANC's #1, #6, #3, ...

........................................................................
.............................. CYCLE   16 ..............................
........................................................................

 iter      E             dE          RMSdq      gap      omega  full diag
   1    -22.8664649 -0.228665E+02  0.247E-03   11.54       0.0  T
   2    -22.8664649 -0.451621E-09  0.150E-03   11.54      17.8  T
   3    -22.8664649 -0.194188E-09  0.883E-05   11.54     302.7  T
   4    -22.8664649 -0.954969E-11  0.301E-05   11.54     887.8  T
     SCC iter.                  ...        0 min,  0.001 sec
     gradient                   ...        0 min,  0.003 sec
 * total energy  :   -22.6924392 Eh     change       -0.7746894E-07 Eh
   gradient norm :     0.0000980 Eh/α   predicted    -0.4461519E-07 ( -42.41%)
   displ. norm   :     0.0023716 α      lambda       -0.3292767E-07
   maximum displ.:     0.0017986 α      in ANC's #1, #6, #8, ...

   *** GEOMETRY OPTIMIZATION CONVERGED AFTER 16 ITERATIONS ***

------------------------------------------------------------------------
 total energy gain   :        -0.0026619 Eh       -1.6704 kcal/mol
 total RMSD          :         0.1632098 a0        0.0864 Å
 total power (kW/mol):        -0.4368060 (step)  -62.5865 (real)
------------------------------------------------------------------------

 ANCopt (total)                0 d,  0 h,  0 min,  0.112 sec
 optimizer setup                ...        0 min,  0.000 sec (  0.256%)
 model hessian                  ...        0 min,  0.003 sec (  3.076%)
 ANC generation                 ...        0 min,  0.000 sec (  0.234%)
 coordinate transformation      ...        0 min,  0.000 sec (  0.076%)
 single point calculation       ...        0 min,  0.099 sec ( 88.781%)
 optimization log               ...        0 min,  0.006 sec (  5.349%)
 hessian update                 ...        0 min,  0.000 sec (  0.080%)
 rational function              ...        0 min,  0.002 sec (  1.427%)

================
 final structure:
================
$coord
       -2.57015085816493       -0.54060795967303       -0.85723924098958      C
       -0.02016359539287       -0.07440052636950        0.43944092681348      C
        2.10413408833423       -1.50489419018644       -0.93295933507311      C
        4.48080337610476       -0.92372749502443        0.11691697886077      O
        0.49645613943327        2.54244768641609        0.46109914324953      O
       -4.65029244833063        0.39499726792202        0.50099393803711      O
       -2.78415048702336       -2.57663204806441       -1.20221609915157      H
       -2.59562616076418        0.45788468616078       -2.66195115258892      H
       -0.13102732929974       -0.74819420312947        2.41272446493760      H
        2.18586572056282       -0.87392181961488       -2.89661631344194      H
        1.73625965469984       -3.53976018024905       -0.89520195236938      H
        4.64452627033354       -1.72259116530948        1.75396018006294      H
        2.31793574916705        2.75582514904659        0.52716550349057      H
       -4.66439217402736       -0.33057381172480        2.17990296704394      H
$end
 
 Bond Distances (Angstroems)
 ---------------------------
C1-C2=1.5338         C1-O6=1.4048         C1-H7=1.0986         C1-H8=1.0915         C2-C1=1.5338         C2-C3=1.5376         
C2-O5=1.4116         C2-H9=1.1050         C3-C2=1.5376         C3-O4=1.4089         C3-H10=1.0923        C3-H11=1.0944        
O4-C3=1.4089         O4-H12=0.9678        O5-C2=1.4116         O5-H13=0.9711        O6-C1=1.4048         O6-H14=0.9679        
H7-C1=1.0986         H8-C1=1.0915         H9-C2=1.1050         H10-C3=1.0923        H11-C3=1.0944        H12-O4=0.9678        
H13-O5=0.9711        H14-O6=0.9679        
 C  H  Rav=1.0964 sigma=0.0050  Rmin=1.0915  Rmax=1.1050     5
 C  C  Rav=1.5357 sigma=0.0019  Rmin=1.5338  Rmax=1.5376     2
 O  H  Rav=0.9689 sigma=0.0015  Rmin=0.9678  Rmax=0.9711     3
 O  C  Rav=1.4084 sigma=0.0028  Rmin=1.4048  Rmax=1.4116     3
 
 selected bond angles (degree)
 --------------------
O6-C1-C2=113.82                H7-C1-C2=108.83                H7-C1-O6=110.48                H8-C1-C2=108.93                
H8-C1-O6=105.51                H8-C1-H7=109.15                C3-C2-C1=110.65                O5-C2-C1=109.38                
O5-C2-C3=110.20                H9-C2-C1=108.91                H9-C2-C3=109.05                H9-C2-O5=108.61                
O4-C3-C2=111.03                H10-C3-C2=109.13               H10-C3-O4=105.85               H11-C3-C2=110.23               
H11-C3-O4=111.49               H11-C3-H10=108.98              H12-O4-C3=109.73               H13-O5-C2=107.85               
H14-O6-C1=109.63               
 
 selected dihedral angles (degree)
 ---------------------------------
C3-C2-C1-O6=171.06            C3-C2-C1-H7= 47.37            C3-C2-C1-H8=288.46            O5-C2-C1-O6=292.63            
O5-C2-C1-H7=168.95            O5-C2-C1-H8= 50.04            H9-C2-C1-O6= 51.20            H9-C2-C1-H7=287.52            
H9-C2-C1-H8=168.61            O4-C3-C2-C1=175.16            O4-C3-C2-O5= 54.06            O4-C3-C2-H9=294.93            
H10-C3-C2-C1= 58.86           H10-C3-C2-O5=297.76           H10-C3-C2-H9=178.63           H11-C3-C2-C1=299.21           
H11-C3-C2-O5=178.11           H11-C3-C2-H9= 58.99           H12-O4-C3-C2= 72.55           H12-O4-C3-H10=190.86          
H12-O4-C3-H11=309.22          H13-O5-C2-C1=206.11           H13-O5-C2-C3=327.96           H13-O5-C2-H9= 87.35           
H14-O6-C1-C2=303.51           H14-O6-C1-H7= 66.29           H14-O6-C1-H8=184.13           
           -------------------------------------------------
          |                Final Singlepoint                |
           -------------------------------------------------

          ...................................................
          :                      SETUP                      :
          :.................................................:
          :  # basis functions                  32          :
          :  # atomic orbitals                  32          :
          :  # shells                           20          :
          :  # electrons                        38          :
          :  max. iterations                   250          :
          :  Hamiltonian                  GFN2-xTB          :
          :  restarted?                      false          :
          :  GBSA solvation                   true          :
          :  PC potential                    false          :
          :  electronic temp.          300.0000000     K    :
          :  accuracy                    1.0000000          :
          :  -> integral cutoff          0.2500000E+02      :
          :  -> integral neglect         0.1000000E-07      :
          :  -> SCF convergence          0.1000000E-05 Eh   :
          :  -> wf. convergence          0.1000000E-03 e    :
          :  Broyden damping             0.4000000          :
          :  net charge                          0          :
          :  unpaired electrons                  0          :
          ...................................................

 iter      E             dE          RMSdq      gap      omega  full diag
   1    -22.8664649 -0.228665E+02  0.126E-05   11.54       0.0  T
   2    -22.8664649 -0.138556E-12  0.749E-06   11.54    3567.1  T
   3    -22.8664649 -0.213163E-13  0.164E-06   11.54   16299.4  T

   *** convergence criteria satisfied after 3 iterations ***

         #    Occupation            Energy/Eh            Energy/eV
      -------------------------------------------------------------
         1        2.0000           -0.7028844             -19.1265
       ...           ...                  ...                  ...
        13        2.0000           -0.5102173             -13.8837
        14        2.0000           -0.4879563             -13.2780
        15        2.0000           -0.4667338             -12.7005
        16        2.0000           -0.4541256             -12.3574
        17        2.0000           -0.4359508             -11.8628
        18        2.0000           -0.4141540             -11.2697
        19        2.0000           -0.4095728             -11.1450 (HOMO)
        20                          0.0144663               0.3936 (LUMO)
        21                          0.0461611               1.2561
        22                          0.0505276               1.3749
        23                          0.1086113               2.9555
        24                          0.1222213               3.3258
       ...                                ...                  ...
        32                          0.2737632               7.4495
      -------------------------------------------------------------
                  HL-Gap            0.4240391 Eh           11.5387 eV
             Fermi-level           -0.1975532 Eh           -5.3757 eV

 SCC (total)                   0 d,  0 h,  0 min,  0.006 sec
 SCC setup                      ...        0 min,  0.001 sec ( 14.696%)
 Dispersion                     ...        0 min,  0.000 sec (  0.677%)
 classical contributions        ...        0 min,  0.000 sec (  0.217%)
 integral evaluation            ...        0 min,  0.001 sec ( 16.979%)
 iterations                     ...        0 min,  0.001 sec ( 15.928%)
 molecular gradient             ...        0 min,  0.003 sec ( 48.884%)
 printout                       ...        0 min,  0.000 sec (  2.280%)

         :::::::::::::::::::::::::::::::::::::::::::::::::::::
         ::                     SUMMARY                     ::
         :::::::::::::::::::::::::::::::::::::::::::::::::::::
         :: total energy             -22.692439199995 Eh    ::
         :: total w/o Gsasa/hb       -22.681048094874 Eh    ::
         :: gradient norm              0.000098109305 Eh/a0 ::
         :: HOMO-LUMO gap             11.538691830743 eV    ::
         ::.................................................::
         :: SCC energy               -22.866455090255 Eh    ::
         :: -> isotropic ES            0.095534645001 Eh    ::
         :: -> anisotropic ES          0.001483175268 Eh    ::
         :: -> anisotropic XC         -0.002448651070 Eh    ::
         :: -> dispersion             -0.006911623048 Eh    ::
         :: -> Gsolv                  -0.024799139140 Eh    ::
         ::    -> Gelec               -0.013408034018 Eh    ::
         ::    -> Gsasa                0.003306828244 Eh    ::
         ::    -> Ghb                 -0.015778693064 Eh    ::
         ::    -> Gshift               0.001080759698 Eh    ::
         :: repulsion energy           0.174015890260 Eh    ::
         :: add. restraining           0.000000000000 Eh    ::
         :: total charge              -0.000000000000 e     ::
         :::::::::::::::::::::::::::::::::::::::::::::::::::::

           ------------------------------------------------- 
          |                Numerical Hessian                |
           ------------------------------------------------- 
step length          :   0.00500
SCC accuracy         :   0.30000
Hessian scale factor :   1.00000
frozen atoms in %    :   0.00000    0
RMS gradient         :   0.00010
estimated CPU  time      0.01 min
estimated wall time      0.01 min

writing file <hessian>.

 projected vibrational frequencies (cm⁻¹)
eigval :       -0.00    -0.00    -0.00     0.00     0.00     0.00
eigval :       67.30    87.27   188.97   269.51   292.39   307.55
eigval :      367.56   403.86   465.25   548.54   882.82   918.27
eigval :      993.51  1005.28  1070.23  1092.35  1099.85  1121.30
eigval :     1185.26  1224.12  1252.37  1289.65  1297.62  1315.77
eigval :     1330.82  1349.85  1447.81  1458.90  2806.30  2876.86
eigval :     2930.96  2989.03  2995.95  3419.34  3482.82  3484.49
           -------------------------------------------------
          |                Property Printout                |
           -------------------------------------------------

    * Orbital Energies and Occupations

         #    Occupation            Energy/Eh            Energy/eV
      -------------------------------------------------------------
         1        2.0000           -0.7028844             -19.1265
       ...           ...                  ...                  ...
         7        2.0000           -0.5823792             -15.8473
         8        2.0000           -0.5658508             -15.3976
         9        2.0000           -0.5607501             -15.2588
        10        2.0000           -0.5554588             -15.1148
        11        2.0000           -0.5238628             -14.2550
        12        2.0000           -0.5148082             -14.0086
        13        2.0000           -0.5102172             -13.8837
        14        2.0000           -0.4879563             -13.2780
        15        2.0000           -0.4667338             -12.7005
        16        2.0000           -0.4541256             -12.3574
        17        2.0000           -0.4359508             -11.8628
        18        2.0000           -0.4141540             -11.2697
        19        2.0000           -0.4095728             -11.1450 (HOMO)
        20                          0.0144663               0.3936 (LUMO)
        21                          0.0461611               1.2561
        22                          0.0505276               1.3749
        23                          0.1086113               2.9555
        24                          0.1222213               3.3258
        25                          0.1245587               3.3894
        26                          0.1504746               4.0946
        27                          0.1697962               4.6204
        28                          0.1810649               4.9270
        29                          0.2207668               6.0074
        30                          0.2320162               6.3135
       ...                                ...                  ...
        32                          0.2737632               7.4495
      -------------------------------------------------------------
                  HL-Gap            0.4240391 Eh           11.5387 eV
             Fermi-level           -0.1975532 Eh           -5.3757 eV

     #   Z          covCN         q      C6AA      α(0)
     1   6 C        3.676     0.068    19.658     6.353
     2   6 C        3.721     0.094    19.132     6.247
     3   6 C        3.675     0.058    19.823     6.380
     4   8 O        1.655    -0.505    23.001     6.474
     5   8 O        1.655    -0.509    23.097     6.488
     6   8 O        1.655    -0.504    22.983     6.472
     7   1 H        0.923     0.031     2.579     2.511
     8   1 H        0.924     0.061     2.183     2.311
     9   1 H        0.922     0.028     2.622     2.532
    10   1 H        0.924     0.059     2.207     2.323
    11   1 H        0.924     0.037     2.487     2.466
    12   1 H        0.805     0.365     0.555     1.170
    13   1 H        0.804     0.358     0.570     1.186
    14   1 H        0.805     0.360     0.566     1.182

 Mol. C6AA /au·bohr⁶  :       1411.152553
 Mol. C8AA /au·bohr⁸  :      29033.268658
 Mol. α(0) /au        :         54.093787


Wiberg/Mayer (AO) data.
largest (>0.10) Wiberg bond orders for each atom

 ---------------------------------------------------------------------------
     #   Z sym  total        # sym  WBO       # sym  WBO       # sym  WBO
 ---------------------------------------------------------------------------
     1   6 C    3.957 --     6 O    1.006     2 C    0.980     8 H    0.970
                             7 H    0.967
     2   6 C    3.958 --     5 O    0.994     1 C    0.980     3 C    0.975
                             9 H    0.955
     3   6 C    3.955 --     4 O    1.004     2 C    0.975    10 H    0.971
                            11 H    0.970
     4   8 O    1.928 --     3 C    1.004    12 H    0.854
     5   8 O    1.914 --     2 C    0.994    13 H    0.848
     6   8 O    1.921 --     1 C    1.006    14 H    0.856
     7   1 H    0.999 --     1 C    0.967
     8   1 H    0.996 --     1 C    0.970
     9   1 H    0.999 --     2 C    0.955
    10   1 H    0.996 --     3 C    0.971
    11   1 H    0.999 --     3 C    0.970
    12   1 H    0.867 --     4 O    0.854
    13   1 H    0.872 --     5 O    0.848
    14   1 H    0.871 --     6 O    0.856
 ---------------------------------------------------------------------------

Topologies differ in total number of bonds
Writing topology from bond orders to xtbtopo.mol

molecular dipole:
                 x           y           z       tot (Debye)
 q only:        0.567      -1.175       0.656
   full:        0.710      -1.514       0.844       4.763
molecular quadrupole (traceless):
                xx          xy          yy          xz          yz          zz
 q only:       -4.251       3.022      -0.157       0.998      -1.704       4.407
  q+dip:       -7.495       3.873       0.379       1.284      -3.112       7.116
   full:       -6.726       3.891       0.126       1.295      -2.857       6.600

           -------------------------------------------------
          |                Geometry Summary                 |
           -------------------------------------------------

      molecular mass/u    :       92.0939485
   center of mass at/Å    :        0.0006144       0.0007268       0.0014450
  moments of inertia/u·Å² :        0.6395776E+02   0.2619835E+03   0.3004002E+03
rotational constants/cm⁻¹ :        0.2635745E+00   0.6434617E-01   0.5611724E-01

 * 13 selected distances

     #   Z          #   Z                                           value/Å
     1   6 C        2   6 C                                       1.5338077
     2   6 C        3   6 C                                       1.5375705 (max)
     3   6 C        4   8 O                                       1.4088992
     2   6 C        5   8 O                                       1.4115509
     1   6 C        6   8 O                                       1.4047781
     1   6 C        7   1 H                                       1.0986259
     1   6 C        8   1 H                                       1.0915199
     2   6 C        9   1 H                                       1.1049719
     3   6 C       10   1 H                                       1.0923063
     3   6 C       11   1 H                                       1.0944426
     4   8 O       12   1 H                                       0.9678157 (min)
     5   8 O       13   1 H                                       0.9711063
     6   8 O       14   1 H                                       0.9678864

 * 4 distinct bonds (by element types)

   Z      Z             #   av. dist./Å        max./Å        min./Å
   1 H    6 C           5     1.0963733     1.1049719     1.0915199
   6 C    6 C           2     1.5356891     1.5375705     1.5338077
   1 H    8 O           3     0.9689361     0.9711063     0.9678157
   6 C    8 O           3     1.4084094     1.4115509     1.4047781

           -------------------------------------------------
          |               Frequency Printout                |
           -------------------------------------------------
 projected vibrational frequencies (cm⁻¹)
eigval :       -0.00    -0.00    -0.00     0.00     0.00     0.00
eigval :       67.30    87.27   188.97   269.51   292.39   307.55
eigval :      367.56   403.86   465.25   548.54   882.82   918.27
eigval :      993.51  1005.28  1070.23  1092.35  1099.85  1121.30
eigval :     1185.26  1224.12  1252.37  1289.65  1297.62  1315.77
eigval :     1330.82  1349.85  1447.81  1458.90  2806.30  2876.86
eigval :     2930.96  2989.03  2995.95  3419.34  3482.82  3484.49
 reduced masses (amu)
   1: 12.67   2: 13.62   3: 13.51   4: 12.78   5: 13.16   6: 12.23   7: 11.66   8:  9.22
   9: 12.74  10:  9.26  11:  6.74  12:  2.40  13:  2.21  14: 12.89  15:  8.61  16:  9.70
  17:  9.81  18:  4.72  19:  9.86  20:  6.77  21: 11.10  22: 11.13  23:  2.44  24: 10.63
  25:  4.66  26:  3.40  27:  2.55  28:  3.63  29:  3.32  30:  2.92  31:  3.33  32:  4.82
  33:  1.82  34:  1.78  35:  1.71  36:  1.72  37:  1.75  38:  1.70  39:  1.70  40:  1.88
  41:  1.88  42:  1.88
 IR intensities (km·mol⁻¹)
   1:  1.03   2:  2.74   3:  0.32   4:  1.69   5:  6.41   6:  3.85   7:  2.80   8:  5.54
   9:  6.47  10: 42.26  11:139.27  12:147.44  13:274.38  14: 58.02  15: 55.20  16: 14.65
  17: 31.97  18: 37.64  19: 80.17  20: 33.37  21:167.04  22: 56.75  23:111.02  24:101.50
  25: 13.65  26: 94.50  27:  9.71  28: 81.79  29:106.54  30: 40.54  31: 15.29  32: 11.73
  33:  1.85  34:  2.49  35:128.45  36: 91.70  37: 84.67  38: 23.49  39: 55.00  40:115.73
  41: 90.27  42: 60.08
 Raman intensities (Ä⁴*amu⁻¹)
   1:  0.00   2:  0.00   3:  0.00   4:  0.00   5:  0.00   6:  0.00   7:  0.00   8:  0.00
   9:  0.00  10:  0.00  11:  0.00  12:  0.00  13:  0.00  14:  0.00  15:  0.00  16:  0.00
  17:  0.00  18:  0.00  19:  0.00  20:  0.00  21:  0.00  22:  0.00  23:  0.00  24:  0.00
  25:  0.00  26:  0.00  27:  0.00  28:  0.00  29:  0.00  30:  0.00  31:  0.00  32:  0.00
  33:  0.00  34:  0.00  35:  0.00  36:  0.00  37:  0.00  38:  0.00  39:  0.00  40:  0.00
  41:  0.00  42:  0.00
 output can be read by thermo (or use thermo option).
 writing <g98.out> molden fake output.
 recommended (thermochemical) frequency scaling factor: 1.0
           -------------------------------------------------
          |             Thermodynamic Functions             |
           -------------------------------------------------

Molecule has no symmetry elements
It seems to be the C1 point group
c1  symmetry found (for desy threshold:  0.10E+00) used in thermo

          ...................................................
          :                      SETUP                      :
          :.................................................:
          :  # frequencies                          36      :
          :  # imaginary freq.                       0      :
          :  linear?                             false      :
          :  only rotor calc.                    false      :
          :  symmetry                               c1      :
          :  rotational number                       1      :
          :  scaling factor                  1.0000000      :
          :  rotor cutoff                    0.0000000 cm⁻¹ :
          :  imag. cutoff                 -100.0000000 cm⁻¹ :
          :.................................................:

    mode    ω/cm⁻¹     T·S(HO)/kcal·mol⁻¹    T·S(FR)/kcal·mol⁻¹   T·S(vib)
   ------------------------------------------------------------------------
       1     67.30    -1.26143 (100.00%)    -0.96818 (  0.00%)    -1.26143
       2     87.27    -1.10920 (100.00%)    -0.89126 (  0.00%)    -1.10920
       3    188.97    -0.66723 (100.00%)    -0.66255 (  0.00%)    -0.66723
       4    269.51    -0.47685 (100.00%)    -0.55742 (  0.00%)    -0.47685
       5    292.39    -0.43533 (100.00%)    -0.53329 (  0.00%)    -0.43533
   ------------------------------------------------------------------------

   temp. (K)  partition function   enthalpy   heat capacity  entropy
                                   cal/mol     cal/K/mol   cal/K/mol   J/K/mol
 298.15  VIB   75.6                 3088.053     20.679     18.954
         ROT  0.171E+06              888.752      2.981     26.931
         INT  0.130E+08             3976.805     23.660     45.884
         TR   0.855E+27             1481.254      4.968     39.455
         TOT                        5458.0590    28.6278    85.3390   357.0582

       T/K    H(0)-H(T)+PV         H(T)/Eh          T*S/Eh         G(T)/Eh
   ------------------------------------------------------------------------
    298.15    0.869797E-02    0.121057E+00    0.405473E-01    0.805093E-01
   ------------------------------------------------------------------------

         :::::::::::::::::::::::::::::::::::::::::::::::::::::
         ::                  THERMODYNAMIC                  ::
         :::::::::::::::::::::::::::::::::::::::::::::::::::::
         :: total free energy         -22.611929928060 Eh   ::
         ::.................................................::
         :: total energy              -22.692439199887 Eh   ::
         :: zero point energy           0.112358593043 Eh   ::
         :: G(RRHO) w/o ZPVE           -0.031849321216 Eh   ::
         :: G(RRHO) contrib.            0.080509271827 Eh   ::
         :::::::::::::::::::::::::::::::::::::::::::::::::::::

optimized geometry written to: xtbopt.coord


           -------------------------------------------------
          | TOTAL ENERGY              -22.692439199887 Eh   |
          | TOTAL ENTHALPY            -22.571382636198 Eh   |
          | TOTAL FREE ENERGY         -22.611929928060 Eh   |
          | GRADIENT NORM               0.000098106803 Eh/α |
          | HOMO-LUMO GAP              11.538691596985 eV   |
           -------------------------------------------------

------------------------------------------------------------------------
 * finished run on 2025/04/11 at 11:41:14.052     
------------------------------------------------------------------------
 total:
 * wall-time:     0 d,  0 h,  0 min,  0.733 sec
 *  cpu-time:     0 d,  0 h,  0 min,  0.651 sec
 * ratio c/w:     0.888 speedup
 SCF:
 * wall-time:     0 d,  0 h,  0 min,  0.016 sec
 *  cpu-time:     0 d,  0 h,  0 min,  0.010 sec
 * ratio c/w:     0.652 speedup
 ANC optimizer:
 * wall-time:     0 d,  0 h,  0 min,  0.129 sec
 *  cpu-time:     0 d,  0 h,  0 min,  0.114 sec
 * ratio c/w:     0.879 speedup
 analytical hessian:
 * wall-time:     0 d,  0 h,  0 min,  0.527 sec
 *  cpu-time:     0 d,  0 h,  0 min,  0.517 sec
 * ratio c/w:     0.981 speedup

