23
 energy: -23.154967997836 gnorm: 0.022848634586 xtb: 6.7.1 (edcfbbe)
C            2.09337675271637        1.37874178459903       -0.06089193494119
C            1.27567993042825        0.25235918341342        0.57509966602533
C            0.35661339364392       -0.48556623557398       -0.42683011744513
H            0.67734849471018       -0.19592352633296       -1.43889341467776
C            0.53393835708377       -2.00326201282462       -0.31453278556829
C           -1.13321537593593       -0.08333954879096       -0.32180451817083
C           -1.80161476184603       -0.54933799363718        0.97496774614665
C           -1.33347982454585        1.42330903891811       -0.50200758836726
H            1.44927490387574        2.13053378763529       -0.52911572763448
H            2.71761009314380        1.88706235631440        0.68206707322860
H            2.75617612338211        0.98086783290911       -0.83859002224899
H            0.68327858549543        0.65525578946589        1.40615352484678
H            1.97026078942907       -0.46746340555390        1.02723737326194
H            1.55845874756079       -2.28843245607484       -0.57822812619162
H            0.34937559844956       -2.35000576725696        0.70844758282223
H           -0.14959029683862       -2.53922863349648       -0.98394851626323
H           -1.64548223928739       -0.58782909238521       -1.15397821832880
H           -1.78376562082145       -1.63892449191272        1.07842236872916
H           -2.85076170146701       -0.23335544959229        0.99434185278636
H           -1.31223158300033       -0.11790012797879        1.85651447226061
H           -2.40101846712698        1.66935042127944       -0.52601387215198
H           -0.88309146641825        1.77962128035684       -1.43526032657971
H           -0.88553084639035        1.98415613062542        0.32675051881686
23
 energy: -23.155815160038 gnorm: 0.007077265493 xtb: 6.7.1 (edcfbbe)
C            2.08913650535112        1.36934350130402       -0.06154114050648
C            1.27531814477351        0.24963407074013        0.57794636230486
C            0.35861986360054       -0.47674420987761       -0.42738163502569
H            0.67861920799428       -0.19016162466094       -1.43769740690572
C            0.53627097037485       -1.99126424117679       -0.31174471856675
C           -1.13273518686195       -0.08592437039628       -0.31912482103681
C           -1.79752481357037       -0.54318395916994        0.97814465491480
C           -1.33422648723888        1.41722372667191       -0.50052558698021
H            1.44328125203514        2.11759552518129       -0.51822748796615
H            2.70764189659229        1.86571780395708        0.68581114025838
H            2.74658042215769        0.97098533362660       -0.83493426613133
H            0.68507976216363        0.65817959294860        1.40140831034638
H            1.97052747496216       -0.47127114702588        1.01759926747294
H            1.55429613915346       -2.27216787858498       -0.58067355332306
H            0.35132462332094       -2.33458949939825        0.70545647402547
H           -0.14677763375064       -2.51474338841670       -0.98086723196244
H           -1.64697337432042       -0.59060549129813       -1.14781978321603
H           -1.77708602829888       -1.62699579715248        1.07150461520378
H           -2.84038976996622       -0.22656821880497        0.99148583585683
H           -1.30600101048768       -0.11365440081035        1.85075574365991
H           -2.39756870623194        1.65415160218832       -0.52937140514131
H           -0.88589630496936        1.75981862776180       -1.43268182430458
H           -0.88990736054244        1.97591330649961        0.32238546737848
23
 energy: -23.155891961266 gnorm: 0.001610540411 xtb: 6.7.1 (edcfbbe)
C            2.08969443110031        1.36834055525058       -0.05797484292613
C            1.27328037146797        0.24946640284169        0.57935310710755
C            0.35778537513658       -0.47569706453674       -0.42564138677825
H            0.67579834997445       -0.18699669916376       -1.43458212942628
C            0.53629055969158       -1.99061078526902       -0.31494912368162
C           -1.13280272793177       -0.08573028395211       -0.31695864543653
C           -1.79296393402283       -0.54158330490049        0.98274539151148
C           -1.33686700786382        1.41652379485270       -0.50532648325420
H            1.44374280435977        2.11593295062820       -0.50981334457470
H            2.70942088522777        1.85893832223717        0.68962797889934
H            2.74201801096991        0.96840465982360       -0.83141546621074
H            0.68450434232453        0.65907232590001        1.40029283592170
H            1.96631228732736       -0.47301327316769        1.01495872560029
H            1.55264820181598       -2.26751843705053       -0.58602541203223
H            0.35305981264527       -2.33072530900563        0.70081907222070
H           -0.14754977110574       -2.50938308515754       -0.98354950202474
H           -1.64668187882602       -0.59411502978325       -1.14267420199815
H           -1.77285615428683       -1.62336265200302        1.07474337668122
H           -2.83274977916291       -0.22254831849078        0.99506128900324
H           -1.29833037217807       -0.11099909518473        1.84961125263407
H           -2.39913123529748        1.64879011565614       -0.53679485623394
H           -0.88775316511842        1.75258891630482       -1.43714976050384
H           -0.89525982000678        1.97491415827645        0.31554913585704
23
 energy: -23.155762809615 gnorm: 0.010193039330 xtb: 6.7.1 (edcfbbe)
C            2.09053608588367        1.36683140394799       -0.05260964668669
C            1.27021808711274        0.24920878084123        0.58147297865855
C            0.35653263436421       -0.47411713011891       -0.42303551304778
H            0.67156338809932       -0.18222695820548       -1.42990968371517
C            0.53632234458273       -1.98962549526069       -0.31977342104644
C           -1.13290713808143       -0.08544581986038       -0.31370628877902
C           -1.78610930616095       -0.53916902111058        0.98966834843652
C           -1.34084221805302        1.41546554468449       -0.51255117434690
H            1.44444329496621        2.11344633317032       -0.49715646270666
H            2.71210419731735        1.84874091714306        0.69537346189253
H            2.73516498100519        0.96452940696042       -0.82613031059191
H            0.68363461037672        0.66040901704436        1.39862299432145
H            1.95997571744146       -0.47563770168983        1.01100651917141
H            1.55017603254828       -2.26052956986010       -0.59408191614199
H            0.35567191582730       -2.32492834775192        0.69384242003507
H           -0.14870969501290       -2.50132574532278       -0.98759158040544
H           -1.64625128421101       -0.59940504473483       -1.13493792877463
H           -1.76649991600701       -1.61789700542632        1.07962759445118
H           -2.82127197425147       -0.21649762971141        1.00045965289800
H           -1.28679012161899       -0.10699848422518        1.84789883921510
H           -2.40149042739419        1.64072477097666       -0.54796783488983
H           -0.89054784906475        1.74171474477199       -1.44387780592318
H           -0.90331377342862        1.97342189784397        0.30526376833110
23
 energy: -23.155894068284 gnorm: 0.004049213216 xtb: 6.7.1 (edcfbbe)
C            2.09081708151607        1.36719221315107       -0.05374429442322
C            1.27142560009135        0.24839725277333        0.58163087815581
C            0.35723310526353       -0.47374502947704       -0.42564987300592
H            0.67392848440089       -0.18181787052613       -1.43335007137628
C            0.53668416938688       -1.98958642542020       -0.31935693205064
C           -1.13338901614328       -0.08672631626112       -0.31553730369293
C           -1.78874293348076       -0.53873508493559        0.98843122455451
C           -1.34048197978145        1.41491621691846       -0.51141072597455
H            1.44536315074938        2.11655174263355       -0.50016831403676
H            2.71290116538804        1.85136236124372        0.69467113222051
H            2.73846192569783        0.96655678593775       -0.82878410618603
H            0.68312099017560        0.65904930288379        1.40049309665697
H            1.96209751869043       -0.47568014354898        1.01535752076518
H            1.55194803902353       -2.26309749391149       -0.59318885312306
H            0.35540346441405       -2.32900330492343        0.69539707251872
H           -0.14825084464862       -2.50440740550896       -0.98787637649696
H           -1.64766424962397       -0.59999234571120       -1.13750199755373
H           -1.76910270177355       -1.61926151868155        1.08061557446435
H           -2.82647595978026       -0.21732566839075        1.00258737480130
H           -1.28919583004164       -0.10690924167574        1.84989298692410
H           -2.40250181447427        1.64267100664230       -0.54641858588336
H           -0.89010520690956        1.74461058912373       -1.44358151234168
H           -0.90186457189938        1.97566924177055        0.30739909543895
23
 energy: -23.155923789990 gnorm: 0.000431927621 xtb: 6.7.1 (edcfbbe)
C            2.09195517828506        1.36705167726569       -0.05243037689619
C            1.27154767644516        0.24790704317483        0.58216872644954
C            0.35710708266950       -0.47351435587613       -0.42677445217173
H            0.67456913067488       -0.18010189635114       -1.43457097583011
C            0.53747537989504       -1.98965903263630       -0.32166105344392
C           -1.13414355999564       -0.08779025258907       -0.31591681493416
C           -1.78893983875398       -0.53707819794972        0.98984124002617
C           -1.34220185842448        1.41363816050560       -0.51350200649121
H            1.44752404925406        2.11976812238513       -0.49819716887104
H            2.71575390675749        1.85051214583155        0.69652699664085
H            2.74019033522442        0.96774162271360       -0.82967574963897
H            0.68188345547832        0.65879561764501        1.40165795846819
H            1.96202412599263       -0.47611521049846        1.01904058523594
H            1.55362350873156       -2.26415857583092       -0.59599558332794
H            0.35634288849190       -2.33305715021684        0.69341962781680
H           -0.14755158325482       -2.50599065124486       -0.99086683342687
H           -1.64948900052114       -0.60270829914310       -1.13666889144745
H           -1.76992947854931       -1.61870032598669        1.08487170620512
H           -2.82799806201994       -0.21564995506113        1.00730029366190
H           -1.28782237424726       -0.10472918064566        1.85213438872629
H           -2.40520154732777        1.64224596854252       -0.54947563872686
H           -0.89124342998819        1.74420661698735       -1.44644218675296
H           -0.90386639857666        1.97807497308477        0.30512321908390
23
 energy: -23.155934151565 gnorm: 0.000748237618 xtb: 6.7.1 (edcfbbe)
C            2.09331620334542        1.36591745696316       -0.04962716809612
C            1.27060851708662        0.24747972779756        0.58344085434737
C            0.35670647621999       -0.47249326545630       -0.42733141004878
H            0.67380199607031       -0.17646566435282       -1.43468021238476
C            0.53838183931759       -1.98878634801076       -0.32549097517470
C           -1.13495060233068       -0.08894692452033       -0.31506038080765
C           -1.78711862970694       -0.53450325439114        0.99340595267210
C           -1.34501132427707        1.41155594394168       -0.51761412853614
H            1.45051262765663        2.12218274328491       -0.49258885629523
H            2.71963679845749        1.84569784298323        0.69991287864290
H            2.73976309335847        0.96717228766567       -0.82907094929198
H            0.68012858837863        0.65948240274291        1.40217376141975
H            1.95940724331169       -0.47745172432263        1.02207567579857
H            1.55476667424344       -2.26214005713401       -0.60104750976139
H            0.35791697704151       -2.33551358924285        0.68898418097176
H           -0.14656866372411       -2.50450346830636       -0.99567998562733
H           -1.65110808826189       -0.60741829696906       -1.13316312813465
H           -1.76870911402381       -1.61622517613779        1.09108170915595
H           -2.82617625306631       -0.21225624985013        1.01338804112428
H           -1.28353713729057       -0.10087855466738        1.85404617870463
H           -2.40848426326700        1.63876009900691       -0.55576628366995
H           -0.89329913463307        1.74009550220102       -1.45121751747086
H           -0.90837423766548        1.97992743088056        0.29973628281756
23
 energy: -23.155945687941 gnorm: 0.000415983389 xtb: 6.7.1 (edcfbbe)
C            2.09590021982924        1.36365504309659       -0.04600773858316
C            1.26888608784079        0.24760941163768        0.58525358942089
C            0.35578501652940       -0.47107007663136       -0.42704024786179
H            0.67177761619120       -0.17116849475669       -1.43350726127816
C            0.53998464288032       -1.98731667774873       -0.33084020605810
C           -1.13623731472924       -0.09015317489445       -0.31334612867663
C           -1.78446582804850       -0.53134990557221        0.99834287668840
C           -1.34931656925490        1.40885221015290       -0.52300673776285
H            1.45565591096512        2.12433760909191       -0.48490388436306
H            2.72616796652867        1.83780357154244        0.70370205846080
H            2.73857614756242        0.96434519975577       -0.82810944250392
H            0.67749736962277        0.66233128435546        1.40182048232111
H            1.95445969620352       -0.47873304407725        1.02637145459285
H            1.55667381235103       -2.25812524007256       -0.60737284899319
H            0.35985331988560       -2.33774978510713        0.68230694072158
H           -0.14425253993456       -2.50154468062986       -1.00277271272069
H           -1.65299718668330       -0.61361947389925       -1.12781401643706
H           -1.76656701534747       -1.61277335576354        1.09896003930091
H           -2.82301494173480       -0.20803744254213        1.02050541068211
H           -1.27809504187505       -0.09588868836538        1.85619917292438
H           -2.41306233065509        1.63366714225282       -0.56451605607701
H           -0.89612776313927        1.73403060789167       -1.45695972675735
H           -0.91547168874699        1.98158682438936        0.29264199331522
23
 energy: -23.155952095621 gnorm: 0.000186515003 xtb: 6.7.1 (edcfbbe)
C            2.09860389385479        1.36088968370206       -0.04266643417675
C            1.26687030959051        0.24775936451270        0.58725572930330
C            0.35496600627718       -0.46938122060237       -0.42725149327158
H            0.66961200728973       -0.16563279515893       -1.43293376210083
C            0.54174407405722       -1.98551686954739       -0.33626117554021
C           -1.13761708675010       -0.09149156969650       -0.31160176731701
C           -1.78206247872488       -0.52820890211935        1.00341803414831
C           -1.35343209937113        1.40612436889872       -0.52796284406866
H            1.46128595325881        2.12579344484104       -0.47820602756628
H            2.73245694593239        1.82975504460697        0.70717501366516
H            2.73775709632162        0.96039686538985       -0.82680430027698
H            0.67436570783447        0.66566608700138        1.40116715173216
H            1.94866747189552       -0.48008118806765        1.03148663408466
H            1.55922944486372       -2.25319145946239       -0.61236461704356
H            0.36062692390677       -2.34005809459962        0.67512587828529
H           -0.14046311995131       -2.49825411527104       -1.01122278284862
H           -1.65493528842203       -0.61957342201252       -1.12266417852493
H           -1.76310902222141       -1.60913401994819        1.10788038814732
H           -2.82054705421513       -0.20528042615366        1.02715348644969
H           -1.27373559496868       -0.08942197674197        1.85820320141272
H           -2.41742020042540        1.62858912021937       -0.57180952015398
H           -0.89971236213097        1.72786682726313       -1.46272997182762
H           -0.92154194166077        1.98307411705241        0.28552036784371
23
 energy: -23.155954937236 gnorm: 0.000240769593 xtb: 6.7.1 (edcfbbe)
C            2.10095175859393        1.35877574959815       -0.04050408047691
C            1.26553470522542        0.24796493654830        0.58850531626656
C            0.35409558182554       -0.46850451052667       -0.42692667849232
H            0.66792186850667       -0.16197077419993       -1.43196939387547
C            0.54322411917822       -1.98455278971479       -0.34030129856272
C           -1.13881831199210       -0.09225513011854       -0.31047099943687
C           -1.78061029689419       -0.52595636839329        1.00676032910989
C           -1.35660250478758        1.40446128290450       -0.53102492242061
H            1.46580318855475        2.12619571874761       -0.47487924587524
H            2.73667009663205        1.82479901723550        0.70954516382003
H            2.73839852515099        0.95703819530955       -0.82539898882821
H            0.67208075429373        0.66839324175898        1.40040939798586
H            1.94460146428411       -0.48081448985815        1.03539144316485
H            1.56184197607945       -2.24990264643174       -0.61470623900444
H            0.36006430617918       -2.34243854440693        0.66954997793618
H           -0.13658471446524       -2.49636966612066       -1.01846986563266
H           -1.65667681319182       -0.62340988060134       -1.11916327224687
H           -1.75919789868668       -1.60652533396780        1.11492148369692
H           -2.81972995244820       -0.20505905375709        1.03064532138367
H           -1.27228797758796       -0.08320472480187        1.85954149004597
H           -2.42082833962688        1.62582060040267       -0.57500369954423
H           -0.90356517882163        1.72389669021625       -1.46695544975116
H           -0.92467676976082        1.98430734428332        0.28041122109313
23
 energy: -23.155957604653 gnorm: 0.000169877354 xtb: 6.7.1 (edcfbbe)
C            2.10306996102703        1.35640357523293       -0.03877256857291
C            1.26410088337618        0.24809424107161        0.58983578993334
C            0.35353990542525       -0.46728923293214       -0.42718770381587
H            0.66653099147481       -0.15818088735252       -1.43171243018415
C            0.54443602923636       -1.98325813980780       -0.34408549265578
C           -1.13972353792991       -0.09302808159844       -0.30914934843257
C           -1.77952886927914       -0.52392863303682        1.00993803140058
C           -1.35912826349468        1.40288446820232       -0.53351577649232
H            1.47022552618559        2.12552722600456       -0.47343471699003
H            2.73954809527703        1.82056766868929        0.71168867538601
H            2.73984908433052        0.95301036880367       -0.82326865315838
H            0.66990958000373        0.67110454605966        1.39978721789703
H            1.94038783125160       -0.48166929763603        1.03921823890321
H            1.56438920156932       -2.24611080118648       -0.61578413084716
H            0.35837268302929       -2.34461484163671        0.66397635756232
H           -0.13217171942507       -2.49403643859413       -1.02620356657980
H           -1.65799784869796       -0.62680527929286       -1.11577770393766
H           -1.75379872345898       -1.60393025839512        1.12251953203140
H           -2.81985182220857       -0.20696568438157        1.03284440985225
H           -1.27279448834086       -0.07570126965673        1.86073953200330
H           -2.42357614974784        1.62325625214292       -0.57582512689900
H           -0.90829328973716        1.72009098578397       -1.47125644409291
H           -0.92588547362559        1.98526837762248        0.27533288804443
23
 energy: -23.155960934044 gnorm: 0.000175721488 xtb: 6.7.1 (edcfbbe)
C            2.10590439826048        1.35347611731007       -0.03716436008308
C            1.26271261321836        0.24824106176224        0.59123648035023
C            0.35267583087399       -0.46602996850661       -0.42709326284327
H            0.66476580563752       -0.15414422165565       -1.43102698918287
C            0.54590804500289       -1.98188324813504       -0.34826879152118
C           -1.14097099324268       -0.09370890178832       -0.30799539212617
C           -1.77865624751684       -0.52175698932671        1.01302557340970
C           -1.36205301334511        1.40148688591406       -0.53547676414296
H            1.47571862068334        2.12334461486448       -0.47445419604940
H            2.74178877766723        1.81735370668298        0.71394815989146
H            2.74343168415243        0.94734132745428       -0.81964275850941
H            0.66766826903471        0.67434958485634        1.39888987809714
H            1.93580112984873       -0.48254053547052        1.04373064578789
H            1.56768436819827       -2.24195204165450       -0.61588879780584
H            0.35554311126611       -2.34727656758477        0.65753725180486
H           -0.12642637654719       -2.49139537943006       -1.03556106687776
H           -1.65970338656345       -0.63004054713796       -1.11262833417710
H           -1.74547030082317       -1.60093774142249        1.13167960010017
H           -2.82125928927136       -0.21200638547904        1.03324076516986
H           -1.27596059980631       -0.06520368021651        1.86187921636524
H           -2.42676699476574        1.62139936323112       -0.57362221079787
H           -0.91546214051533        1.71617271059178       -1.47611462524477
H           -0.92526372520590        1.98639969924686        0.26967698874047
23
 energy: -23.155963830361 gnorm: 0.000223195245 xtb: 6.7.1 (edcfbbe)
C            2.10905446843737        1.35026324574555       -0.03609008136425
C            1.26124846361286        0.24869420430971        0.59260630690746
C            0.35200145930640       -0.46471383924318       -0.42703892236427
H            0.66339994666405       -0.15015361221670       -1.43038123624972
C            0.54721368862876       -1.98051289951670       -0.35217440730080
C           -1.14193065759186       -0.09398772432927       -0.30657397147214
C           -1.77842580401962       -0.52024467242964        1.01554245801334
C           -1.36470165309087        1.40058913448287       -0.53671187750059
H            1.48170809996839        2.11960914214001       -0.47856520544621
H            2.74272072720778        1.81572152497555        0.71597111236689
H            2.74902830532325        0.94039405253926       -0.81469632555110
H            0.66536265639887        0.67814808963890        1.39789415160456
H            1.93103826973927       -0.48311526385796        1.04831546230292
H            1.57067889126828       -2.23801769080349       -0.61583973959538
H            0.35286381137682       -2.34967274995601        0.65149643230010
H           -0.12106409954056       -2.48887668895147       -1.04424794665462
H           -1.66090298955195       -0.63229257443518       -1.10969598533405
H           -1.73572047272242       -1.59838526111057        1.14080807023511
H           -2.82391072744505       -0.21982818218404        1.03193335615084
H           -1.28161804867211       -0.05394501547172        1.86261454451072
H           -2.42968383744126        1.62043211398404       -0.56880896825209
H           -0.92378078888337        1.71311277819313       -1.48078856244329
H           -0.92297012273204        1.98747075260295        0.26433834549191
23
 energy: -23.155964364412 gnorm: 0.000534833795 xtb: 6.7.1 (edcfbbe)
C            2.11220453861426        1.34705037418103       -0.03501580264542
C            1.25978431400736        0.24914734685717        0.59397613346470
C            0.35132708773881       -0.46339770997975       -0.42698458188527
H            0.66203408769059       -0.14616300277775       -1.42973548331657
C            0.54851933225464       -1.97914255089836       -0.35608002308041
C           -1.14289032194105       -0.09426654687022       -0.30515255081811
C           -1.77819536052240       -0.51873235553257        1.01805934261699
C           -1.36735029283663        1.39969138305168       -0.53794699085823
H            1.48769757925345        2.11587366941554       -0.48267621484302
H            2.74365267674832        1.81408934326811        0.71799406484232
H            2.75462492649408        0.93344677762424       -0.80974989259279
H            0.66305704376303        0.68194659442147        1.39689842511197
H            1.92627540962982       -0.48368999224540        1.05290027881795
H            1.57367341433829       -2.23408333995248       -0.61579068138493
H            0.35018451148752       -2.35206893232725        0.64545561279533
H           -0.11570182253392       -2.48635799847288       -1.05293482643148
H           -1.66210259254045       -0.63454460173240       -1.10676363649100
H           -1.72597064462167       -1.59583278079865        1.14993654037006
H           -2.82656216561873       -0.22764997888904        1.03062594713181
H           -1.28727549753790       -0.04268635072693        1.86334987265620
H           -2.43260068011679        1.61946486473697       -0.56399572570632
H           -0.93209943725142        1.71005284579448       -1.48546249964181
H           -0.92067652025818        1.98854180595903        0.25899970224335
23
 energy: -23.155965406983 gnorm: 0.000197469734 xtb: 6.7.1 (edcfbbe)
C            2.11251388462427        1.34677653041886       -0.03513728029488
C            1.25986396329350        0.24918027152749        0.59402789127923
C            0.35114766547869       -0.46310403683252       -0.42695946101099
H            0.66184748492663       -0.14607207470012       -1.42973092915802
C            0.54841592316950       -1.97879787018977       -0.35567578993211
C           -1.14322419891796       -0.09441520120757       -0.30585028133147
C           -1.77814568049469       -0.51894912453156        1.01762862341119
C           -1.36732392872063        1.39975627464425       -0.53741472512058
H            1.48838174353765        2.11490390010660       -0.48436357525431
H            2.74303793572670        1.81486716068434        0.71794894792342
H            2.75580236284065        0.93245654513773       -0.80862983270811
H            0.66307104993261        0.68251167585914        1.39651429992715
H            1.92601673817184       -0.48354934184183        1.05355679244764
H            1.57307780199970       -2.23390621746695       -0.61683120521678
H            0.35152413683074       -2.35135844168838        0.64619212656401
H           -0.11683088533334       -2.48600668407962       -1.05136992316276
H           -1.66232919667057       -0.63442513255625       -1.10780188515280
H           -1.72559960671407       -1.59575292776634        1.14914814494026
H           -2.82643417215081       -0.22854569527707        1.03007982015986
H           -1.28789038258344       -0.04315667040988        1.86313675702759
H           -2.43245193921689        1.61958499505329       -0.56315224923051
H           -0.93240269740532        1.71025093888427       -1.48486828301778
H           -0.92045841608374        1.98843999033792        0.25945902726610
23
 energy: -23.155966204474 gnorm: 0.000218712948 xtb: 6.7.1 (edcfbbe)
C            2.11305700914684        1.34630609809700       -0.03527289789351
C            1.25953809692413        0.24957924408214        0.59411745360819
C            0.35105940197724       -0.46293188623715       -0.42691993263600
H            0.66180640839691       -0.14595928499526       -1.42967627634073
C            0.54849544999802       -1.97858432793790       -0.35548284613110
C           -1.14330030052578       -0.09421837519363       -0.30597930937433
C           -1.77827592705828       -0.51942697827930        1.01724528099264
C           -1.36751638035364        1.39999049168620       -0.53706468573354
H            1.48951483195104        2.11382334997043       -0.48628588441913
H            2.74254877162315        1.81544600604180        0.71801838057381
H            2.75737001561569        0.93101934655104       -0.80733540339238
H            0.66247431744084        0.68372421332339        1.39594291633672
H            1.92501539945407       -0.48318531217471        1.05453021183220
H            1.57249243216252       -2.23391031458099       -0.61897446096703
H            0.35392915271365       -2.35062294020945        0.64702339179591
H           -0.11848114473791       -2.48601999570004       -1.04932544241750
H           -1.66222036450575       -0.63395279067723       -1.10822253653551
H           -1.72538106770900       -1.59614978996172        1.14828775587229
H           -2.82652082300388       -0.22932701382433        1.02969567625624
H           -1.28815528246898       -0.04383507187099        1.86279043102872
H           -2.43259694673988        1.61980112748159       -0.56275492634674
H           -0.93258802562543        1.71071373607481       -1.48438031857713
H           -0.92065543843452        1.98840933244032        0.25993043282324
23
 energy: -23.155967281889 gnorm: 0.000180647916 xtb: 6.7.1 (edcfbbe)