
                                 *****************
                                 * O   R   C   A *
                                 *****************

                                            #,                                       
                                            ###                                      
                                            ####                                     
                                            #####                                    
                                            ######                                   
                                           ########,                                 
                                     ,,################,,,,,                         
                               ,,#################################,,                 
                          ,,##########################################,,             
                       ,#########################################, ''#####,          
                    ,#############################################,,   '####,        
                  ,##################################################,,,,####,       
                ,###########''''           ''''###############################       
              ,#####''   ,,,,##########,,,,          '''####'''          '####       
            ,##' ,,,,###########################,,,                        '##       
           ' ,,###''''                  '''############,,,                           
         ,,##''                                '''############,,,,        ,,,,,,###''
      ,#''                                            '''#######################'''  
     '                                                          ''''####''''         
             ,#######,   #######,   ,#######,      ##                                
            ,#'     '#,  ##    ##  ,#'     '#,    #''#        ,####,   ,####,        
            ##       ##  ##   ,#'  ##            #'  '#       #'       #'  '#        
            ##       ##  #######   ##           ,######,      #####,   #    #        
            '#,     ,#'  ##    ##  '#,     ,#' ,#      #,     #,   #   #,  ,#        
             '#######'   ##     ##  '#######'  #'      '#     '####' # '####'        



                #########################################################
                #                        -***-                          #
                #          Department of theory and spectroscopy        #
                #                                                       #
                #                      Frank Neese                      #
                #                                                       #
                #     Directorship, Architecture, Infrastructure        #
                #                    SHARK, DRIVERS                     #
                #        Core code/Algorithms in most modules           #
                #                                                       #
                #        Max Planck Institute fuer Kohlenforschung      #
                #                Kaiser Wilhelm Platz 1                 #
                #                 D-45470 Muelheim/Ruhr                 #
                #                      Germany                          #
                #                                                       #
                #                  All rights reserved                  #
                #                        -***-                          #
                #########################################################


                         Program Version 6.0.0  -   RELEASE  -


 With contributions from (in alphabetic order):
   Daniel Aravena         : Magnetic Suceptibility
   Michael Atanasov       : Ab Initio Ligand Field Theory (pilot matlab implementation)
   Alexander A. Auer      : GIAO ZORA, VPT2 properties, NMR spectrum
   Ute Becker             : All parallelization in ORCA, NUMFREQ, NUMCALC
   Giovanni Bistoni       : ED, misc. LED, open-shell LED, HFLD
   Martin Brehm           : Molecular dynamics
   Dmytro Bykov           : pre 5.0 version of the SCF Hessian
   Marcos Casanova-Páez   : Triplet and SCS-CIS(D). UHF-(DLPNO)-IP/EA/STEOM-CCSD. UHF-CVS-IP/STEOM-CCSD
   Vijay G. Chilkuri      : MRCI spin determinant printing, contributions to CSF-ICE
   Pauline Colinet        : FMM embedding
   Dipayan Datta          : RHF DLPNO-CCSD density
   Achintya Kumar Dutta   : EOM-CC, STEOM-CC
   Nicolas Foglia         : Exact transition moments, OPA infrastructure, MCD improvements
   Dmitry Ganyushin       : Spin-Orbit,Spin-Spin,Magnetic field MRCI
   Miquel Garcia          : C-PCM and meta-GGA Hessian, CCSD/C-PCM, Gaussian charge scheme
   Tiago L. C. Gouveia    : GS-ROHF, GS-ROCIS
   Yang Guo               : DLPNO-NEVPT2, F12-NEVPT2, CIM, IAO-localization
   Andreas Hansen         : Spin unrestricted coupled pair/coupled cluster methods
   Ingolf Harden          : AUTO-CI MPn and infrastructure 
   Benjamin Helmich-Paris : MC-RPA, TRAH-(SCF,CASSCF), AVAS, COSX integrals, SCF dyn. polar.
   Lee Huntington         : MR-EOM, pCC
   Robert Izsak           : Overlap fitted RIJCOSX, COSX-SCS-MP3, EOM
   Riya Kayal             : Wick's Theorem for AUTO-CI, AUTO-CI UHF-CCSDT
   Emily Kempfer          : AUTO-CI, RHF CISDT and CCSDT
   Christian Kollmar      : KDIIS, OOCD, Brueckner-CCSD(T), CCSD density, CASPT2, CASPT2-K, improved NEVPT2
   Axel Koslowski         : Symmetry handling
   Simone Kossmann        : Meta GGA functionals, TD-DFT gradient, OOMP2, (MP2 Hessian; deprecated post 5.0)
   Lucas Lang             : DCDCAS
   Marvin Lechner         : AUTO-CI (C++ implementation), FIC-MRCC
   Spencer Leger          : CASSCF response
   Dagmar Lenk            : GEPOL surface, SMD, ORCA-2-JSON
   Dimitrios Liakos       : Extrapolation schemes; Compound Job, initial MDCI parallelization
   Dimitrios Manganas     : Further ROCIS development; embedding schemes. LFT, Crystal Embedding
   Dimitrios Pantazis     : SARC Basis sets
   Anastasios Papadopoulos: AUTO-CI, single reference methods and gradients
   Taras Petrenko         : pre 6.0 DFT Hessian and TD-DFT gradient, (ASA, deprecated), ECA, 1-Electron XAS/XES, NRVS
   Peter Pinski           : DLPNO-MP2, DLPNO-MP2 Gradient
   Christoph Reimann      : Effective Core Potentials
   Marius Retegan         : Local ZFS, SOC
   Christoph Riplinger    : Optimizer, TS searches, QM/MM, DLPNO-CCSD(T), (RO)-DLPNO pert. Triples
   Michael Roemelt        : Original ROCIS implementation
   Masaaki Saitow         : Open-shell DLPNO-CCSD energy and density
   Barbara Sandhoefer     : DKH picture change effects
   Kantharuban Sivalingam : CASSCF convergence/infrastructure, NEVPT2 and variants, FIC-MRCI
   Bernardo de Souza      : ESD, SOC TD-DFT
   Georgi Stoychev        : AutoAux, RI-MP2 NMR, DLPNO-MP2 response, X2C
   Van Anh Tran           : RI-MP2 g-tensors
   Willem Van den Heuvel  : Paramagnetic NMR
   Zikuan Wang            : NOTCH, Electric field optimization 
   Frank Wennmohs         : Technical directorship and infrastructure
   Hang Xu                : AUTO-CI-Response properties 


 We gratefully acknowledge several colleagues who have allowed us to
 interface, adapt or use parts of their codes:
   Stefan Grimme, W. Hujo, H. Kruse, P. Pracht,  : VdW corrections, initial TS optimization,
                  C. Bannwarth, S. Ehlert,         DFT functionals, gCP, sTDA/sTD-DF
                  L. Wittmann, M. Mueller
   Ed Valeev, F. Pavosevic, A. Kumar             : LibInt (2-el integral package), F12 methods
   Garnet Chan, S. Sharma, J. Yang, R. Olivares  : DMRG
   Ulf Ekstrom                                   : XCFun DFT Library
   Mihaly Kallay                                 : mrcc  (arbitrary order and MRCC methods)
   Frank Weinhold                                : gennbo (NPA and NBO analysis)
   Simon Mueller                                 : openCOSMO-RS
   Christopher J. Cramer and Donald G. Truhlar   : smd solvation model
   Lars Goerigk                                  : TD-DFT with DH, B97 family of functionals
   V. Asgeirsson, H. Jonsson                     : NEB implementation
   FAccTs GmbH                                   : IRC, NEB, NEB-TS, DLPNO-Multilevel, CI-OPT
                                                   MM, QMMM, 2- and 3-layer-ONIOM, Crystal-QMMM,
                                                   LR-CPCM, SF, NACMEs, symmetry and pop. for TD-DFT,
                                                   nearIR, NL-DFT gradient (VV10), updates on ESD,
                                                   ML-optimized integration grids, MBIS, APM,
                                                   GOAT, DOCKER, SOLVATOR, interface openCOSMO-RS
   S Lehtola, MJT Oliveira, MAL Marques          : LibXC Library
   Liviu Ungur et al                             : ANISO software


 Your calculation uses the libint2 library for the computation of 2-el integrals
 For citations please refer to: http://libint.valeyev.net

 Your ORCA version has been built with support for libXC version: 6.2.2
 For citations please refer to: https://libxc.gitlab.io

 This ORCA versions uses:
   CBLAS   interface :  Fast vector & matrix operations
   LAPACKE interface :  Fast linear algebra routines
   SCALAPACK package :  Parallel linear algebra routines
   Shared memory     :  Shared parallel matrices
   BLAS/LAPACK       :  OpenBLAS 0.3.27  USE64BITINT DYNAMIC_ARCH NO_AFFINITY SkylakeX SINGLE_THREADED
        Core in use  :  SkylakeX
   Copyright (c) 2011-2014, The OpenBLAS Project


Your calculation utilizes the geometrical counterpoise correction gCP
Please cite in your paper:
H.Kruse, S. Grimme J.Chem.Phys., 136, (2012), 154101 
   

Your calculation utilizes the atom-pairwise dispersion correction
based on EEQ partial charges (D4)


================================================================================

----- Orbital basis set information -----
Your calculation utilizes the basis: def2-SV(P)
   F. Weigend and R. Ahlrichs, Phys. Chem. Chem. Phys. 7, 3297 (2005).

----- AuxJ basis set information -----
Your calculation utilizes the auxiliary basis: def2/J
   F. Weigend, Phys. Chem. Chem. Phys. 8, 1057 (2006).

================================================================================
                                        WARNINGS
                       Please study these warnings very carefully!
================================================================================


================================================================================
                                       INPUT FILE
================================================================================
NAME = sp.inp
|  1> ! pbe def2-sv(p) def2/J RI DEFGRID1 loosescf d4 GCP(DFT/SV(P)) printgap
|  2> %output
|  3>     printlevel normal
|  4> end
|  5> * xyz 0 1
|  6> C -2.9176907029 0.1408337194 -1.0390044117
|  7> C -1.8476277646 0.1448753544 0.0498092932
|  8> C -2.0658805947 -0.9976277607 1.0384950272
|  9> C -0.4594338155 0.0375032272 -0.5877993583
| 10> O 0.5153521678 0.2405754627 0.4404137323
| 11> C 1.8206482786 0.1907083378 0.1966079028
| 12> O 2.5815807675 0.3754205983 1.1268682238
| 13> C 2.2892022949 -0.088957172 -1.2012879964
| 14> H -2.8740312176 -0.7837052113 -1.6092490332
| 15> H -2.7811126476 0.976426672 -1.7202187235
| 16> H -3.9028542263 0.2210717003 -0.5893494157
| 17> H -1.8861354982 1.0924557405 0.5955577065
| 18> H -1.2712399185 -1.0057550491 1.7805474415
| 19> H -2.0697036528 -1.9536962314 0.5198281704
| 20> H -3.0165215013 -0.8779668181 1.5503498847
| 21> H -0.327365168 -0.9531880247 -1.0336038411
| 22> H -0.3396252391 0.8023628637 -1.3612045467
| 23> H 3.3745046951 -0.0824812599 -1.2095324509
| 24> H 1.912037854 0.6705535559 -1.8821835836
| 25> H 1.9262745689 -1.0600381966 -1.5301185454
| 26> *
| 27> 
| 28>                          ****END OF INPUT****
================================================================================

                       ****************************
                       * Single Point Calculation *
                       ****************************

---------------------------------
CARTESIAN COORDINATES (ANGSTROEM)
---------------------------------
  C     -2.917691    0.140834   -1.039004
  C     -1.847628    0.144875    0.049809
  C     -2.065881   -0.997628    1.038495
  C     -0.459434    0.037503   -0.587799
  O      0.515352    0.240575    0.440414
  C      1.820648    0.190708    0.196608
  O      2.581581    0.375421    1.126868
  C      2.289202   -0.088957   -1.201288
  H     -2.874031   -0.783705   -1.609249
  H     -2.781113    0.976427   -1.720219
  H     -3.902854    0.221072   -0.589349
  H     -1.886135    1.092456    0.595558
  H     -1.271240   -1.005755    1.780547
  H     -2.069704   -1.953696    0.519828
  H     -3.016522   -0.877967    1.550350
  H     -0.327365   -0.953188   -1.033604
  H     -0.339625    0.802363   -1.361205
  H      3.374505   -0.082481   -1.209532
  H      1.912038    0.670554   -1.882184
  H      1.926275   -1.060038   -1.530119

----------------------------
CARTESIAN COORDINATES (A.U.)
----------------------------
  NO LB      ZA    FRAG     MASS         X           Y           Z
   0 C     6.0000    0    12.011   -5.513636    0.266137   -1.963434
   1 C     6.0000    0    12.011   -3.491510    0.273775    0.094126
   2 C     6.0000    0    12.011   -3.903949   -1.885243    1.962471
   3 C     6.0000    0    12.011   -0.868204    0.070871   -1.110780
   4 O     8.0000    0    15.999    0.973874    0.454622    0.832261
   5 C     6.0000    0    12.011    3.440527    0.360387    0.371535
   6 O     8.0000    0    15.999    4.878481    0.709442    2.129472
   7 C     6.0000    0    12.011    4.325965   -0.168105   -2.270105
   8 H     1.0000    0     1.008   -5.431132   -1.480988   -3.041040
   9 H     1.0000    0     1.008   -5.255541    1.845179   -3.250742
  10 H     1.0000    0     1.008   -7.375326    0.417765   -1.113709
  11 H     1.0000    0     1.008   -3.564280    2.064442    1.125441
  12 H     1.0000    0     1.008   -2.402295   -1.900602    3.364747
  13 H     1.0000    0     1.008   -3.911173   -3.691951    0.982333
  14 H     1.0000    0     1.008   -5.700400   -1.659117    2.929737
  15 H     1.0000    0     1.008   -0.618631   -1.801264   -1.953228
  16 H     1.0000    0     1.008   -0.641799    1.516246   -2.572304
  17 H     1.0000    0     1.008    6.376890   -0.155867   -2.285685
  18 H     1.0000    0     1.008    3.613228    1.267163   -3.556812
  19 H     1.0000    0     1.008    3.640131   -2.003182   -2.891505

--------------------------------
INTERNAL COORDINATES (ANGSTROEM)
--------------------------------
 C      0   0   0     0.000000000000     0.00000000     0.00000000
 C      1   0   0     1.526619242219     0.00000000     0.00000000
 C      2   1   0     1.526580212919   111.08307640     0.00000000
 C      2   1   3     1.531390220187   109.77045220   122.24310370
 O      4   2   1     1.431316948041   107.95752214   171.68824542
 C      5   4   2     1.328806212175   122.13142923   179.19832327
 O      6   5   4     1.215944545063   117.94689487   179.95549578
 C      6   5   4     1.500622740252   118.98800246   359.93243708
 H      1   2   3     1.087132610764   110.37809127   298.41960449
 H      1   2   3     1.086702390825   110.91366875   177.92495362
 H      1   2   3     1.085898207405   109.90025384    57.99161446
 H      2   1   3     1.094181321486   109.47278531   239.98910894
 H      3   2   1     1.087272570544   110.06692577   177.53080546
 H      3   2   1     1.087702553450   110.45726963    57.43027020
 H      3   2   1     1.086292902320   110.35536658   297.37022798
 H      4   2   1     1.094373300628   110.02774228   291.51025818
 H      4   2   1     1.094312544006   110.15138421    52.15626495
 H      8   6   5     1.085353033970   108.55345498   179.50360712
 H      8   6   5     1.087533154411   110.16901216    59.30788318
 H      8   6   5     1.087586511774   110.11216031   299.57934487

---------------------------
INTERNAL COORDINATES (A.U.)
---------------------------
 C      0   0   0     0.000000000000     0.00000000     0.00000000
 C      1   0   0     2.884892278569     0.00000000     0.00000000
 C      2   1   0     2.884818523880   111.08307640     0.00000000
 C      2   1   3     2.893908120319   109.77045220   122.24310370
 O      4   2   1     2.704797042638   107.95752214   171.68824542
 C      5   4   2     2.511079826063   122.13142923   179.19832327
 O      6   5   4     2.297802184205   117.94689487   179.95549578
 C      6   5   4     2.835766009412   118.98800246   359.93243708
 H      1   2   3     2.054382905598   110.37809127   298.41960449
 H      1   2   3     2.053569907737   110.91366875   177.92495362
 H      1   2   3     2.052050221311   109.90025384    57.99161446
 H      2   1   3     2.067703038460   109.47278531   239.98910894
 H      3   2   1     2.054647391252   110.06692577   177.53080546
 H      3   2   1     2.055459941188   110.45726963    57.43027020
 H      3   2   1     2.052796086608   110.35536658   297.37022798
 H      4   2   1     2.068065826463   110.02774228   291.51025818
 H      4   2   1     2.067951013087   110.15138421    52.15626495
 H      8   6   5     2.051019992823   108.55345498   179.50360712
 H      8   6   5     2.055139823396   110.16901216    59.30788318
 H      8   6   5     2.055240654200   110.11216031   299.57934487

---------------------
BASIS SET INFORMATION
---------------------
There are 3 groups of distinct atoms

 Group   1 Type C   : 7s4p1d contracted to 3s2p1d pattern {511/31/1}
 Group   2 Type O   : 7s4p1d contracted to 3s2p1d pattern {511/31/1}
 Group   3 Type H   : 4s contracted to 2s pattern {31}

Atom   0C    basis set group =>   1
Atom   1C    basis set group =>   1
Atom   2C    basis set group =>   1
Atom   3C    basis set group =>   1
Atom   4O    basis set group =>   2
Atom   5C    basis set group =>   1
Atom   6O    basis set group =>   2
Atom   7C    basis set group =>   1
Atom   8H    basis set group =>   3
Atom   9H    basis set group =>   3
Atom  10H    basis set group =>   3
Atom  11H    basis set group =>   3
Atom  12H    basis set group =>   3
Atom  13H    basis set group =>   3
Atom  14H    basis set group =>   3
Atom  15H    basis set group =>   3
Atom  16H    basis set group =>   3
Atom  17H    basis set group =>   3
Atom  18H    basis set group =>   3
Atom  19H    basis set group =>   3
---------------------------------
AUXILIARY/J BASIS SET INFORMATION
---------------------------------
There are 3 groups of distinct atoms

 Group   1 Type C   : 12s5p4d2f1g contracted to 6s4p3d1f1g pattern {711111/2111/211/2/1}
 Group   2 Type O   : 12s5p4d2f1g contracted to 6s4p3d1f1g pattern {711111/2111/211/2/1}
 Group   3 Type H   : 5s2p1d contracted to 3s1p1d pattern {311/2/1}

Atom   0C    basis set group =>   1
Atom   1C    basis set group =>   1
Atom   2C    basis set group =>   1
Atom   3C    basis set group =>   1
Atom   4O    basis set group =>   2
Atom   5C    basis set group =>   1
Atom   6O    basis set group =>   2
Atom   7C    basis set group =>   1
Atom   8H    basis set group =>   3
Atom   9H    basis set group =>   3
Atom  10H    basis set group =>   3
Atom  11H    basis set group =>   3
Atom  12H    basis set group =>   3
Atom  13H    basis set group =>   3
Atom  14H    basis set group =>   3
Atom  15H    basis set group =>   3
Atom  16H    basis set group =>   3
Atom  17H    basis set group =>   3
Atom  18H    basis set group =>   3
Atom  19H    basis set group =>   3
------------------------------------------------------------------------------
                             ORCA STARTUP CALCULATIONS
                           -- RI-GTO INTEGRALS CHOSEN --
------------------------------------------------------------------------------
------------------------------------------------------------------------------
                   ___                                                        
                  /   \      - P O W E R E D   B Y -                         
                 /     \                                                     
                 |  |  |   _    _      __       _____    __    __             
                 |  |  |  | |  | |    /  \     |  _  \  |  |  /  |          
                  \  \/   | |  | |   /    \    | | | |  |  | /  /          
                 / \  \   | |__| |  /  /\  \   | |_| |  |  |/  /          
                |  |  |   |  __  | /  /__\  \  |    /   |      \           
                |  |  |   | |  | | |   __   |  |    \   |  |\   \          
                \     /   | |  | | |  |  |  |  | |\  \  |  | \   \       
                 \___/    |_|  |_| |__|  |__|  |_| \__\ |__|  \__/        
                                                                              
                      - O R C A' S   B I G   F R I E N D -                    
                                      &                                       
                       - I N T E G R A L  F E E D E R -                       
                                                                              
 v1 FN, 2020, v2 2021, v3 2022-2024                                           
------------------------------------------------------------------------------


----------------------
SHARK INTEGRAL PACKAGE
----------------------

Number of atoms                             ...     20
Number of basis functions                   ...    136
Number of shells                            ...     72
Maximum angular momentum                    ...      2
Integral batch strategy                     ... SHARK/LIBINT Hybrid
RI-J (if used) integral strategy            ... SPLIT-RIJ (Revised 2003 algorithm where possible)
Printlevel                                  ...      1
Contraction scheme used                     ... SEGMENTED contraction
Prescreening option                         ... SCHWARTZ
   Thresh                                   ... 1.000e-09
   Tcut                                     ... 1.000e-10
   Tpresel                                  ... 1.000e-10 
Coulomb Range Separation                    ... NOT USED
Exchange Range Separation                   ... NOT USED
Multipole approximations                    ... NOT USED
Finite Nucleus Model                        ... NOT USED
CABS basis                                  ... NOT available
Auxiliary Coulomb fitting basis             ... AVAILABLE
   # of basis functions in Aux-J            ...    524
   # of shells in Aux-J                     ...    180
   Maximum angular momentum in Aux-J        ...      4
Auxiliary J/K fitting basis                 ... NOT available
Auxiliary Correlation fitting basis         ... NOT available
Auxiliary 'external' fitting basis          ... NOT available

Checking pre-screening integrals            ... done (  0.0 sec) Dimension = 72
Check shell pair data                       ... done (  0.0 sec)
Shell pair information
Shell pair cut-off parameter TPreSel        ...   1.0e-10
Total number of shell pairs                 ...      2628
Shell pairs after pre-screening             ...      2422
Total number of primitive shell pairs       ...     10580
Primitive shell pairs kept                  ...      6815
          la=0 lb=0:   1078 shell pairs
          la=1 lb=0:    731 shell pairs
          la=1 lb=1:    132 shell pairs
          la=2 lb=0:    335 shell pairs
          la=2 lb=1:    116 shell pairs
          la=2 lb=2:     30 shell pairs

Calculating one electron integrals          ... done (  0.0 sec)
Calculating RI/J V-Matrix + Cholesky decomp.... done (  0.1 sec)
Calculating Nuclear repulsion               ... done (  0.0 sec) ENN=    391.548191087630 Eh

Diagonalization of the overlap matrix:
Smallest eigenvalue                        ... 1.874e-03
Time for diagonalization                   ...    0.002 sec
Threshold for overlap eigenvalues          ... 1.000e-07
Number of eigenvalues below threshold      ... 0
Time for construction of square roots      ...    0.016 sec
Total time needed                          ...    0.026 sec

-------------------
DFT GRID GENERATION
-------------------

General Integration Accuracy     IntAcc      ... 4.159
Radial Grid Type                 RadialGrid  ... OptM3 with GC (2021)
Angular Grid (max. ang.)         AngularGrid ... 3 (Lebedev-194)
Angular grid pruning method      GridPruning ... 4 (adaptive)
Weight generation scheme         WeightScheme... mBecke (2022)
Basis function cutoff            BFCut       ... 1.0000e-10
Integration weight cutoff        WCut        ... 1.0000e-14
Partially contracted basis set               ... off
Rotationally invariant grid construction     ... off
Angular grids for H and He will be reduced by one unit

Total number of grid points                  ...    42904
Total number of batches                      ...      682
Average number of points per batch           ...       62
Average number of grid points per atom       ...     2145
Initializing property integral containers    ... done (  0.0 sec)

SHARK setup successfully completed in   0.7 seconds

Maximum memory used throughout the entire STARTUP-calculation: 21.3 MB
-------------------------------------------------------------------------------
                                 ORCA GUESS
                   Start orbitals & Density for SCF / CASSCF
-------------------------------------------------------------------------------

------------
SCF SETTINGS
------------
Hamiltonian:
 Density Functional     Method          .... DFT(GTOs)
 Exchange Functional    Exchange        .... PBE
   PBE kappa parameter   XKappa         ....  0.804000
   PBE mue parameter    XMuePBE         ....  0.219520
 Correlation Functional Correlation     .... PBE
   PBE beta parameter  CBetaPBE         ....  0.066725
 LDA part of GGA corr.  LDAOpt          .... PW91-LDA
 Gradients option       PostSCFGGA      .... off
   NL short-range parameter             ....  6.400000
 RI-approximation to the Coulomb term is turned on
   Number of AuxJ basis functions       .... 524


General Settings:
 Integral files         IntName         .... sp
 Hartree-Fock type      HFTyp           .... RHF
 Total Charge           Charge          ....    0
 Multiplicity           Mult            ....    1
 Number of Electrons    NEL             ....   64
 Basis Dimension        Dim             ....  136
 Nuclear Repulsion      ENuc            ....    391.5481910876 Eh

Convergence Acceleration:
 AO-DIIS                CNVDIIS         .... on
   Start iteration      DIISMaxIt       ....    12
   Startup error        DIISStart       ....  0.200000
   # of expansion vecs  DIISMaxEq       ....     5
   Bias factor          DIISBfac        ....   1.050
   Max. coefficient     DIISMaxC        ....  10.000
 MO-DIIS                CNVKDIIS        .... off
 Trust-Rad. Augm. Hess. CNVTRAH         .... auto
   Auto Start mean grad. ratio tolernc. ....  1.125000
   Auto Start start iteration           ....    50
   Auto Start num. interpolation iter.  ....    10
   Max. Number of Micro iterations      ....    24
   Max. Number of Macro iterations      .... Maxiter - #DIIS iter
   Number of Davidson start vectors     ....     2
   Converg. threshold    (grad. norm)   ....   1.000e-04
   Grad. Scal. Fac. for Micro threshold ....   0.100
   Minimum threshold for Micro iter.    ....   1.000e-02
   NR start threshold (gradient norm)   ....   1.000e-04
   Initial trust radius                 ....   0.400
   Minimum AH scaling param. (alpha)    ....   1.000
   Maximum AH scaling param. (alpha)    .... 1000.000
   Quad. conv. algorithm                .... NR
   White noise on init. David. guess    .... on
   Maximum white noise                  ....   0.010
   Pseudo random numbers                .... off
   Inactive MOs                         .... canonical
   Orbital update algorithm             .... Taylor
   Preconditioner                       .... Diag
   Full preconditioner red. dimension   ....   250
 SOSCF                  CNVSOSCF        .... on
   Start iteration      SOSCFMaxIt      ....   150
   Startup grad/error   SOSCFStart      ....  0.003300
   Hessian update       SOSCFHessUp     .... L-BFGS
 Level Shifting         CNVShift        .... on
   Level shift para.    LevelShift      ....    0.2500
   Turn off err/grad.   ShiftErr        ....    0.0010
 Zerner damping         CNVZerner       .... off
 Static damping         CNVDamp         .... on
   Fraction old density DampFac         ....    0.7000
   Max. Damping (<1)    DampMax         ....    0.9800
   Min. Damping (>=0)   DampMin         ....    0.0000
   Turn off err/grad.   DampErr         ....    0.1000

SCF Procedure:
 Maximum # iterations   MaxIter         ....   125
 SCF integral mode      SCFMode         .... Direct
   Integral package                     .... SHARK and LIBINT hybrid scheme
 Reset frequency        DirectResetFreq ....    20
 Integral Threshold     Thresh          ....  1.000e-09 Eh
 Primitive CutOff       TCut            ....  1.000e-10 Eh

Convergence Tolerance:
 Convergence Check Mode ConvCheckMode   .... Total+1el-Energy
 Convergence forced     ConvForced      .... 0
 Energy Change          TolE            ....  1.000e-05 Eh
 1-El. energy change                    ....  1.000e-02 Eh
 Orbital Gradient       TolG            ....  1.000e-04
 Orbital Rotation angle TolX            ....  1.000e-04
 DIIS Error             TolErr          ....  5.000e-04

------------------------------
INITIAL GUESS: MODEL POTENTIAL
------------------------------
Loading Hartree-Fock densities                     ... done
Calculating cut-offs                               ... done
Initializing the effective Hamiltonian             ... done
Setting up the integral package (SHARK)            ... done
Starting the Coulomb interaction                   ... done (   0.1 sec)
Making the grid                                    ... done (   0.2 sec)
Mapping shells                                     ... done
Starting the XC term evaluation                    ... done (   0.1 sec)
  promolecular density results
     # of electrons  =     63.994973173
     EX              =    -50.547263773
     EC              =     -2.111147125
     EX+EC           =    -52.658410899
Transforming the Hamiltonian                       ... done (   0.0 sec)
Diagonalizing the Hamiltonian                      ... done (   0.0 sec)
Back transforming the eigenvectors                 ... done (   0.0 sec)
Now organizing SCF variables                       ... done
                      ------------------
                      INITIAL GUESS DONE (   0.5 sec)
                      ------------------
             **** ENERGY FILE WAS UPDATED (sp.en.tmp) ****
Finished Guess after   0.7 sec
Maximum memory used throughout the entire GUESS-calculation: 16.3 MB

-------------------------------------------------------------------------------------------
                                      ORCA LEAN-SCF
                              memory conserving SCF solver
-------------------------------------------------------------------------------------------

----------------------------------------D-I-I-S--------------------------------------------
Iteration    Energy (Eh)           Delta-E    RMSDP     MaxDP     DIISErr   Damp  Time(sec)
-------------------------------------------------------------------------------------------
               ***  Starting incremental Fock matrix formation  ***
    1    -385.2579825924603369     0.00e+00  5.66e-03  1.41e-01  2.59e-01  0.700   0.7
    2    -385.3928740422585975    -1.35e-01  3.52e-03  8.55e-02  7.94e-02  0.700   0.8
                               ***Turning on AO-DIIS***
    3    -385.4326826750913710    -3.98e-02  1.35e-03  1.73e-02  3.00e-02  0.700   2.9
    4    -385.4593712434162285    -2.67e-02  1.86e-03  2.36e-02  2.34e-02  0.000   0.8
    5    -385.5216905869593234    -6.23e-02  6.56e-04  1.42e-02  1.15e-02  0.000   0.7
                              *** Initializing SOSCF ***
---------------------------------------S-O-S-C-F--------------------------------------
Iteration    Energy (Eh)           Delta-E    RMSDP     MaxDP     MaxGrad    Time(sec)
--------------------------------------------------------------------------------------
    6    -385.5225781068807578    -8.88e-04  2.33e-04  2.64e-03  3.10e-03     0.7
               *** Restarting incremental Fock matrix formation ***
    7    -385.5226363652115538    -5.83e-05  1.87e-04  3.78e-03  7.82e-04     0.7
    8    -385.5226115037953036     2.49e-05  1.04e-04  2.64e-03  2.16e-03     0.6
    9    -385.5226443711634943    -3.29e-05  7.61e-05  1.37e-03  4.08e-04     0.8
   10    -385.5226383117405362     6.06e-06  4.68e-05  1.02e-03  6.26e-04     0.7
                 **** Energy Check signals convergence ****

               *****************************************************
               *                     SUCCESS                       *
               *           SCF CONVERGED AFTER  10 CYCLES          *
               *****************************************************

             **** ENERGY FILE WAS UPDATED (sp.en.tmp) ****

----------------
TOTAL SCF ENERGY
----------------

Total Energy       :       -385.52263831174054 Eh          -10490.60432 eV

Components:
Nuclear Repulsion  :        391.54819108763019 Eh           10654.56795 eV
Electronic Energy  :       -777.07082939937072 Eh          -21145.17227 eV
One Electron Energy:      -1299.19985480360856 Eh          -35353.02536 eV
Two Electron Energy:        522.12902540423784 Eh           14207.85309 eV

Virial components:
Potential Energy   :       -767.92275897908178 Eh          -20896.24062 eV
Kinetic Energy     :        382.40012066734124 Eh           10405.63630 eV
Virial Ratio       :          2.00816557703735

DFT components:
N(Alpha)           :       31.999823630942 electrons
N(Beta)            :       31.999823630942 electrons
N(Total)           :       63.999647261883 electrons
E(X)               :      -51.596987766422 Eh       
E(C)               :       -2.124032857619 Eh       
E(XC)              :      -53.721020624041 Eh       

---------------
SCF CONVERGENCE
---------------

  Last Energy change         ...   -6.0594e-06  Tolerance :   1.0000e-05
  Last MAX-Density change    ...    1.0217e-03  Tolerance :   1.0000e-03
  Last RMS-Density change    ...    4.6812e-05  Tolerance :   1.0000e-04
  Last DIIS Error            ...    3.0965e-03  Tolerance :   5.0000e-04
  Last Orbital Gradient      ...    6.2628e-04  Tolerance :   1.0000e-04
  Last Orbital Rotation      ...    5.9755e-04  Tolerance :   1.0000e-04


----------------
ORBITAL ENERGIES
----------------

  NO   OCC          E(Eh)            E(eV) 
   0   2.0000     -18.797594      -511.5085 
   1   2.0000     -18.720322      -509.4058 
   2   2.0000     -10.008091      -272.3340 
   3   2.0000      -9.956225      -270.9227 
   4   2.0000      -9.909303      -269.6458 
   5   2.0000      -9.902176      -269.4519 
   6   2.0000      -9.889445      -269.1055 
   7   2.0000      -9.880002      -268.8485 
   8   2.0000      -1.001846       -27.2616 
   9   2.0000      -0.905527       -24.6406 
  10   2.0000      -0.742929       -20.2161 
  11   2.0000      -0.678429       -18.4610 
  12   2.0000      -0.644205       -17.5297 
  13   2.0000      -0.622648       -16.9431 
  14   2.0000      -0.524627       -14.2758 
  15   2.0000      -0.516219       -14.0470 
  16   2.0000      -0.457572       -12.4512 
  17   2.0000      -0.449281       -12.2256 
  18   2.0000      -0.422152       -11.4873 
  19   2.0000      -0.410601       -11.1730 
  20   2.0000      -0.388065       -10.5598 
  21   2.0000      -0.381064       -10.3693 
  22   2.0000      -0.363504        -9.8914 
  23   2.0000      -0.352743        -9.5986 
  24   2.0000      -0.347793        -9.4639 
  25   2.0000      -0.336688        -9.1617 
  26   2.0000      -0.317086        -8.6283 
  27   2.0000      -0.307773        -8.3749 
  28   2.0000      -0.301894        -8.2150 
  29   2.0000      -0.288216        -7.8427 
  30   2.0000      -0.247922        -6.7463 
  31   2.0000      -0.208213        -5.6658 
  32   0.0000      -0.017867        -0.4862 
  33   0.0000       0.018207         0.4955 
  34   0.0000       0.039582         1.0771 
  35   0.0000       0.052492         1.4284 
  36   0.0000       0.074468         2.0264 
  37   0.0000       0.084350         2.2953 
  38   0.0000       0.088868         2.4182 
  39   0.0000       0.095888         2.6092 
  40   0.0000       0.109178         2.9709 
  41   0.0000       0.113501         3.0885 
  42   0.0000       0.122522         3.3340 
*Only the first 10 virtual orbitals were printed.

                    ********************************
                    * MULLIKEN POPULATION ANALYSIS *
                    ********************************

-----------------------
MULLIKEN ATOMIC CHARGES
-----------------------
   0 C :   -0.254500
   1 C :   -0.166868
   2 C :   -0.257096
   3 C :   -0.002148
   4 O :   -0.207817
   5 C :    0.086107
   6 O :   -0.187034
   7 C :   -0.308748
   8 H :    0.097432
   9 H :    0.103754
  10 H :    0.110829
  11 H :    0.091873
  12 H :    0.125656
  13 H :    0.090169
  14 H :    0.105352
  15 H :    0.085043
  16 H :    0.093823
  17 H :    0.136303
  18 H :    0.128597
  19 H :    0.129273
Sum of atomic charges:    0.0000000

--------------------------------
MULLIKEN REDUCED ORBITAL CHARGES
--------------------------------
  0 C s       :     3.091635  s :     3.091635
      pz      :     1.035085  p :     3.133928
      px      :     1.043815
      py      :     1.055029
      dz2     :     0.002788  d :     0.028937
      dxz     :     0.005686
      dyz     :     0.010366
      dx2y2   :     0.008730
      dxy     :     0.001367

  1 C s       :     3.088834  s :     3.088834
      pz      :     1.012107  p :     3.035279
      px      :     0.959800
      py      :     1.063372
      dz2     :     0.006276  d :     0.042755
      dxz     :     0.009451
      dyz     :     0.010968
      dx2y2   :     0.010882
      dxy     :     0.005179

  2 C s       :     3.093380  s :     3.093380
      pz      :     1.041106  p :     3.134978
      px      :     1.073044
      py      :     1.020828
      dz2     :     0.002746  d :     0.028738
      dxz     :     0.009185
      dyz     :     0.006414
      dx2y2   :     0.008951
      dxy     :     0.001442

  3 C s       :     3.072112  s :     3.072112
      pz      :     0.908250  p :     2.870349
      px      :     0.912859
      py      :     1.049239
      dz2     :     0.008258  d :     0.059688
      dxz     :     0.016458
      dyz     :     0.014765
      dx2y2   :     0.012836
      dxy     :     0.007372

  4 O s       :     3.733452  s :     3.733452
      pz      :     1.552445  p :     4.458406
      px      :     1.195482
      py      :     1.710479
      dz2     :     0.003229  d :     0.015959
      dxz     :     0.004967
      dyz     :     0.001885
      dx2y2   :     0.003145
      dxy     :     0.002733

  5 C s       :     3.068041  s :     3.068041
      pz      :     1.000833  p :     2.715339
      px      :     0.845412
      py      :     0.869093
      dz2     :     0.037084  d :     0.130513
      dxz     :     0.032170
      dyz     :     0.013372
      dx2y2   :     0.024509
      dxy     :     0.023379

  6 O s       :     3.746088  s :     3.746088
      pz      :     1.477799  p :     4.423595
      px      :     1.574911
      py      :     1.370886
      dz2     :     0.004045  d :     0.017351
      dxz     :     0.005799
      dyz     :     0.003357
      dx2y2   :     0.001843
      dxy     :     0.002307

  7 C s       :     3.060790  s :     3.060790
      pz      :     1.059371  p :     3.222061
      px      :     1.093483
      py      :     1.069206
      dz2     :     0.006036  d :     0.025897
      dxz     :     0.003987
      dyz     :     0.006090
      dx2y2   :     0.006459
      dxy     :     0.003325

  8 H s       :     0.902568  s :     0.902568

  9 H s       :     0.896246  s :     0.896246

 10 H s       :     0.889171  s :     0.889171

 11 H s       :     0.908127  s :     0.908127

 12 H s       :     0.874344  s :     0.874344

 13 H s       :     0.909831  s :     0.909831

 14 H s       :     0.894648  s :     0.894648

 15 H s       :     0.914957  s :     0.914957

 16 H s       :     0.906177  s :     0.906177

 17 H s       :     0.863697  s :     0.863697

 18 H s       :     0.871403  s :     0.871403

 19 H s       :     0.870727  s :     0.870727


------------------------
MULLIKEN OVERLAP CHARGES
------------------------
B(  0-C ,  1-C ) :   0.7729 B(  0-C ,  2-C ) :  -0.1174 B(  0-C ,  3-C ) :  -0.0865 
B(  0-C ,  8-H ) :   0.7427 B(  0-C ,  9-H ) :   0.7355 B(  0-C , 10-H ) :   0.7405 
B(  1-C ,  2-C ) :   0.8256 B(  1-C ,  3-C ) :   0.7352 B(  1-C ,  4-O ) :  -0.1209 
B(  1-C , 11-H ) :   0.6950 B(  1-C , 12-H ) :  -0.0522 B(  1-C , 16-H ) :  -0.0768 
B(  2-C ,  3-C ) :  -0.0967 B(  2-C , 11-H ) :  -0.0747 B(  2-C , 12-H ) :   0.7410 
B(  2-C , 13-H ) :   0.7428 B(  2-C , 14-H ) :   0.7450 B(  3-C ,  4-O ) :   0.5658 
B(  3-C ,  5-C ) :  -0.0617 B(  3-C , 11-H ) :  -0.0646 B(  3-C , 15-H ) :   0.6946 
B(  3-C , 16-H ) :   0.7262 B(  4-O ,  5-C ) :   0.6581 B(  4-O ,  6-O ) :  -0.1819 
B(  4-O ,  7-C ) :  -0.2762 B(  4-O , 15-H ) :  -0.0582 B(  4-O , 16-H ) :  -0.0539 
B(  5-C ,  6-O ) :   1.4942 B(  5-C ,  7-C ) :   0.5503 B(  6-O ,  7-C ) :  -0.2301 
B(  7-C , 17-H ) :   0.6408 B(  7-C , 18-H ) :   0.6436 B(  7-C , 19-H ) :   0.6456 
B(  8-H ,  9-H ) :  -0.0508 B( 15-H , 16-H ) :  -0.0920 


                     *******************************
                     * LOEWDIN POPULATION ANALYSIS *
                     *******************************

----------------------
LOEWDIN ATOMIC CHARGES
----------------------
   0 C :   -0.328255
   1 C :   -0.166060
   2 C :   -0.332126
   3 C :   -0.096803
   4 O :   -0.062602
   5 C :    0.024971
   6 O :   -0.160351
   7 C :   -0.373576
   8 H :    0.118019
   9 H :    0.118566
  10 H :    0.124943
  11 H :    0.125221
  12 H :    0.127410
  13 H :    0.115470
  14 H :    0.121211
  15 H :    0.108504
  16 H :    0.109136
  17 H :    0.145017
  18 H :    0.140391
  19 H :    0.140917

-------------------------------
LOEWDIN REDUCED ORBITAL CHARGES
-------------------------------
  0 C s       :     2.945606  s :     2.945606
      pz      :     1.095090  p :     3.311987
      px      :     1.094924
      py      :     1.121974
      dz2     :     0.006056  d :     0.070661
      dxz     :     0.016095
      dyz     :     0.024212
      dx2y2   :     0.021624
      dxy     :     0.002674

  1 C s       :     2.879511  s :     2.879511
      pz      :     1.061341  p :     3.182223
      px      :     1.033091
      py      :     1.087791
      dz2     :     0.012748  d :     0.104326
      dxz     :     0.026319
      dyz     :     0.027247
      dx2y2   :     0.028365
      dxy     :     0.009648

  2 C s       :     2.946878  s :     2.946878
      pz      :     1.101184  p :     3.314949
      px      :     1.125960
      py      :     1.087805
      dz2     :     0.005533  d :     0.070299
      dxz     :     0.022008
      dyz     :     0.018032
      dx2y2   :     0.021595
      dxy     :     0.003132

  3 C s       :     2.929511  s :     2.929511
      pz      :     0.967390  p :     3.033595
      px      :     0.954403
      py      :     1.111802
      dz2     :     0.017864  d :     0.133697
      dxz     :     0.037386
      dyz     :     0.034643
      dx2y2   :     0.030441
      dxy     :     0.013363

  4 O s       :     3.449567  s :     3.449567
      pz      :     1.595890  p :     4.580671
      px      :     1.285822
      py      :     1.698959
      dz2     :     0.005893  d :     0.032364
      dxz     :     0.010823
      dyz     :     0.002268
      dx2y2   :     0.008556
      dxy     :     0.004823

  5 C s       :     2.855689  s :     2.855689
      pz      :     1.050466  p :     2.824455
      px      :     0.919689
      py      :     0.854300
      dz2     :     0.087665  d :     0.294885
      dxz     :     0.077581
      dyz     :     0.024470
      dx2y2   :     0.058900
      dxy     :     0.046269

  6 O s       :     3.555732  s :     3.555732
      pz      :     1.567656  p :     4.574300
      px      :     1.632380
      py      :     1.374264
      dz2     :     0.006859  d :     0.030319
      dxz     :     0.012352
      dyz     :     0.004573
      dx2y2   :     0.003317
      dxy     :     0.003218

  7 C s       :     2.956011  s :     2.956011
      pz      :     1.092952  p :     3.350388
      px      :     1.137551
      py      :     1.119885
      dz2     :     0.017461  d :     0.067177
      dxz     :     0.010118
      dyz     :     0.015750
      dx2y2   :     0.016873
      dxy     :     0.006975

  8 H s       :     0.881981  s :     0.881981

  9 H s       :     0.881434  s :     0.881434

 10 H s       :     0.875057  s :     0.875057

 11 H s       :     0.874779  s :     0.874779

 12 H s       :     0.872590  s :     0.872590

 13 H s       :     0.884530  s :     0.884530

 14 H s       :     0.878789  s :     0.878789

 15 H s       :     0.891496  s :     0.891496

 16 H s       :     0.890864  s :     0.890864

 17 H s       :     0.854983  s :     0.854983

 18 H s       :     0.859609  s :     0.859609

 19 H s       :     0.859083  s :     0.859083


---------------------------------
LOEWDIN BOND ORDERS (THRESH 0.050000)
---------------------------------
B(  0-C ,  1-C ) :   1.0925 B(  0-C ,  2-C ) :   0.0544 B(  0-C ,  3-C ) :   0.0624 
B(  0-C ,  8-H ) :   0.9364 B(  0-C ,  9-H ) :   0.9361 B(  0-C , 10-H ) :   0.9339 
B(  1-C ,  2-C ) :   1.0961 B(  1-C ,  3-C ) :   1.0702 B(  1-C ,  4-O ) :   0.0555 
B(  1-C , 11-H ) :   0.8712 B(  2-C ,  3-C ) :   0.0544 B(  2-C , 12-H ) :   0.9318 
B(  2-C , 13-H ) :   0.9363 B(  2-C , 14-H ) :   0.9360 B(  3-C ,  4-O ) :   1.0854 
B(  3-C ,  5-C ) :   0.0701 B(  3-C , 15-H ) :   0.9046 B(  3-C , 16-H ) :   0.9059 
B(  4-O ,  5-C ) :   1.3824 B(  4-O ,  6-O ) :   0.2035 B(  4-O ,  7-C ) :   0.0685 
B(  5-C ,  6-O ) :   2.2393 B(  5-C ,  7-C ) :   1.1065 B(  6-O ,  7-C ) :   0.1007 
B(  7-C , 17-H ) :   0.9231 B(  7-C , 18-H ) :   0.9144 B(  7-C , 19-H ) :   0.9142 


------------------------------------------
LOEWDIN REDUCED ORBITAL POPULATIONS PER MO
-------------------------------------------
THRESHOLD FOR PRINTING IS 0.1%%
                      0         1         2         3         4         5   
                 -18.79759 -18.72032 -10.00809  -9.95623  -9.90930  -9.90218
                   2.00000   2.00000   2.00000   2.00000   2.00000   2.00000
                  --------  --------  --------  --------  --------  --------
 1 C  s               0.0       0.0       0.0       0.0      99.6       0.0
 3 C  s               0.0       0.0       0.0      99.6       0.0       0.0
 4 O  s              99.9       0.0       0.0       0.0       0.0       0.0
 4 O  px              0.0       0.0       0.2       0.0       0.0       0.0
 5 C  s               0.0       0.0      99.4       0.0       0.0       0.0
 5 C  pz              0.0       0.0       0.0       0.0       0.0       0.1
 6 O  s               0.0      99.9       0.0       0.0       0.0       0.0
 6 O  pz              0.0       0.0       0.2       0.0       0.0       0.0
 6 O  px              0.0       0.0       0.1       0.0       0.0       0.0
 7 C  s               0.0       0.0       0.0       0.0       0.0      99.7

                      6         7         8         9        10        11   
                  -9.88945  -9.88000  -1.00185  -0.90553  -0.74293  -0.67843
                   2.00000   2.00000   2.00000   2.00000   2.00000   2.00000
                  --------  --------  --------  --------  --------  --------
 0 C  s              99.7       0.0       0.0       0.0      11.3       0.6
 0 C  pz              0.0       0.0       0.0       0.0       1.4       0.0
 0 C  px              0.0       0.0       0.0       0.0       1.7       0.0
 1 C  s               0.0       0.0       0.3       0.3      26.6       0.2
 1 C  pz              0.1       0.0       0.0       0.0       0.4       0.0
 1 C  px              0.1       0.0       0.6       0.4       0.0       0.3
 1 C  py              0.0       0.1       0.0       0.0       0.5       0.0
 2 C  s               0.0      99.7       0.0       0.0       9.9       0.1
 2 C  pz              0.0       0.0       0.0       0.0       1.6       0.0
 2 C  py              0.0       0.0       0.0       0.0       1.5       0.0
 3 C  s               0.0       0.0       5.1       2.9      10.7       0.1
 3 C  pz              0.0       0.0       2.6       0.9       0.2       0.5
 3 C  px              0.0       0.0       3.0       0.7       4.9       0.1
 3 C  dxz             0.0       0.0       0.4       0.1       0.1       0.0
 4 O  s               0.0       0.0      45.2      10.5       1.0       1.6
 4 O  pz              0.0       0.0       1.4       1.2       0.2       0.3
 4 O  px              0.0       0.0       1.4       1.3       3.8       1.3
 4 O  dx2y2           0.0       0.0       0.1       0.0       0.0       0.0
 5 C  s               0.0       0.0      17.5       7.2       0.5       4.9
 5 C  pz              0.0       0.0       1.6       6.7       0.2      17.0
 5 C  px              0.0       0.0       3.9      15.2       1.8       0.6
 5 C  py              0.0       0.0       0.1       0.3       0.0       0.7
 5 C  dz2             0.0       0.0       0.0       0.5       0.0       0.2
 5 C  dxz             0.0       0.0       0.0       1.1       0.1       0.2
 5 C  dx2y2           0.0       0.0       1.0       0.0       0.0       0.0
 6 O  s               0.0       0.0       8.4      43.0       1.0       2.2
 6 O  pz              0.0       0.0       1.0       3.2       0.0       0.4
 6 O  px              0.0       0.0       1.3       1.7       0.1       0.1
 6 O  py              0.0       0.0       0.0       0.1       0.0       0.0
 6 O  dxz             0.0       0.0       0.1       0.1       0.0       0.0
 7 C  s               0.0       0.0       1.0       0.4       0.2      40.0
 7 C  pz              0.0       0.0       1.4       0.7       0.0       0.3
 7 C  px              0.0       0.0       0.3       0.1       0.0       0.2
 8 H  s               0.1       0.0       0.0       0.0       2.2       0.1
 9 H  s               0.1       0.0       0.0       0.0       2.0       0.1
10 H  s               0.1       0.0       0.0       0.0       2.0       0.1
11 H  s               0.0       0.0       0.1       0.1       4.6       0.0
12 H  s               0.0       0.1       0.0       0.0       1.6       0.0
13 H  s               0.0       0.1       0.0       0.0       1.9       0.0
14 H  s               0.0       0.1       0.0       0.0       1.7       0.0
15 H  s               0.0       0.0       0.6       0.3       2.1       0.0
16 H  s               0.0       0.0       0.6       0.3       1.9       0.0
17 H  s               0.0       0.0       0.1       0.1       0.0       8.3
18 H  s               0.0       0.0       0.2       0.0       0.0       9.4
19 H  s               0.0       0.0       0.2       0.0       0.0       9.4

                     12        13        14        15        16        17   
                  -0.64420  -0.62265  -0.52463  -0.51622  -0.45757  -0.44928
                   2.00000   2.00000   2.00000   2.00000   2.00000   2.00000
                  --------  --------  --------  --------  --------  --------
 0 C  s              10.6      18.0       5.5       0.3       0.0       0.0
 0 C  pz              0.1       0.7       2.3       1.9       0.0       0.5
 0 C  px              0.2       0.0       5.6       0.1       0.4       0.2
 0 C  py              0.0       0.1       0.2       0.8       1.8       0.0
 0 C  dxz             0.0       0.0       0.2       0.0       0.0       0.0
 1 C  s               0.7       0.1       8.6       5.5       0.2       0.3
 1 C  pz              0.2      11.7       0.1       2.9       0.6       0.6
 1 C  px             10.5       0.7       1.3       0.0       0.8       0.2
 1 C  py              0.3       3.6       1.7       5.6       5.2       0.1
 1 C  dxz             0.2       0.1       0.1       0.0       0.0       0.0
 1 C  dyz             0.0       0.1       0.0       0.0       0.0       0.0
 1 C  dx2y2           0.1       0.2       0.0       0.0       0.0       0.0
 2 C  s               4.3      26.3       2.1       2.4       0.8       0.2
 2 C  pz              0.0       0.3       1.0       0.2       3.1       0.4
 2 C  px              0.4       0.0       0.2       0.1       2.0       0.0
 2 C  py              0.0       0.1       2.3       4.5       0.0       0.8
 3 C  s              18.5       0.6       0.7       4.8       0.0       0.2
 3 C  pz              0.2       1.0       3.8      16.8       1.8       3.0
 3 C  px              0.4       0.0       9.3       0.8       2.3       0.7
 3 C  py              0.0       0.2       0.1       3.5      20.5       3.0
 3 C  dz2             0.0       0.0       0.1       0.1       0.0       0.0
 3 C  dxz             0.0       0.0       0.6       0.0       0.0       0.0
 3 C  dx2y2           0.0       0.0       0.0       0.2       0.0       0.0
 4 O  s               0.8       0.0       1.8       2.7       0.5       0.7
 4 O  pz              3.0       0.1       0.9       2.0       6.6       5.1
 4 O  px             16.6       0.0      19.4       7.3       0.1       1.0
 4 O  py              0.1       0.0       0.2       0.6      10.4       5.2
 4 O  dxz             0.2       0.0       0.1       0.0       0.0       0.0
 5 C  s               1.3       0.0       2.7       0.8       0.6       4.6
 5 C  pz              0.4       0.0       0.0       0.0       3.5       9.0
 5 C  px              5.8       0.0       3.7       1.1       0.3       3.2
 5 C  py              0.0       0.0       0.0       0.1       5.3       4.1
 5 C  dz2             0.1       0.0       0.0       0.0       0.0       0.0
 5 C  dxz             0.2       0.0       0.1       0.0       0.1       0.0
 6 O  s               1.5       0.0       1.6       0.1       0.0       1.2
 6 O  pz              0.1       0.0       0.1       0.0       0.8       4.8
 6 O  px              0.6       0.0       1.5       0.2       0.2       0.5
 6 O  py              0.0       0.0       0.0       0.0       1.1       1.3
 7 C  s               0.9       0.1       0.5       1.4       0.5       1.7
 7 C  pz              0.1       0.0       0.6       0.6       2.2      28.1
 7 C  px              0.0       0.0       0.7       1.9       0.8       0.8
 7 C  py              0.0       0.0       0.0       0.0       5.7       0.0
 7 C  dz2             0.0       0.0       0.0       0.0       0.1       0.4
 7 C  dxz             0.0       0.0       0.0       0.0       0.0       0.2
 8 H  s               2.5       4.6       3.3       1.2       0.5       0.0
 9 H  s               2.2       5.8       2.1       0.2       0.4       0.1
10 H  s               3.1       4.3       4.0       0.1       0.2       0.2
11 H  s               0.1       0.0       3.8       7.0       1.2       0.1
12 H  s               0.7       7.3       1.2       0.6       0.2       0.2
13 H  s               1.0       6.5       1.4       3.0       0.0       0.3
14 H  s               1.4       6.6       1.4       1.1       2.5       0.2
15 H  s               4.5       0.1       0.4       9.9       4.1       0.1
16 H  s               4.8       0.6       1.2       5.0       7.4       3.5
17 H  s               0.4       0.0       0.7       1.6       0.9       1.9
18 H  s               0.3       0.0       0.2       0.3       0.1       8.2
19 H  s               0.3       0.0       0.2       0.2       3.7       2.4

                     18        19        20        21        22        23   
                  -0.42215  -0.41060  -0.38807  -0.38106  -0.36350  -0.35274
                   2.00000   2.00000   2.00000   2.00000   2.00000   2.00000
                  --------  --------  --------  --------  --------  --------
 0 C  s               0.0       0.1       0.1       0.0       0.0       0.0
 0 C  pz              4.7       8.1       3.8       2.6       0.3       5.1
 0 C  px              2.0       0.1       1.4       5.9      10.5       1.2
 0 C  py              2.6       9.0       4.2       1.2      14.6       7.7
 0 C  dxz             0.0       0.0       0.0       0.1       0.1       0.0
 0 C  dyz             0.0       0.0       0.0       0.0       0.2       0.1
 0 C  dx2y2           0.0       0.0       0.0       0.1       0.0       0.1
 1 C  s               0.1       0.7       0.0       0.2       0.0       0.0
 1 C  pz              3.4       0.0       2.9       1.6       5.7       1.4
 1 C  px              6.1       4.6       2.6       0.8       2.1       0.1
 1 C  py              3.9       6.2       0.5       0.3       1.0       0.1
 1 C  dz2             0.0       0.0       0.0       0.0       0.0       0.2
 1 C  dxy             0.0       0.0       0.2       0.0       0.0       0.0
 2 C  s               0.0       0.4       0.0       0.0       0.0       0.0
 2 C  pz              1.1      10.5       2.8       1.4       0.3       5.0
 2 C  px              3.2       2.4      10.9       1.1       2.4       0.0
 2 C  py              3.0       1.0       1.6       2.4       6.2      10.3
 3 C  s               0.0       0.1       0.0       1.0       0.2       0.0
 3 C  pz              2.1       0.1       0.9       2.1       0.1       0.6
 3 C  px              6.5       1.6       0.1       0.5       0.1       0.0
 3 C  py              0.4       2.1       6.7       4.8       1.8       0.0
 3 C  dxz             0.0       0.0       0.1       0.0       0.1       0.0
 3 C  dx2y2           0.0       0.0       0.0       0.3       0.1       0.0
 4 O  s               0.5       0.0       0.6       0.1       0.2       0.0
 4 O  pz              2.4       3.2       0.0       2.3       0.8       1.2
 4 O  px              0.3       0.0       0.2       0.0       0.1       2.0
 4 O  py              4.2       0.8       1.6       0.5       3.9       0.0
 5 C  s               0.9       0.3       0.0       0.1       0.4       0.4
 5 C  pz              0.7       0.5       0.4       2.2       0.9       1.8
 5 C  px              1.1       0.2       0.4       0.6       0.7       2.5
 5 C  py              4.8       5.8       1.7       0.7       0.2       0.1
 5 C  dz2             0.0       0.0       0.1       0.0       0.0       0.1
 5 C  dxz             0.2       0.1       0.0       0.2       0.0       0.1
 6 O  s               2.9       1.4       0.4       4.1       2.4       4.3
 6 O  pz              4.8       0.7       0.5       5.5       3.7       8.8
 6 O  px              0.5       0.8       0.0       3.5       5.3       8.7
 6 O  py              0.8       2.9       1.3       0.0       0.0       0.3
 7 C  pz              2.2       1.7       1.5       0.0       0.1       1.4
 7 C  px              4.7       1.4       8.6      18.7       3.4       7.7
 7 C  py              8.3       8.7      12.1       4.5       4.5       0.0
 7 C  dx2y2           0.0       0.0       0.1       0.2       0.1       0.2
 8 H  s               2.7       0.2       0.1       1.7       6.3       7.2
 9 H  s               0.1       8.3       3.7       0.1       4.6       0.2
10 H  s               1.9       0.3       0.2       4.6       3.5       2.3
11 H  s               3.2       0.6       0.8       0.3       0.0       0.1
12 H  s               0.2       6.2       5.1       0.0       0.9       1.2
13 H  s               1.6       0.0       1.6       1.9       3.3       7.6
14 H  s               1.9       0.2       1.6       1.3       0.5       0.8
15 H  s               1.2       0.4       1.6       5.7       0.2       0.0
16 H  s               0.3       0.9       2.5       0.1       1.2       0.1
17 H  s               1.6       0.5       4.2       9.4       2.3       5.4
18 H  s               0.0       4.6       8.2       0.0       0.2       1.6
19 H  s               6.3       1.5       1.5       4.9       3.9       1.3

                     24        25        26        27        28        29   
                  -0.34779  -0.33669  -0.31709  -0.30777  -0.30189  -0.28822
                   2.00000   2.00000   2.00000   2.00000   2.00000   2.00000
                  --------  --------  --------  --------  --------  --------
 0 C  s               0.0       0.0       0.0       0.8       0.0       0.0
 0 C  pz              3.1       1.5       2.7      14.4       0.3       1.1
 0 C  px             10.4       2.5       3.5       8.1       0.1       0.7
 0 C  py              2.2       2.7       0.0       0.1       8.8       0.0
 0 C  dxz             0.1       0.0       0.0       0.1       0.0       0.0
 0 C  dyz             0.0       0.1       0.0       0.0       0.7       0.0
 0 C  dx2y2           0.1       0.0       0.2       0.1       0.0       0.2
 1 C  s               0.0       0.0       0.2       0.0       0.1       0.2
 1 C  pz              0.5       0.0       4.5       9.5       0.3       6.4
 1 C  px              0.6       0.2       3.7       9.8       0.0       5.7
 1 C  py              0.2       0.1       0.2       0.6      24.2       0.2
 1 C  dz2             0.1       0.0       0.0       0.1       0.0       0.0
 1 C  dxz             0.0       0.0       0.1       0.5       0.1       0.0
 1 C  dyz             0.0       0.0       0.0       0.0       1.0       0.0
 1 C  dx2y2           0.0       0.0       0.4       0.1       0.1       0.4
 2 C  s               0.0       0.0       0.2       0.0       0.6       0.0
 2 C  pz              3.7       0.2       5.1       9.0       3.5       5.1
 2 C  px             14.1       1.7       6.3      10.7       0.1       0.5
 2 C  py              2.1       1.2       0.4       0.4      16.5       0.0
 2 C  dz2             0.0       0.0       0.0       0.1       0.0       0.0
 2 C  dxz             0.1       0.0       0.1       0.6       0.1       0.0
 2 C  dyz             0.0       0.0       0.0       0.1       0.3       0.0
 2 C  dx2y2           0.1       0.0       0.2       0.1       0.0       0.2
 3 C  s               0.0       0.0       0.4       0.3       0.0       1.1
 3 C  pz              0.2       0.2       0.2       1.1       0.0       9.7
 3 C  px              0.1       0.2      10.8       1.0       0.4       3.4
 3 C  py              0.1       6.9       0.4       0.0       1.7       0.3
 3 C  dz2             0.0       0.0       0.0       0.0       0.0       0.3
 3 C  dxz             0.1       0.0       0.0       0.2       0.0       0.0
 3 C  dyz             0.0       0.4       0.0       0.0       0.2       0.0
 3 C  dx2y2           0.0       0.0       0.0       0.0       0.0       0.6
 3 C  dxy             0.0       0.0       0.0       0.0       0.2       0.0
 4 O  s               0.2       0.0       1.3       0.5       0.1       3.4
 4 O  pz              1.2       0.7      16.8       0.4       0.4      27.5
 4 O  px              2.0       0.1       0.5       1.0       0.0       2.4
 4 O  py              3.3      10.6       0.7       0.0       0.4       1.5
 4 O  dx2y2           0.0       0.0       0.0       0.0       0.0       0.1
 4 O  dxy             0.0       0.1       0.0       0.0       0.0       0.0
 5 C  s               0.1       0.0       0.4       0.0       0.0       0.4
 5 C  pz              1.0       0.3       4.2       0.0       0.0       1.4
 5 C  px              1.6       0.1       0.0       0.6       0.0       1.6
 5 C  py              1.2      14.8       0.1       0.1       0.8       0.1
 5 C  dxz             0.0       0.0       0.5       0.0       0.0       0.5
 5 C  dyz             0.1       0.5       0.0       0.0       0.0       0.0
 6 O  s               1.9       0.1       1.2       0.0       0.0       0.1
 6 O  pz              3.8       2.2       3.0       0.8       0.2       0.0
 6 O  px              3.3       0.2       5.0       0.1       0.1       3.8
 6 O  py              2.6      16.4       1.1       0.1       2.0       0.1
 7 C  s               0.0       0.0       0.2       0.0       0.0       0.0
 7 C  pz              1.3       0.1       3.4       0.0       0.1       2.7
 7 C  px              3.5       0.0       2.8       0.2       0.1       0.9
 7 C  py              2.7       8.7       0.1       0.1       0.0       0.1
 7 C  dyz             0.1       0.4       0.0       0.0       0.0       0.0
 8 H  s               2.9       0.2       0.6       1.2       5.9       0.5
 9 H  s               0.1       3.0       1.7       2.4       6.1       0.6
10 H  s               7.8       2.0       4.9       0.3       0.1       1.7
11 H  s               0.0       0.0       0.9       3.5      14.0       3.0
12 H  s               0.9       0.4       0.1      15.0       0.8       0.3
13 H  s               2.7       0.7       0.6       3.5       5.2       1.3
14 H  s              10.2       1.3       6.9       1.6       0.1       2.5
15 H  s               0.0       3.9       0.3       0.0       2.1       3.1
16 H  s               0.1       4.2       0.4       0.1       1.8       3.1
17 H  s               2.5       0.0       1.6       0.1       0.1       0.5
18 H  s               4.1       4.4       0.1       0.0       0.1       0.0
19 H  s               0.2       5.8       0.0       0.1       0.0       0.0

                     30        31        32        33        34        35   
                  -0.24792  -0.20821  -0.01787   0.01821   0.03958   0.05249
                   2.00000   2.00000   0.00000   0.00000   0.00000   0.00000
                  --------  --------  --------  --------  --------  --------
 0 C  s               0.0       0.0       0.0       4.1       9.4       0.4
 0 C  pz              0.0       0.1       0.0       1.6       0.1       0.0
 0 C  px              0.0       0.2       0.0       0.6       1.2       0.0
 0 C  py              0.0       0.0       0.0       0.0       0.0       3.5
 0 C  dxz             0.0       0.0       0.0       0.1       0.1       0.0
 0 C  dyz             0.0       0.0       0.0       0.0       0.0       0.1
 1 C  s               0.0       0.0       0.0       2.1       2.5       0.2
 1 C  pz              0.1       0.0       0.0       0.1       0.3       0.3
 1 C  px              0.0       0.5       0.0       0.1       0.1       0.1
 1 C  py              0.1       0.0       0.0       0.4       1.1       1.8
 1 C  dz2             0.0       0.0       0.0       0.0       0.0       0.1
 1 C  dxz             0.0       0.0       0.0       0.0       0.3       0.1
 1 C  dyz             0.0       0.0       0.0       0.0       0.1       0.5
 1 C  dx2y2           0.0       0.0       0.0       0.0       0.1       0.1
 1 C  dxy             0.0       0.0       0.0       0.0       0.1       0.1
 2 C  s               0.0       0.0       0.0       2.7       1.9       0.2
 2 C  pz              0.7       0.0       0.0       0.1       0.3       0.1
 2 C  px              0.0       0.0       0.0       0.2       0.7       0.0
 2 C  py              0.1       0.0       0.0       0.7       0.4       4.1
 2 C  dyz             0.0       0.0       0.0       0.0       0.1       0.1
 3 C  s               0.0       0.0       0.0       7.3       0.0       0.0
 3 C  pz              0.1       0.1       0.0       5.2       2.9       0.7
 3 C  px              0.0       0.9       0.0       0.6       2.4       0.8
 3 C  py              3.0       0.0       0.1       0.1       0.8      11.8
 3 C  dz2             0.1       0.0       0.0       0.0       0.0       0.0
 3 C  dxz             0.0       0.0       0.0       0.0       1.0       0.1
 3 C  dyz             0.9       0.0       0.3       0.0       0.0       0.4
 3 C  dx2y2           0.0       0.0       0.0       0.2       0.1       0.0
 3 C  dxy             0.1       0.0       0.1       0.0       0.2       0.1
 4 O  s               0.0       0.9       0.0       0.4       1.4       0.2
 4 O  pz              1.9       0.3       0.4       0.5       1.3       0.1
 4 O  px              0.0       3.5       0.0       0.1       0.1       0.0
 4 O  py             40.7       0.0       9.0       0.0       0.0       0.1
 4 O  dxy             0.0       0.0       0.5       0.0       0.0       0.1
 5 C  s               0.0       0.4       0.0       0.4       0.3       0.1
 5 C  pz              0.1       0.5       1.8       0.3       0.5       0.0
 5 C  px              0.0       0.9       0.0       0.0       0.1       0.0
 5 C  py              1.5       0.0      45.8       0.0       0.0       0.2
 5 C  dz2             0.0       3.0       0.1       0.2       0.0       0.0
 5 C  dxz             0.1       0.2       0.0       0.0       0.1       0.0
 5 C  dyz             0.3       0.1       1.1       0.0       0.0       0.1
 5 C  dx2y2           0.0       1.5       0.0       0.2       0.2       0.0
 5 C  dxy             1.9       0.0       0.0       0.0       0.0       0.1
 6 O  s               0.0       0.0       0.0       0.1       0.2       0.0
 6 O  pz              1.4      32.4       1.1       0.1       0.1       0.0
 6 O  px              0.0      43.8       0.0       0.0       0.1       0.0
 6 O  py             37.4       1.2      27.2       0.0       0.0       0.0
 6 O  dyz             0.0       0.0       0.3       0.0       0.0       0.0
 6 O  dxy             0.0       0.0       0.2       0.0       0.0       0.0
 7 C  s               0.0       1.1       0.0       6.2       8.5       0.4
 7 C  pz              0.0       6.1       0.0       1.1       1.8       0.5
 7 C  px              0.0       0.0       0.0       0.7       0.1       0.0
 7 C  py              0.2       0.2       0.3       0.0       0.5       5.7
 7 C  dz2             0.0       0.0       0.2       0.0       0.1       0.0
 7 C  dyz             0.0       0.0       1.7       0.0       0.0       0.1
 7 C  dxy             0.0       0.0       0.0       0.0       0.0       0.2
 8 H  s               0.0       0.0       0.0       4.0       4.3       7.6
 9 H  s               0.0       0.0       0.0       5.0       5.1       1.7
10 H  s               0.0       0.1       0.0       2.2      11.2       0.1
11 H  s               0.2       0.0       0.0       2.1       7.2       6.9
12 H  s               0.1       0.0       0.1       0.8       0.5       0.0
13 H  s               0.0       0.0       0.0       3.6       1.1       7.4
14 H  s               0.0       0.0       0.0       2.8       4.2       0.4
15 H  s               3.8       0.0       0.5      12.3       2.3      15.0
16 H  s               4.2       0.0       0.6      14.1       0.1      12.9
17 H  s               0.0       0.4       0.0       0.8       4.3       0.5
18 H  s               0.2       0.6       3.9       8.1       6.2       9.3
19 H  s               0.2       0.5       4.1       7.1      11.3       4.1

                     36        37        38        39        40        41   
                   0.07447   0.08435   0.08887   0.09589   0.10918   0.11350
                   0.00000   0.00000   0.00000   0.00000   0.00000   0.00000
                  --------  --------  --------  --------  --------  --------
 0 C  s               2.7       0.3       0.1       6.1       0.3       3.3
 0 C  pz              1.5       4.8       2.4       1.1       0.1       0.7
 0 C  px              1.3       1.4       2.5       0.6       3.0       0.9
 0 C  py              0.1       0.6       5.3       0.0       0.1       3.1
 0 C  dz2             0.0       0.0       0.0       0.0       0.0       0.4
 0 C  dxz             0.0       0.0       0.0       0.1       0.0       0.3
 0 C  dyz             0.1       0.0       0.6       0.0       0.1       0.2
 0 C  dx2y2           0.0       0.7       0.3       0.0       0.0       0.1
 0 C  dxy             0.0       0.0       0.0       0.0       0.1       0.1
 1 C  s               0.4       0.6       1.6       1.4       0.3       6.8
 1 C  pz              0.2       1.6       0.9       0.1       0.1       0.7
 1 C  px              0.7       0.1       0.1       0.2       0.7       0.9
 1 C  py              1.4       0.6       1.2       0.5       1.5       1.4
 1 C  dz2             0.0       0.2       0.6       0.1       0.1       0.1
 1 C  dxz             0.3       0.1       0.0       0.0       0.9       0.3
 1 C  dyz             0.1       0.0       0.0       0.1       0.4       0.2
 1 C  dx2y2           0.0       0.9       0.0       0.0       0.1       0.0
 1 C  dxy             0.0       0.0       0.6       0.0       0.0       0.1
 2 C  s              11.0       4.6       0.7       0.9       1.8       3.0
 2 C  pz              3.0       1.0       0.6       0.1       0.8       1.2
 2 C  px              0.5       0.4       3.3       0.2       7.4       1.3
 2 C  py              0.1       1.6       0.4       0.3       1.5       1.5
 2 C  dz2             0.0       0.0       0.2       0.0       0.1       0.0
 2 C  dxz             0.0       0.0       0.3       0.0       0.5       0.4
 2 C  dyz             0.0       0.0       0.0       0.0       0.0       0.5
 2 C  dx2y2           0.1       0.1       0.2       0.0       0.3       0.0
 3 C  s               1.2       0.6       0.0       0.4       0.5       2.7
 3 C  pz              1.1       6.0       3.0       0.1       6.1       0.6
 3 C  px              5.9       1.4       0.5       2.1       6.9       0.1
 3 C  py              0.9       0.6       1.6       0.0       0.3       0.1
 3 C  dz2             0.1       0.0       0.2       0.0       0.2       0.0
 3 C  dxz             1.0       0.8       0.1       0.4       1.4       0.0
 3 C  dyz             0.0       0.2       0.0       0.0       0.1       0.0
 3 C  dx2y2           0.0       0.5       0.5       0.1       0.3       0.1
 3 C  dxy             0.0       0.0       0.0       0.1       0.2       0.0
 4 O  s               3.1       1.7       1.3       0.3       1.0       0.0
 4 O  pz              1.2       1.1       0.1       1.3       2.1       0.0
 4 O  px              0.3       0.9       0.3       0.1       1.6       0.1
 4 O  py              0.1       0.1       0.0       0.1       0.3       0.4
 4 O  dxz             0.0       0.1       0.0       0.0       0.3       0.0
 4 O  dx2y2           0.0       0.1       0.0       0.0       0.0       0.0
 5 C  s               0.6       0.1       0.2       0.2       0.4       0.3
 5 C  pz              0.3       0.1       0.1       0.1       0.9       0.4
 5 C  px              0.9       0.4       0.2       0.7       0.1       0.4
 5 C  py              0.0       0.2       0.4       0.0       0.1       0.1
 5 C  dz2             0.0       0.0       0.0       0.4       0.0       0.2
 5 C  dxz             0.0       0.0       0.0       0.4       0.3       0.3
 5 C  dx2y2           0.1       0.0       0.0       0.0       0.0       0.0
 6 O  s               0.1       0.0       0.0       0.0       0.0       0.1
 6 O  pz              0.2       0.1       0.1       0.2       0.1       0.1
 6 O  px              0.3       0.6       0.3       0.1       0.5       0.0
 7 C  s               0.3       2.8       1.3       1.7       2.9       0.4
 7 C  pz              0.3       0.3       1.3       0.0       0.4       0.5
 7 C  px              1.6       0.1       0.0      14.2       1.5       3.1
 7 C  py              0.4       3.8       4.0       0.0       0.7       0.2
 7 C  dz2             0.1       0.0       0.0       0.3       0.1       0.0
 7 C  dx2y2           0.2       0.1       0.0       1.1       0.0       0.5
 7 C  dxy             0.0       0.1       0.1       0.0       0.0       0.0
 8 H  s               4.9       4.5       1.8       6.3       0.3       1.1
 9 H  s               5.1       1.2      17.4       6.7       0.2       8.1
10 H  s               0.5      11.6       6.7       3.1       4.7       4.9
11 H  s               4.2       6.6       7.3       2.5       4.3      16.4
12 H  s               9.4       1.6       3.8       0.3      10.6      12.1
13 H  s               2.7      13.7       3.2       1.4       6.8       0.2
14 H  s              17.9       0.0       5.0       0.8       9.6       1.6
15 H  s               0.1       0.5       2.4       0.7       2.1       3.6
16 H  s               4.1       3.1       0.1       0.6       1.9       1.8
17 H  s               5.0       1.3       1.2      38.3       6.6       4.4
18 H  s               1.5       0.0      11.6       1.7       3.0       2.3
19 H  s               0.1      13.2       1.5       1.2       0.0       4.7

                     42        43        44        45        46        47   
                   0.12252   0.14159   0.14569   0.15852   0.17785   0.18460
                   0.00000   0.00000   0.00000   0.00000   0.00000   0.00000
                  --------  --------  --------  --------  --------  --------
 0 C  s               1.9       0.1       0.2       0.2       0.3       2.0
 0 C  pz              0.1       3.7       0.4       0.5       0.4      15.4
 0 C  px              1.4       1.7       7.5       2.4       2.7       6.4
 0 C  py              9.8       0.7       1.5       0.1       3.7       0.9
 0 C  dz2             0.0       0.0       0.1       0.1       0.0       1.2
 0 C  dxz             0.3       0.1       0.3       0.9       0.5       3.3
 0 C  dyz             0.4       0.0       0.1       0.1       0.2       0.1
 0 C  dx2y2           0.2       0.4       0.0       0.2       0.0       1.0
 0 C  dxy             0.1       0.0       0.0       0.2       0.1       0.2
 1 C  s               0.8       0.1       0.7       5.9       0.2       4.4
 1 C  pz              2.6       0.2       0.3       3.4       3.3       1.2
 1 C  px              0.5       0.1       1.1       2.6       1.1      20.4
 1 C  py              0.4       2.1       0.1       2.8       1.6       1.9
 1 C  dz2             0.5       0.0       0.6       0.0       0.1       0.3
 1 C  dxz             0.2       0.0       0.1       0.1       0.5       2.6
 1 C  dyz             0.3       0.2       0.0       0.2       0.3       0.3
 1 C  dx2y2           0.1       0.2       0.1       0.9       0.2       0.0
 1 C  dxy             0.1       0.4       0.2       0.1       0.4       0.5
 2 C  s               1.2       0.4       0.8       0.5       0.5       0.3
 2 C  pz              2.2       4.9       6.8       1.1       1.8       3.8
 2 C  px              0.5       8.2       1.6       0.7       2.3       1.7
 2 C  py              0.5       0.2       5.2       0.4       1.6       1.6
 2 C  dz2             0.1       0.0       0.0       0.6       0.0       0.2
 2 C  dxz             0.0       0.5       0.1       0.0       0.0       0.2
 2 C  dyz             0.0       0.1       0.4       0.2       0.4       0.9
 2 C  dx2y2           0.4       0.3       0.3       0.0       0.3       0.5
 2 C  dxy             0.0       0.0       0.0       0.2       0.5       0.8
 3 C  s               4.9       4.3       2.1       2.5       0.1       0.4
 3 C  pz              2.3       1.1       1.0       1.8       1.7       5.7
 3 C  px              1.9       0.0       4.2       4.3       0.1       1.2
 3 C  py              0.2       0.3       0.3       0.2       8.8       0.0
 3 C  dz2             0.3       0.0       0.2       0.4       0.3       0.5
 3 C  dxz             0.2       0.0       0.5       0.7       0.1       0.2
 3 C  dyz             0.1       0.1       0.0       0.0       0.2       0.5
 3 C  dx2y2           0.1       0.0       0.0       1.9       0.2       0.7
 3 C  dxy             0.0       0.1       0.1       0.0       0.2       0.2
 4 O  s               1.8       0.4       1.4       2.3       0.1       0.4
[...]
 2 C  py              1.5       0.0       0.1       0.0       0.0       0.0
 2 C  dz2             0.3       0.0       0.0       0.0       0.0       0.0
 2 C  dxz             1.5       0.0       0.0       0.0       0.0       0.0
 2 C  dyz            11.9       0.0       0.3       0.0       0.0       0.0
 2 C  dx2y2           4.5       0.0       0.2       0.0       0.0       0.0
 2 C  dxy             1.6       0.2       0.0       0.0       0.0       0.0
 3 C  s               1.2       0.1       0.0       0.4       0.0       0.0
 3 C  pz              1.0       0.0       0.0       0.2       0.0       0.0
 3 C  px              1.5       0.6       0.0       0.1       0.0       0.0
 3 C  py              0.1       0.0       0.7       0.0       0.1       0.0
 3 C  dz2             0.0       0.9       0.2       1.5       0.4       0.0
 3 C  dxz             5.6       1.9       0.3       0.3       0.0       0.0
 3 C  dyz             0.2       0.0       1.4       0.0       3.0       0.0
 3 C  dx2y2           7.1       1.4       0.0       3.2       0.1       0.0
 3 C  dxy             0.0       0.1       5.9       0.0       0.8       0.1
 4 O  s               0.0       0.6       0.0       3.6       0.0       0.0
 4 O  pz              0.0       0.1       0.1       1.7       0.0       0.0
 4 O  px              0.0       0.5       0.0       0.7       0.0       0.0
 4 O  py              0.0       0.0       1.4       0.1       0.1       0.1
 4 O  dz2             0.0       0.8       8.9      22.2       0.3       0.7
 4 O  dxz             1.1       0.4       0.0       6.6       2.3       0.1
 4 O  dyz             1.1       0.1      63.6       7.1       1.6       2.9
 4 O  dx2y2           0.1       0.3       2.9      18.8       0.1       0.2
 4 O  dxy             0.1       0.0       0.0       0.1      60.8       6.2
 5 C  s               0.0       0.0       0.0       0.2       0.0       0.0
 5 C  pz              0.0       0.2       0.0       0.1       0.0       0.0
 5 C  px              0.0       0.1       0.0       1.3       0.0       0.0
 5 C  py              0.0       0.0       0.3       0.0       0.7       0.5
 5 C  dz2             0.1       0.6       0.0       2.5       0.7       0.7
 5 C  dxz             0.0       1.9       0.0       8.6       0.2       0.4
 5 C  dyz             0.0       0.4       0.2       0.5       4.9       7.1
 5 C  dx2y2           0.2       2.9       0.0       0.3       0.2       0.4
 5 C  dxy             0.0       0.1       0.9       0.3       6.8      11.3
 6 O  s               0.0       0.0       0.0       2.7       0.0       0.0
 6 O  pz              0.0       0.0       0.0       1.2       0.0       0.0
 6 O  px              0.0       0.0       0.0       0.4       0.0       0.0
 6 O  py              0.0       0.0       0.1       0.1       0.1       1.0
 6 O  dz2             0.1       5.9       0.0       8.3       0.0       3.9
 6 O  dxz             0.6      16.6       0.4       0.3       0.6       1.0
 6 O  dyz             0.1       5.7       0.3       0.9       0.0      39.2
 6 O  dx2y2           2.1      46.9       0.0       0.1       0.0       2.0
 6 O  dxy             0.2       0.9       9.5       0.0      14.3      21.7
 7 C  s               0.0       0.2       0.0       0.0       0.0       0.0
 7 C  pz              0.0       0.2       0.0       0.0       0.0       0.0
 7 C  dz2             0.0       1.3       0.0       0.6       0.2       0.0
 7 C  dxz             0.1       0.0       0.0       1.7       0.0       0.0
 7 C  dyz             0.0       0.1       0.0       0.0       1.1       0.0
 7 C  dx2y2           0.1       0.0       0.0       0.7       0.0       0.0
 7 C  dxy             0.0       0.0       0.0       0.1       0.0       0.3
12 H  s               0.2       0.0       0.0       0.0       0.0       0.0
14 H  s               0.2       0.0       0.0       0.0       0.0       0.0
15 H  s               0.1       0.0       0.0       0.1       0.1       0.0
16 H  s               0.3       0.0       0.0       0.1       0.1       0.0

                    132       133       134       135   
                   3.09430   3.29521   3.51294   3.55463
                   0.00000   0.00000   0.00000   0.00000
                  --------  --------  --------  --------
 0 C  dz2             0.1       0.0       0.0       0.0
 1 C  px              0.1       0.1       0.0       0.0
 1 C  dz2             0.6       0.0       0.1       0.0
 1 C  dxz             0.0       0.7       0.0       0.1
 1 C  dx2y2           0.3       0.1       0.1       0.0
 3 C  s               1.3       0.1       0.4       0.1
 3 C  pz              0.7       0.4       0.2       0.2
 3 C  px              1.4       0.2       0.5       0.2
 3 C  dz2             0.0       3.2       0.0       0.5
 3 C  dxz             6.5       0.7       1.8       1.1
 3 C  dyz             0.1       0.4       0.0       0.1
 3 C  dx2y2           1.3       0.1       0.3       0.0
 3 C  dxy             0.2       0.0       0.1       0.0
 4 O  s               0.7       4.8       0.1       0.1
 4 O  pz              1.5       0.1       0.2       0.1
 4 O  px              3.0       0.6       3.4       0.3
 4 O  dz2            12.1      12.7       6.6       0.1
 4 O  dxz            17.2       3.7      17.1      18.8
 4 O  dyz             2.6       0.0       0.2       0.0
 4 O  dx2y2           1.2      45.1       5.0       0.1
 4 O  dxy             0.5       0.1       0.7       0.7
 5 C  s               0.5       5.0       0.4       4.7
 5 C  pz              0.4       1.0       1.1       2.4
 5 C  px              1.5       1.2       3.7       1.2
 5 C  dz2             5.3       0.0      10.3       1.7
 5 C  dxz             0.0       4.8       0.3       9.6
 5 C  dyz             0.2       0.2       0.6       0.0
 5 C  dx2y2           1.8       2.5       3.5       2.8
 5 C  dxy             0.0       0.2       0.0       0.4
 6 O  s               0.0       0.8       2.3       3.0
 6 O  pz              0.4       0.1       0.3       2.3
 6 O  px              0.6       0.1       1.5       0.4
 6 O  dz2            24.9       0.3       1.7      22.7
 6 O  dxz             2.8       4.8      22.7      21.2
 6 O  dyz             0.8       0.4       0.1       3.0
 6 O  dx2y2           6.6       3.9      12.2       0.0
 6 O  dxy             0.3       0.2       0.9       0.8
 7 C  s               0.3       0.2       0.1       0.1
 7 C  pz              0.1       0.1       0.1       0.2
 7 C  px              0.1       0.1       0.2       0.0
 7 C  dz2             0.0       0.5       0.1       0.5
 7 C  dxz             1.3       0.1       0.9       0.0


                      *****************************
                      * MAYER POPULATION ANALYSIS *
                      *****************************

  NA   - Mulliken gross atomic population
  ZA   - Total nuclear charge
  QA   - Mulliken gross atomic charge
  VA   - Mayer's total valence
  BVA  - Mayer's bonded valence
  FA   - Mayer's free valence

  ATOM       NA         ZA         QA         VA         BVA        FA
  0 C      6.2545     6.0000    -0.2545     3.9566     3.9566    -0.0000
  1 C      6.1669     6.0000    -0.1669     4.2075     4.2075     0.0000
  2 C      6.2571     6.0000    -0.2571     3.9557     3.9557    -0.0000
  3 C      6.0021     6.0000    -0.0021     3.9335     3.9335     0.0000
  4 O      8.2078     8.0000    -0.2078     2.2483     2.2483     0.0000
  5 C      5.9139     6.0000     0.0861     4.4560     4.4560     0.0000
  6 O      8.1870     8.0000    -0.1870     2.3123     2.3123     0.0000
  7 C      6.3087     6.0000    -0.3087     3.8730     3.8730    -0.0000
  8 H      0.9026     1.0000     0.0974     0.9622     0.9622     0.0000
  9 H      0.8962     1.0000     0.1038     0.9557     0.9557    -0.0000
 10 H      0.8892     1.0000     0.1108     0.9568     0.9568    -0.0000
 11 H      0.9081     1.0000     0.0919     0.9485     0.9485    -0.0000
 12 H      0.8743     1.0000     0.1257     0.9665     0.9665    -0.0000
 13 H      0.9098     1.0000     0.0902     0.9644     0.9644    -0.0000
 14 H      0.8946     1.0000     0.1054     0.9556     0.9556    -0.0000
 15 H      0.9150     1.0000     0.0850     0.9635     0.9635     0.0000
 16 H      0.9062     1.0000     0.0938     0.9577     0.9577     0.0000
 17 H      0.8637     1.0000     0.1363     0.9790     0.9790    -0.0000
 18 H      0.8714     1.0000     0.1286     0.9574     0.9574    -0.0000
 19 H      0.8707     1.0000     0.1293     0.9572     0.9572    -0.0000

  Mayer bond orders larger than 0.100000
B(  0-C ,  1-C ) :   1.0993 B(  0-C ,  8-H ) :   0.9488 B(  0-C ,  9-H ) :   0.9493 
B(  0-C , 10-H ) :   0.9512 B(  1-C ,  2-C ) :   1.1103 B(  1-C ,  3-C ) :   1.0624 
B(  1-C , 11-H ) :   0.8992 B(  2-C , 12-H ) :   0.9449 B(  2-C , 13-H ) :   0.9490 
B(  2-C , 14-H ) :   0.9525 B(  3-C ,  4-O ) :   0.9547 B(  3-C , 15-H ) :   0.9131 
B(  3-C , 16-H ) :   0.9221 B(  4-O ,  5-C ) :   1.1656 B(  5-C ,  6-O ) :   2.1457 
B(  5-C ,  7-C ) :   1.0699 B(  7-C , 17-H ) :   0.9359 B(  7-C , 18-H ) :   0.9216 
B(  7-C , 19-H ) :   0.9220 

-------
TIMINGS
-------

Total SCF time: 0 days 0 hours 0 min 9 sec 

Total time                  ....       9.699 sec
Sum of individual times     ....       9.027 sec  ( 93.1%)

SCF preparation             ....       0.159 sec  (  1.6%)
Fock matrix formation       ....       8.090 sec  ( 83.4%)
  Startup                   ....       0.053 sec  (  0.7% of F)
  Split-RI-J                ....       2.113 sec  ( 26.1% of F)
  XC integration            ....       5.426 sec  ( 67.1% of F)
    XC Preparation          ....       0.000 sec  (  0.0% of XC)
    Basis function eval.    ....       1.097 sec  ( 20.2% of XC)
    Density eval.           ....       0.370 sec  (  6.8% of XC)
    XC-Functional eval.     ....       0.281 sec  (  5.2% of XC)
    XC-Potential eval.      ....       0.591 sec  ( 10.9% of XC)
Diagonalization             ....       0.000 sec  (  0.0%)
Density matrix formation    ....       0.169 sec  (  1.7%)
Total Energy calculation    ....       0.033 sec  (  0.3%)
Population analysis         ....       0.067 sec  (  0.7%)
Orbital Transformation      ....       0.043 sec  (  0.4%)
Orbital Orthonormalization  ....       0.000 sec  (  0.0%)
DIIS solution               ....       0.300 sec  (  3.1%)
  MO trafo                  ....       0.000 sec  (  0.0 % of DIIS)
  Orb grad                  ....       0.000 sec  (  0.0 % of DIIS)
  Energy W gradient         ....       0.000 sec  (  0.0 % of DIIS)
  DIIS error                ....       0.002 sec  (  0.8 % of DIIS)
  DIIS work                 ....       0.263 sec  ( 87.7 % of DIIS)
  Form Q                    ....       0.000 sec  (  0.0 % of DIIS)
  Form QpQm                 ....       0.000 sec  (  0.0 % of DIIS)
  Exp/Cayley                ....       0.000 sec  (  0.0 % of DIIS)
  Orb update                ....       0.000 sec  (  0.0 % of DIIS)
  Wake-sleep                ....       0.014 sec  (  4.5 % of DIIS)
SOSCF solution              ....       0.165 sec  (  1.7%)
  MO trafo                  ....       0.051 sec  ( 31.1 % of SOSCF)
  Orb grad                  ....       0.003 sec  (  1.5 % of SOSCF)
  Rot update                ....       0.079 sec  ( 47.8 % of SOSCF)
  Step                      ....       0.032 sec  ( 19.5 % of SOSCF)
Finished LeanSCF after   9.8 sec

Maximum memory used throughout the entire LEANSCF-calculation: 12.7 MB


-------------------------------------------------------------------------------
                          DFT DISPERSION CORRECTION                            
                                                                               
                                DFTD4 V3.4.0                                   
-------------------------------------------------------------------------------
The PBE functional is recognized
Active option DFTDOPT                   ...         5   

-------------------------   ----------------
Dispersion correction           -0.015361176
-------------------------   ----------------

------------------   -----------------
gCP correction             0.089180403
------------------   -----------------

-------------------------   --------------------
FINAL SINGLE POINT ENERGY      -385.448819084499
-------------------------   --------------------


------------------------------------------------------------------------------
                              ORCA PROPERTY CALCULATIONS
------------------------------------------------------------------------------

GBWName                                 ... sp.gbw
Number of atoms                         ...     20
Number of basis functions               ...    136
Max core memory                         ...   1024 MB

Electric properties:
Dipole moment                           ... YES
Quadrupole moment                       ...  NO
Static polarizability (Dipole/Dipole)   ...  NO
Static polarizability (Dipole/Quad.)    ...  NO
Static polarizability (Quad./Quad.)     ...  NO
Static polarizability (Velocity)        ...  NO

Atomic electric properties:
Dipole moment                           ...  NO
Quadrupole moment                       ...  NO
Static polarizability                   ...  NO

Choice of electric origin               ... Center of mass
Position of electric origin             ...    -0.000038    -0.000009    -0.000021

General magnetic properties:
Magnetizability                         ...  NO

EPR properties:
g-Tensor (aka g-matrix)                 ...  NO
Zero-Field splitting spin-orbit         ...  NO
Zero-field splitting spin-spin          ...  NO
Hyperfine couplings                     ...  NO (   0 nuclei)
Quadrupole couplings                    ...  NO (   0 nuclei)
Contact density                         ...  NO (   0 nuclei)

NMR properties:
Chemical shifts                         ...  NO (   0 nuclei)
Spin-rotation constants                 ...  NO (   0 nuclei)
Spin-spin couplings                     ...  NO (   0 nuclei,    0 pairs)

Choice of magnetic origin               ... GIAO
Position of magnetic origin             ...     0.000000     0.000000     0.000000

Properties with geometric perturbations:
SCF Hessian                             ...  NO
IR spectrum                             ...  NO
VCD spectrum                            ...  NO
X-ray spectroscopy properties:
SCF XES/XAS/RIXS spectra                ...  NO


-------------
DIPOLE MOMENT
-------------

Method             : SCF
Type of density    : Electron Density
Multiplicity       :   1
Irrep              :   0
Energy             :  -385.5226383117405362 Eh
Relativity type    : 
Basis              : AO
                                X                 Y                 Z
Electronic contribution:      9.558044595       2.511195649       4.740253848
Nuclear contribution   :    -10.513868576      -2.762173052      -6.064689787
                        -----------------------------------------
Total Dipole Moment    :     -0.955823981      -0.250977403      -1.324435939
                        -----------------------------------------
Magnitude (a.u.)       :      1.652488940
Magnitude (Debye)      :      4.200293082



--------------------
Rotational spectrum 
--------------------
 
Rotational constants in cm-1:             0.144648             0.033181             0.029129 
Rotational constants in MHz :          4336.435955           994.754830           873.264928 

Dipole components along the rotational axes: 
x,y,z [a.u.] :    -1.059721    -1.218472    -0.350767 
x,y,z [Debye]:    -2.693597    -3.097109    -0.891579 

 

Dipole moment calculation done in   0.0 sec 

Maximum memory used throughout the entire PROP-calculation: 8.0 MB

--------------------------------
SUGGESTED CITATIONS FOR THIS RUN
--------------------------------

Below you find a list of papers that are relevant to this ORCA run
We neither can nor want to force you to cite these papers, but we appreciate if you do
You receive ORCA, which is the product of decades of hard work by many enthusiastic individuals, for free
The only thing we kindly ask in return is that you cite our papers,
We deeply appreciate it, if you show your appreciation for ORCA by not just citing the generic ORCA reference.

Please note that relegating all ORCA citations to the supporting information does *not* help us.
SI sections are not indexed - citations you put there will not count into any citation statistics
But we need these citations in order to attract the funding resources that allow us to do what we are doing

Therefore, if you are a happy ORCA user, please consider citing a few of the papers listed below in the main body of your paper

In addition to the list printed below, the program has created the file sp.bibtex that contains the list in bibtex format
You can import this file easily into all common literature databanks and citation aid programs


List of essential papers. We consider these as the minimum necessary citations

  1. Neese,F.
     Software update: the ORCA program system, version 5.0
     WIRES Comput. Molec. Sci., 2022 12(1)e1606
     doi.org/10.1002/wcms.1606

List of papers to cite with high priority. The work reported in these papers was absolutely
necessary for this run to complete.
Our perspective: the developers of density functionals and basis sets usually get cited in chemistry papers
Good! But without the algorithms to do something with them, the functionals or basis sets would not do anything.
Hence, in our opinion, the algorithm design and method developments papers are equally worthy of getting cited

  1. Neese,F.
     An improvement of the resolution of the identity approximation for the formation of the Coulomb matrix
     J. Comp. Chem., 2003 24(14)1740-1747
     doi.org/10.1002/jcc.10318
  2. Neese,F.
     The SHARK Integral Generation and Digestion System
     J. Comp. Chem., 2022  1-16
     doi.org/10.1002/jcc.26942
  3. Caldeweyher,E.; Bannwarth,C.; Grimme,S.
     Extension of the D3 dispersion coefficient model
     J. Chem. Phys., 2017 147 034112-XXXX
     doi.org/10.1063/1.4993215
  4. Caldeweyher,E.; Ehlert,S.; Hansen,A.; Neugebauer,H.; Spicher,S.; Bannwarth,C.; Grimme,S.
     A generally applicable atomic-charge dependent London dispersion correction
     J. Chem. Phys., 2019 150 154122-XXXX
     doi.org/10.1063/1.5090222
  5. Caldeweyher,E.; Mewes,J.; Ehlert,S.; Grimme,S.
     Extension and evaluation of the D4 London-dispersion model for periodic systems
     Phys. Chem. Chem. Phys., 2020 22(16)8499-8512
     doi.org/10.1039/D0CP00502A

List of suggested additional citations. These are papers that are important in the 'surrounding' of 
of this run, or papers that preceded the highly important papers. If you like your results we are grateful for a citation.

  1. Neese,F.
     The ORCA program system
     WIRES Comput. Molec. Sci., 2012 2(1)73-78
     doi.org/10.1002/wcms.81
  2. Neese,F.
     Software update: the ORCA program system, version 4.0
     WIRES Comput. Molec. Sci., 2018 8(1)1-6
     doi.org/10.1002/wcms.1327
  3. Neese,F.; Wennmohs,F.; Becker,U.; Riplinger,C.
     The ORCA quantum chemistry program package
     J. Chem. Phys., 2020 152 Art. No. L224108
     doi.org/10.1063/5.0004608

List of optional additional citations

  1. Neese,F.
     Approximate second-order SCF convergence for spin unrestricted wavefunctions
     Chem. Phys. Lett., 2000 325(1-3)93-98
     doi.org/10.1016/s0009-2614(00)00662-x

Timings for individual modules:

Sum of individual times          ...       11.356 sec (=   0.189 min)
Startup calculation              ...        0.745 sec (=   0.012 min)   6.6 %
SCF iterations                   ...       10.513 sec (=   0.175 min)  92.6 %
Property calculations            ...        0.098 sec (=   0.002 min)   0.9 %
                             ****ORCA TERMINATED NORMALLY****
TOTAL RUN TIME: 0 days 0 hours 0 minutes 12 seconds 33 msec
