      -----------------------------------------------------------      
     |                   =====================                   |     
     |                           x T B                           |     
     |                   =====================                   |     
     |                         S. Grimme                         |     
     |          Mulliken Center for Theoretical Chemistry        |     
     |                    University of Bonn                     |     
      -----------------------------------------------------------      

   * xtb version 6.7.1 (edcfbbe) compiled by 'albert@albert-system' on 2024-07-22

   xtb is free software: you can redistribute it and/or modify it under
   the terms of the GNU Lesser General Public License as published by
   the Free Software Foundation, either version 3 of the License, or
   (at your option) any later version.
   
   xtb is distributed in the hope that it will be useful,
   but WITHOUT ANY WARRANTY; without even the implied warranty of
   MERCHANTABILITY or FITNESS FOR A PARTICULAR PURPOSE.  See the
   GNU Lesser General Public License for more details.
   
   Cite this work as:
   * C. Bannwarth, E. Caldeweyher, S. Ehlert, A. Hansen, P. Pracht,
     J. Seibert, S. Spicher, S. Grimme, WIREs Comput. Mol. Sci., 2020, 11,
     e01493. DOI: 10.1002/wcms.1493
   
   for GFN2-xTB:
   * C. Bannwarth, S. Ehlert and S. Grimme., J. Chem. Theory Comput., 2019,
     15, 1652-1671. DOI: 10.1021/acs.jctc.8b01176
   for GFN1-xTB:
   * S. Grimme, C. Bannwarth, P. Shushkov, J. Chem. Theory Comput., 2017,
     13, 1989-2009. DOI: 10.1021/acs.jctc.7b00118
   for GFN0-xTB:
   * P. Pracht, E. Caldeweyher, S. Ehlert, S. Grimme, ChemRxiv, 2019, preprint.
     DOI: 10.26434/chemrxiv.8326202.v1
   for GFN-FF:
   * S. Spicher and S. Grimme, Angew. Chem. Int. Ed., 2020, 59, 15665-15673.
     DOI: 10.1002/anie.202004239
   
   for ALPB and GBSA implicit solvation:
   * S. Ehlert, M. Stahn, S. Spicher, S. Grimme, J. Chem. Theory Comput.,
     2021, 17, 4250-4261. DOI: 10.1021/acs.jctc.1c00471
   
   for ddCOSMO and CPCM-X implicit solvation:
   * M. Stahn, S. Ehlert, S. Grimme, J. Phys. Chem. A,
     2023, XX, XXXX-XXXX. DOI: 10.1021/acs.jpca.3c04382
   
   for DFT-D4:
   * E. Caldeweyher, C. Bannwarth and S. Grimme, J. Chem. Phys., 2017,
     147, 034112. DOI: 10.1063/1.4993215
   * E. Caldeweyher, S. Ehlert, A. Hansen, H. Neugebauer, S. Spicher,
     C. Bannwarth and S. Grimme, J. Chem. Phys., 2019, 150, 154122.
     DOI: 10.1063/1.5090222
   * E. Caldeweyher, J.-M. Mewes, S. Ehlert and S. Grimme, Phys. Chem. Chem. Phys.
     2020, 22, 8499-8512. DOI: 10.1039/D0CP00502A
   
   for sTDA-xTB:
   * S. Grimme and C. Bannwarth, J. Chem. Phys., 2016, 145, 054103.
     DOI: 10.1063/1.4959605
   
   in the mass-spec context:
   * V. Asgeirsson, C. Bauer and S. Grimme, Chem. Sci., 2017, 8, 4879.
     DOI: 10.1039/c7sc00601b
   * J. Koopman and S. Grimme, ACS Omega 2019, 4, 12, 15120-15133.
     DOI: 10.1021/acsomega.9b02011
   
   for metadynamics refer to:
   * S. Grimme, J. Chem. Theory Comput., 2019, 155, 2847-2862
     DOI: 10.1021/acs.jctc.9b00143
   
   for SPH calculations refer to:
   * S. Spicher and S. Grimme, J. Chem. Theory Comput., 2021, 17, 1701-1714
     DOI: 10.1021/acs.jctc.0c01306
   
   for ONIOM refer to:
   * C. Plett, A. Katbashev, S. Ehlert, S. Grimme, M. Bursch,
     Phys. Chem. Chem. Phys., 2023, 25, 17860-17868. DOI: 10.1039/D3CP02178E
   
   for DIPRO refer to:
   * J. Kohn, N. Gildemeister, S. Grimme, D. Fazzi, A. Hansen,
     J. Chem. Phys., 2023, just accepted.
   
   for PTB refer to:
   * S. Grimme, M. Mueller, A. Hansen, J. Chem. Phys., 2023, 158, 124111.
     DOI: 10.1063/5.0137838
   
   with help from (in alphabetical order)
   P. Atkinson, C. Bannwarth, F. Bohle, G. Brandenburg, E. Caldeweyher
   M. Checinski, S. Dohm, S. Ehlert, S. Ehrlich, I. Gerasimov, C. Hölzer
   A. Katbashev, J. Kohn, J. Koopman, C. Lavigne, S. Lehtola, F. März, M. Müller,
   F. Musil, H. Neugebauer, J. Pisarek, C. Plett, P. Pracht, F. Pultar,
   J. Seibert, P. Shushkov, S. Spicher, M. Stahn, M. Steiner, T. Strunk,
   J. Stückrath, T. Rose, and J. Unsleber
   
 * started run on 2025/04/11 at 12:20:26.169     
   ID    Z sym.   atoms
    1    6 C      1-3, 5, 6
    2    1 H      4, 8-18
    3    8 O      7

           -------------------------------------------------
          |                Calculation Setup                |
           -------------------------------------------------

          program call               : /srv/scratch/z5358697/.xtb/bin/xtb solv.coord --gfn2 --sp --chrg 0 --norestart --parallel 1 --alpb water reference -I xtb_sp-xcontrol-inp
          hostname                   : k114
          coordinate file            : solv.coord
          omp threads                :                     1


           -------------------------------------------------
          |                 G F N 2 - x T B                 |
           -------------------------------------------------

        Reference                      10.1021/acs.jctc.8b01176
      * Hamiltonian:
        H0-scaling (s, p, d)           1.850000    2.230000    2.230000
        zeta-weighting                 0.500000
      * Dispersion:
        s8                             2.700000
        a1                             0.520000
        a2                             5.000000
        s9                             5.000000
      * Repulsion:
        kExp                           1.500000    1.000000
        rExp                           1.000000
      * Coulomb:
        alpha                          2.000000
        third order                    shell-resolved
        anisotropic                    true
        a3                             3.000000
        a5                             4.000000
        cn-shift                       1.200000
        cn-exp                         4.000000
        max-rad                        5.000000

      * Solvation model:               ALPB
        Solvent                        water
        Parameter file                 internal GFN2-xTB/ALPB
        Dielectric constant                8.0200E+01
        Reference state                gsolv=reference [X=1]
        Free energy shift                  2.8945E-03 Eh       1.8164E+00 kcal/mol
        Temperature                        2.9815E+02 K
        Density                            1.0000E+00 kg/L
        Solvent mass                       1.8000E+01 g/mol
        Interaction kernel             P16
        Born radius scaling (c1)           1.4744E+00
        Born radii integrator          GBOBC
        Born offset                        0.0000E+00 a0       0.0000E+00 AA
        H-bond correction              true
        Ion screening                  false
        Surface tension                    1.0000E-05 Eh       1.5569E+01 dyn/cm
        Grid points                               974 per atom

          ...................................................
          :                      SETUP                      :
          :.................................................:
          :  # basis functions                  36          :
          :  # atomic orbitals                  36          :
          :  # shells                           24          :
          :  # electrons                        38          :
          :  max. iterations                   250          :
          :  Hamiltonian                  GFN2-xTB          :
          :  restarted?                      false          :
          :  GBSA solvation                   true          :
          :  PC potential                    false          :
          :  electronic temp.          300.0000000     K    :
          :  accuracy                    1.0000000          :
          :  -> integral cutoff          0.2500000E+02      :
          :  -> integral neglect         0.1000000E-07      :
          :  -> SCF convergence          0.1000000E-05 Eh   :
          :  -> wf. convergence          0.1000000E-03 e    :
          :  Broyden damping             0.4000000          :
          :  net charge                          0          :
          :  unpaired electrons                  0          :
          ...................................................

 iter      E             dE          RMSdq      gap      omega  full diag
   1    -21.1193750 -0.211194E+02  0.303E+00   12.02       0.0  T
   2    -21.1465413 -0.271663E-01  0.160E+00   11.88       1.0  T
   3    -21.1474325 -0.891176E-03  0.579E-01   11.86       1.0  T
   4    -21.1475885 -0.155935E-03  0.108E-01   11.84       1.0  T
   5    -21.1475995 -0.110948E-04  0.573E-02   11.85       1.0  T
   6    -21.1476019 -0.232295E-05  0.109E-02   11.85       2.2  T
   7    -21.1476022 -0.296930E-06  0.545E-03   11.85       4.3  T
   8    -21.1476023 -0.865551E-07  0.241E-03   11.85       9.8  T
   9    -21.1476023 -0.950801E-08  0.480E-04   11.85      49.1  T
  10    -21.1476023 -0.904038E-09  0.204E-04   11.85     115.6  T

   *** convergence criteria satisfied after 10 iterations ***

         #    Occupation            Energy/Eh            Energy/eV
      -------------------------------------------------------------
         1        2.0000           -0.6840438             -18.6138
       ...           ...                  ...                  ...
        13        2.0000           -0.4563754             -12.4186
        14        2.0000           -0.4557586             -12.4018
        15        2.0000           -0.4413176             -12.0089
        16        2.0000           -0.4367230             -11.8838
        17        2.0000           -0.4242032             -11.5432
        18        2.0000           -0.4215726             -11.4716
        19        2.0000           -0.3961240             -10.7791 (HOMO)
        20                          0.0395047               1.0750 (LUMO)
        21                          0.0783485               2.1320
        22                          0.0872759               2.3749
        23                          0.1137687               3.0958
        24                          0.1304313               3.5492
       ...                                ...                  ...
        36                          0.3157834               8.5929
      -------------------------------------------------------------
                  HL-Gap            0.4356287 Eh           11.8541 eV
             Fermi-level           -0.1783096 Eh           -4.8521 eV

 SCC (total)                   0 d,  0 h,  0 min,  0.012 sec
 SCC setup                      ...        0 min,  0.001 sec (  9.488%)
 Dispersion                     ...        0 min,  0.000 sec (  0.878%)
 classical contributions        ...        0 min,  0.000 sec (  0.219%)
 integral evaluation            ...        0 min,  0.001 sec ( 10.444%)
 iterations                     ...        0 min,  0.006 sec ( 46.500%)
 molecular gradient             ...        0 min,  0.004 sec ( 31.051%)
 printout                       ...        0 min,  0.000 sec (  1.284%)

         :::::::::::::::::::::::::::::::::::::::::::::::::::::
         ::                     SUMMARY                     ::
         :::::::::::::::::::::::::::::::::::::::::::::::::::::
         :: total energy             -20.886544433391 Eh    ::
         :: total w/o Gsasa/hb       -20.884352509315 Eh    ::
         :: gradient norm              0.000194817948 Eh/a0 ::
         :: HOMO-LUMO gap             11.854059824596 eV    ::
         ::.................................................::
         :: SCC energy               -21.147564199184 Eh    ::
         :: -> isotropic ES            0.035285196697 Eh    ::
         :: -> anisotropic ES          0.005370006419 Eh    ::
         :: -> anisotropic XC          0.007698978616 Eh    ::
         :: -> dispersion             -0.010545448103 Eh    ::
         :: -> Gsolv                  -0.006497716021 Eh    ::
         ::    -> Gelec               -0.004305791945 Eh    ::
         ::    -> Gsasa                0.000105653345 Eh    ::
         ::    -> Ghb                 -0.005192126581 Eh    ::
         ::    -> Gshift               0.002894549160 Eh    ::
         :: repulsion energy           0.261019765794 Eh    ::
         :: add. restraining           0.000000000000 Eh    ::
         :: total charge               0.000000000000 e     ::
         :::::::::::::::::::::::::::::::::::::::::::::::::::::

           -------------------------------------------------
          |                Property Printout                |
           -------------------------------------------------

    * Orbital Energies and Occupations

         #    Occupation            Energy/Eh            Energy/eV
      -------------------------------------------------------------
         1        2.0000           -0.6840438             -18.6138
       ...           ...                  ...                  ...
         7        2.0000           -0.5458768             -14.8541
         8        2.0000           -0.5278331             -14.3631
         9        2.0000           -0.5111346             -13.9087
        10        2.0000           -0.4932063             -13.4208
        11        2.0000           -0.4818851             -13.1128
        12        2.0000           -0.4777943             -13.0014
        13        2.0000           -0.4563754             -12.4186
        14        2.0000           -0.4557586             -12.4018
        15        2.0000           -0.4413176             -12.0089
        16        2.0000           -0.4367230             -11.8838
        17        2.0000           -0.4242032             -11.5432
        18        2.0000           -0.4215726             -11.4716
        19        2.0000           -0.3961240             -10.7791 (HOMO)
        20                          0.0395047               1.0750 (LUMO)
        21                          0.0783485               2.1320
        22                          0.0872759               2.3749
        23                          0.1137687               3.0958
        24                          0.1304313               3.5492
        25                          0.1417407               3.8570
        26                          0.1595016               4.3403
        27                          0.1721324               4.6840
        28                          0.1908578               5.1935
        29                          0.2036369               5.5412
        30                          0.2109421               5.7400
       ...                                ...                  ...
        36                          0.3157834               8.5929
      -------------------------------------------------------------
                  HL-Gap            0.4356287 Eh           11.8541 eV
             Fermi-level           -0.1783096 Eh           -4.8521 eV

     #   Z          covCN         q      C6AA      α(0)
     1   6 C        3.751    -0.111    22.681     6.792
     2   6 C        3.800    -0.058    21.624     6.621
     3   6 C        3.847    -0.025    20.987     6.516
     4   1 H        0.924     0.028     2.610     2.526
     5   6 C        3.754    -0.112    22.690     6.792
     6   6 C        3.675     0.079    19.475     6.324
     7   8 O        1.654    -0.510    23.105     6.489
     8   1 H        0.925     0.049     2.330     2.387
     9   1 H        0.925     0.036     2.496     2.471
    10   1 H        0.925     0.033     2.546     2.495
    11   1 H        0.924     0.031     2.573     2.508
    12   1 H        0.924     0.031     2.578     2.511
    13   1 H        0.925     0.035     2.520     2.482
    14   1 H        0.925     0.051     2.302     2.372
    15   1 H        0.925     0.040     2.444     2.445
    16   1 H        0.923     0.027     2.625     2.534
    17   1 H        0.924     0.022     2.702     2.570
    18   1 H        0.805     0.352     0.585     1.201

 Mol. C6AA /au·bohr⁶  :       2125.313904
 Mol. C8AA /au·bohr⁸  :      43749.806263
 Mol. α(0) /au        :         68.036777


Wiberg/Mayer (AO) data.
largest (>0.10) Wiberg bond orders for each atom

 ---------------------------------------------------------------------------
     #   Z sym  total        # sym  WBO       # sym  WBO       # sym  WBO
 ---------------------------------------------------------------------------
     1   6 C    3.996 --     2 C    1.020     9 H    0.988    10 H    0.987
                             8 H    0.983
     2   6 C    3.997 --     1 C    1.020     3 C    0.995    11 H    0.979
                            12 H    0.977
     3   6 C    3.995 --     5 C    1.010     2 C    0.995     6 C    0.986
                             4 H    0.967
     4   1 H    0.999 --     3 C    0.967
     5   6 C    3.996 --     3 C    1.010    13 H    0.987    15 H    0.986
                            14 H    0.985
     6   6 C    3.954 --     7 O    0.990     3 C    0.986    17 H    0.977
                            16 H    0.971
     7   8 O    1.917 --     6 C    0.990    18 H    0.866
     8   1 H    0.998 --     1 C    0.983
     9   1 H    0.999 --     1 C    0.988
    10   1 H    0.999 --     1 C    0.987
    11   1 H    0.999 --     2 C    0.979
    12   1 H    0.999 --     2 C    0.977
    13   1 H    0.999 --     5 C    0.987
    14   1 H    0.997 --     5 C    0.985
    15   1 H    0.998 --     5 C    0.986
    16   1 H    0.999 --     6 C    0.971
    17   1 H    1.000 --     6 C    0.977
    18   1 H    0.876 --     7 O    0.866
 ---------------------------------------------------------------------------

Topologies differ in total number of bonds
Writing topology from bond orders to xtbtopo.mol

molecular dipole:
                 x           y           z       tot (Debye)
 q only:       -0.036       0.334       0.442
   full:        0.025       0.431       0.633       1.947
molecular quadrupole (traceless):
                xx          xy          yy          xz          yz          zz
 q only:       -0.758       2.242       2.428       2.083      -0.139      -1.670
  q+dip:       -0.170       2.843       3.137       2.720       0.600      -2.967
   full:       -0.556       2.877       3.204       2.762       0.292      -2.648


           -------------------------------------------------
          | TOTAL ENERGY              -20.886544433391 Eh   |
          | GRADIENT NORM               0.000194817948 Eh/α |
          | HOMO-LUMO GAP              11.854059824596 eV   |
           -------------------------------------------------

------------------------------------------------------------------------
 * finished run on 2025/04/11 at 12:20:26.224     
------------------------------------------------------------------------
 total:
 * wall-time:     0 d,  0 h,  0 min,  0.054 sec
 *  cpu-time:     0 d,  0 h,  0 min,  0.020 sec
 * ratio c/w:     0.373 speedup
 SCF:
 * wall-time:     0 d,  0 h,  0 min,  0.012 sec
 *  cpu-time:     0 d,  0 h,  0 min,  0.012 sec
 * ratio c/w:     0.990 speedup

