      -----------------------------------------------------------      
     |                   =====================                   |     
     |                           x T B                           |     
     |                   =====================                   |     
     |                         S. Grimme                         |     
     |          Mulliken Center for Theoretical Chemistry        |     
     |                    University of Bonn                     |     
      -----------------------------------------------------------      

   * xtb version 6.7.1 (edcfbbe) compiled by 'albert@albert-system' on 2024-07-22

   xtb is free software: you can redistribute it and/or modify it under
   the terms of the GNU Lesser General Public License as published by
   the Free Software Foundation, either version 3 of the License, or
   (at your option) any later version.
   
   xtb is distributed in the hope that it will be useful,
   but WITHOUT ANY WARRANTY; without even the implied warranty of
   MERCHANTABILITY or FITNESS FOR A PARTICULAR PURPOSE.  See the
   GNU Lesser General Public License for more details.
   
   Cite this work as:
   * C. Bannwarth, E. Caldeweyher, S. Ehlert, A. Hansen, P. Pracht,
     J. Seibert, S. Spicher, S. Grimme, WIREs Comput. Mol. Sci., 2020, 11,
     e01493. DOI: 10.1002/wcms.1493
   
   for GFN2-xTB:
   * C. Bannwarth, S. Ehlert and S. Grimme., J. Chem. Theory Comput., 2019,
     15, 1652-1671. DOI: 10.1021/acs.jctc.8b01176
   for GFN1-xTB:
   * S. Grimme, C. Bannwarth, P. Shushkov, J. Chem. Theory Comput., 2017,
     13, 1989-2009. DOI: 10.1021/acs.jctc.7b00118
   for GFN0-xTB:
   * P. Pracht, E. Caldeweyher, S. Ehlert, S. Grimme, ChemRxiv, 2019, preprint.
     DOI: 10.26434/chemrxiv.8326202.v1
   for GFN-FF:
   * S. Spicher and S. Grimme, Angew. Chem. Int. Ed., 2020, 59, 15665-15673.
     DOI: 10.1002/anie.202004239
   
   for ALPB and GBSA implicit solvation:
   * S. Ehlert, M. Stahn, S. Spicher, S. Grimme, J. Chem. Theory Comput.,
     2021, 17, 4250-4261. DOI: 10.1021/acs.jctc.1c00471
   
   for ddCOSMO and CPCM-X implicit solvation:
   * M. Stahn, S. Ehlert, S. Grimme, J. Phys. Chem. A,
     2023, XX, XXXX-XXXX. DOI: 10.1021/acs.jpca.3c04382
   
   for DFT-D4:
   * E. Caldeweyher, C. Bannwarth and S. Grimme, J. Chem. Phys., 2017,
     147, 034112. DOI: 10.1063/1.4993215
   * E. Caldeweyher, S. Ehlert, A. Hansen, H. Neugebauer, S. Spicher,
     C. Bannwarth and S. Grimme, J. Chem. Phys., 2019, 150, 154122.
     DOI: 10.1063/1.5090222
   * E. Caldeweyher, J.-M. Mewes, S. Ehlert and S. Grimme, Phys. Chem. Chem. Phys.
     2020, 22, 8499-8512. DOI: 10.1039/D0CP00502A
   
   for sTDA-xTB:
   * S. Grimme and C. Bannwarth, J. Chem. Phys., 2016, 145, 054103.
     DOI: 10.1063/1.4959605
   
   in the mass-spec context:
   * V. Asgeirsson, C. Bauer and S. Grimme, Chem. Sci., 2017, 8, 4879.
     DOI: 10.1039/c7sc00601b
   * J. Koopman and S. Grimme, ACS Omega 2019, 4, 12, 15120-15133.
     DOI: 10.1021/acsomega.9b02011
   
   for metadynamics refer to:
   * S. Grimme, J. Chem. Theory Comput., 2019, 155, 2847-2862
     DOI: 10.1021/acs.jctc.9b00143
   
   for SPH calculations refer to:
   * S. Spicher and S. Grimme, J. Chem. Theory Comput., 2021, 17, 1701-1714
     DOI: 10.1021/acs.jctc.0c01306
   
   for ONIOM refer to:
   * C. Plett, A. Katbashev, S. Ehlert, S. Grimme, M. Bursch,
     Phys. Chem. Chem. Phys., 2023, 25, 17860-17868. DOI: 10.1039/D3CP02178E
   
   for DIPRO refer to:
   * J. Kohn, N. Gildemeister, S. Grimme, D. Fazzi, A. Hansen,
     J. Chem. Phys., 2023, just accepted.
   
   for PTB refer to:
   * S. Grimme, M. Mueller, A. Hansen, J. Chem. Phys., 2023, 158, 124111.
     DOI: 10.1063/5.0137838
   
   with help from (in alphabetical order)
   P. Atkinson, C. Bannwarth, F. Bohle, G. Brandenburg, E. Caldeweyher
   M. Checinski, S. Dohm, S. Ehlert, S. Ehrlich, I. Gerasimov, C. Hölzer
   A. Katbashev, J. Kohn, J. Koopman, C. Lavigne, S. Lehtola, F. März, M. Müller,
   F. Musil, H. Neugebauer, J. Pisarek, C. Plett, P. Pracht, F. Pultar,
   J. Seibert, P. Shushkov, S. Spicher, M. Stahn, M. Steiner, T. Strunk,
   J. Stückrath, T. Rose, and J. Unsleber
   
 * started run on 2025/04/11 at 11:04:42.336     
   ID    Z sym.   atoms
    1    6 C      1-6, 8, 9
    2    7 N      7, 10
    3    1 H      11-22

           -------------------------------------------------
          |                Calculation Setup                |
           -------------------------------------------------

          program call               : /srv/scratch/z5358697/.xtb/bin/xtb gas.coord --gfn2 --sp --chrg 0 --norestart --parallel 1
          hostname                   : k064
          coordinate file            : gas.coord
          omp threads                :                     1


           -------------------------------------------------
          |                 G F N 2 - x T B                 |
           -------------------------------------------------

        Reference                      10.1021/acs.jctc.8b01176
      * Hamiltonian:
        H0-scaling (s, p, d)           1.850000    2.230000    2.230000
        zeta-weighting                 0.500000
      * Dispersion:
        s8                             2.700000
        a1                             0.520000
        a2                             5.000000
        s9                             5.000000
      * Repulsion:
        kExp                           1.500000    1.000000
        rExp                           1.000000
      * Coulomb:
        alpha                          2.000000
        third order                    shell-resolved
        anisotropic                    true
        a3                             3.000000
        a5                             4.000000
        cn-shift                       1.200000
        cn-exp                         4.000000
        max-rad                        5.000000


          ...................................................
          :                      SETUP                      :
          :.................................................:
          :  # basis functions                  52          :
          :  # atomic orbitals                  52          :
          :  # shells                           32          :
          :  # electrons                        54          :
          :  max. iterations                   250          :
          :  Hamiltonian                  GFN2-xTB          :
          :  restarted?                      false          :
          :  GBSA solvation                  false          :
          :  PC potential                    false          :
          :  electronic temp.          300.0000000     K    :
          :  accuracy                    1.0000000          :
          :  -> integral cutoff          0.2500000E+02      :
          :  -> integral neglect         0.1000000E-07      :
          :  -> SCF convergence          0.1000000E-05 Eh   :
          :  -> wf. convergence          0.1000000E-03 e    :
          :  Broyden damping             0.4000000          :
          :  net charge                          0          :
          :  unpaired electrons                  0          :
          ...................................................

 iter      E             dE          RMSdq      gap      omega  full diag
   1    -29.4900858 -0.294901E+02  0.354E+00    2.87       0.0  T
   2    -29.5248885 -0.348027E-01  0.216E+00    2.63       1.0  T
   3    -29.5264018 -0.151332E-02  0.816E-01    2.36       1.0  T
   4    -29.5278662 -0.146435E-02  0.233E-01    2.28       1.0  T
   5    -29.5281971 -0.330880E-03  0.934E-02    2.28       1.0  T
   6    -29.5282982 -0.101157E-03  0.340E-02    2.28       1.0  T
   7    -29.5283044 -0.620210E-05  0.121E-02    2.28       1.8  T
   8    -29.5283045 -0.590420E-07  0.183E-03    2.28      11.7  T
   9    -29.5283045 -0.440611E-07  0.745E-04    2.28      28.6  T
  10    -29.5283045 -0.128800E-08  0.224E-04    2.28      95.2  T

   *** convergence criteria satisfied after 10 iterations ***

         #    Occupation            Energy/Eh            Energy/eV
      -------------------------------------------------------------
         1        2.0000           -0.6784134             -18.4606
       ...           ...                  ...                  ...
        21        2.0000           -0.4544243             -12.3655
        22        2.0000           -0.4459180             -12.1340
        23        2.0000           -0.4377823             -11.9127
        24        2.0000           -0.4322670             -11.7626
        25        2.0000           -0.4168334             -11.3426
        26        2.0000           -0.4152302             -11.2990
        27        2.0000           -0.3561138              -9.6904 (HOMO)
        28                         -0.2723204              -7.4102 (LUMO)
        29                         -0.2469193              -6.7190
        30                         -0.1287498              -3.5035
        31                          0.0715510               1.9470
        32                          0.0918227               2.4986
       ...                                ...                  ...
        52                          0.6099795              16.5984
      -------------------------------------------------------------
                  HL-Gap            0.0837934 Eh            2.2801 eV
             Fermi-level           -0.3142171 Eh           -8.5503 eV

 SCC (total)                   0 d,  0 h,  0 min,  0.042 sec
 SCC setup                      ...        0 min,  0.001 sec (  1.326%)
 Dispersion                     ...        0 min,  0.000 sec (  0.912%)
 classical contributions        ...        0 min,  0.000 sec (  0.214%)
 integral evaluation            ...        0 min,  0.007 sec ( 17.839%)
 iterations                     ...        0 min,  0.026 sec ( 63.205%)
 molecular gradient             ...        0 min,  0.007 sec ( 16.072%)
 printout                       ...        0 min,  0.000 sec (  0.368%)

         :::::::::::::::::::::::::::::::::::::::::::::::::::::
         ::                     SUMMARY                     ::
         :::::::::::::::::::::::::::::::::::::::::::::::::::::
         :: total energy             -29.085165607049 Eh    ::
         :: gradient norm              0.005629925190 Eh/a0 ::
         :: HOMO-LUMO gap              2.280134521978 eV    ::
         ::.................................................::
         :: SCC energy               -29.528241391320 Eh    ::
         :: -> isotropic ES            0.015530033356 Eh    ::
         :: -> anisotropic ES          0.005566103190 Eh    ::
         :: -> anisotropic XC          0.027989637674 Eh    ::
         :: -> dispersion             -0.017345881732 Eh    ::
         :: repulsion energy           0.443075784271 Eh    ::
         :: add. restraining           0.000000000000 Eh    ::
         :: total charge               0.000000000000 e     ::
         :::::::::::::::::::::::::::::::::::::::::::::::::::::

           -------------------------------------------------
          |                Property Printout                |
           -------------------------------------------------

    * Orbital Energies and Occupations

         #    Occupation            Energy/Eh            Energy/eV
      -------------------------------------------------------------
         1        2.0000           -0.6784134             -18.4606
       ...           ...                  ...                  ...
        15        2.0000           -0.5019562             -13.6589
        16        2.0000           -0.4968603             -13.5203
        17        2.0000           -0.4748748             -12.9220
        18        2.0000           -0.4699263             -12.7873
        19        2.0000           -0.4677396             -12.7278
        20        2.0000           -0.4644868             -12.6393
        21        2.0000           -0.4544243             -12.3655
        22        2.0000           -0.4459180             -12.1340
        23        2.0000           -0.4377823             -11.9127
        24        2.0000           -0.4322670             -11.7626
        25        2.0000           -0.4168334             -11.3426
        26        2.0000           -0.4152302             -11.2990
        27        2.0000           -0.3561138              -9.6904 (HOMO)
        28                         -0.2723204              -7.4102 (LUMO)
        29                         -0.2469193              -6.7190
        30                         -0.1287498              -3.5035
        31                          0.0715510               1.9470
        32                          0.0918227               2.4986
        33                          0.0998603               2.7173
        34                          0.1186950               3.2299
        35                          0.1343153               3.6549
        36                          0.1447715               3.9394
        37                          0.1526388               4.1535
        38                          0.1598034               4.3485
       ...                                ...                  ...
        52                          0.6099795              16.5984
      -------------------------------------------------------------
                  HL-Gap            0.0837934 Eh            2.2801 eV
             Fermi-level           -0.3142171 Eh           -8.5503 eV

     #   Z          covCN         q      C6AA      α(0)
     1   6 C        3.756    -0.105    22.569     6.774
     2   6 C        3.851    -0.005    20.628     6.460
     3   6 C        3.756    -0.109    22.629     6.783
     4   6 C        3.813    -0.076    21.939     6.667
     5   6 C        2.951     0.094    25.908     8.348
     6   6 C        2.912     0.045    27.000     8.521
     7   7 N        1.839    -0.207    26.342     7.606
     8   6 C        2.909     0.046    26.973     8.516
     9   6 C        2.899     0.051    26.861     8.498
    10   7 N        1.845    -0.217    26.573     7.640
    11   1 H        0.925     0.043     2.410     2.428
    12   1 H        0.925     0.032     2.558     2.501
    13   1 H        0.925     0.037     2.492     2.469
    14   1 H        0.924     0.028     2.609     2.526
    15   1 H        0.925     0.035     2.519     2.482
    16   1 H        0.925     0.040     2.454     2.450
    17   1 H        0.925     0.040     2.445     2.445
    18   1 H        0.925     0.062     2.172     2.305
    19   1 H        0.924     0.046     2.372     2.409
    20   1 H        0.926     0.040     2.447     2.446
    21   1 H        0.926     0.040     2.443     2.444
    22   1 H        0.926     0.040     2.444     2.445

 Mol. C6AA /au·bohr⁶  :       4671.855473
 Mol. C8AA /au·bohr⁸  :     105605.383179
 Mol. α(0) /au        :        105.160933


Wiberg/Mayer (AO) data.
largest (>0.10) Wiberg bond orders for each atom

 ---------------------------------------------------------------------------
     #   Z sym  total        # sym  WBO       # sym  WBO       # sym  WBO
 ---------------------------------------------------------------------------
     1   6 C    3.996 --     2 C    1.011    13 H    0.986    11 H    0.986
                            12 H    0.986
     2   6 C    3.995 --     1 C    1.011     3 C    1.009     4 C    0.973
                            14 H    0.969
     3   6 C    3.995 --     2 C    1.009    15 H    0.987    17 H    0.986
                            16 H    0.985
     4   6 C    3.995 --     5 C    1.015     2 C    0.973    18 H    0.972
                            19 H    0.961
     5   6 C    3.975 --    10 N    1.418     6 C    1.358     4 C    1.015
                             8 C    0.119
     6   6 C    3.981 --     7 N    1.466     5 C    1.358    20 H    0.962
                             9 C    0.124
     7   7 N    3.063 --     6 C    1.466     8 C    1.429
     8   6 C    3.981 --     7 N    1.429     9 C    1.415    21 H    0.964
                             5 C    0.119
     9   6 C    3.981 --    10 N    1.440     8 C    1.415    22 H    0.963
                             6 C    0.124
    10   7 N    3.060 --     9 C    1.440     5 C    1.418
    11   1 H    0.998 --     1 C    0.986
    12   1 H    0.999 --     1 C    0.986
    13   1 H    0.999 --     1 C    0.986
    14   1 H    0.999 --     2 C    0.969
    15   1 H    0.999 --     3 C    0.987
    16   1 H    0.998 --     3 C    0.985
    17   1 H    0.998 --     3 C    0.986
    18   1 H    0.996 --     4 C    0.972
    19   1 H    0.998 --     4 C    0.961
    20   1 H    0.998 --     6 C    0.962
    21   1 H    0.998 --     8 C    0.964
    22   1 H    0.998 --     9 C    0.963
 ---------------------------------------------------------------------------

Topologies differ in total number of bonds
Writing topology from bond orders to xtbtopo.mol

molecular dipole:
                 x           y           z       tot (Debye)
 q only:       -0.464       0.055      -0.071
   full:       -0.402       0.035      -0.065       1.039
molecular quadrupole (traceless):
                xx          xy          yy          xz          yz          zz
 q only:        2.777       2.763      -1.629       0.543       1.158      -1.148
  q+dip:        3.399       4.967      -1.536       0.577       1.522      -1.863
   full:        3.176       5.187      -3.216      -0.471       2.821       0.040


           -------------------------------------------------
          | TOTAL ENERGY              -29.085165607049 Eh   |
          | GRADIENT NORM               0.005629925190 Eh/α |
          | HOMO-LUMO GAP               2.280134521978 eV   |
           -------------------------------------------------

------------------------------------------------------------------------
 * finished run on 2025/04/11 at 11:04:42.478     
------------------------------------------------------------------------
 total:
 * wall-time:     0 d,  0 h,  0 min,  0.141 sec
 *  cpu-time:     0 d,  0 h,  0 min,  0.042 sec
 * ratio c/w:     0.300 speedup
 SCF:
 * wall-time:     0 d,  0 h,  0 min,  0.042 sec
 *  cpu-time:     0 d,  0 h,  0 min,  0.030 sec
 * ratio c/w:     0.715 speedup

