18
 energy: -20.891930620403 gnorm: 0.030143813296 xtb: 6.7.1 (edcfbbe)
C            1.98194113689971        0.20245998624630        0.76092490908022
C            1.44135406938150       -0.66777203461166       -0.37445904472330
C            0.24427770559098       -0.09223951862462       -1.13968558990865
C           -1.05645930547996        0.13952975501630       -0.36161542797681
H           -1.84420356212214        0.34011074796591       -1.09751263819464
C           -1.47432980575056       -1.04406786706388        0.49631815799965
O           -1.01471410041606        1.35404753985524        0.43190393580019
H            2.93951059985453       -0.18759706424615        1.12232105019229
H            1.30788381791147        0.22589674574759        1.62428362866669
H            2.14624271707641        1.23382747908829        0.42878282048368
H            2.24528885743573       -0.82741328396053       -1.10352863407055
H            1.18840515190239       -1.66151926694556        0.01517599113145
H            0.52973137552103        0.86002558232130       -1.60570685393996
H            0.00412686902327       -0.77960964564164       -1.96143506412405
H           -1.52875128075997       -1.95600098498056       -0.10779415301125
H           -0.75693059056854       -1.21534265370068        1.30655898725536
H           -2.45855527941598       -0.86608414662440        0.94013285623624
H           -0.45100359981856        1.18590357728493        1.19717736383360
18
 energy: -20.892887100060 gnorm: 0.014966583838 xtb: 6.7.1 (edcfbbe)
C            1.97777189029096        0.20035071561656        0.75774805326519
C            1.44190851730394       -0.67317495024967       -0.37047919311034
C            0.24948526586079       -0.08939076724334       -1.13290097081466
C           -1.05555319632907        0.13909925759502       -0.35601973955373
H           -1.84288064107574        0.34391595162128       -1.09141148048034
C           -1.46940474881622       -1.04926030991250        0.50075726786780
O           -1.02253030100636        1.34741079132937        0.41715176698649
H            2.93509604097236       -0.18834206479491        1.10512921649124
H            1.30442882697198        0.21434733354430        1.61423584207030
H            2.12997980149499        1.22456011768595        0.41780518466931
H            2.24425495127561       -0.82141767119085       -1.09959867930743
H            1.18293147147944       -1.65987428713525        0.02244926998729
H            0.53769211322605        0.86717632967061       -1.58016715531440
H            0.01426981586417       -0.77330218785771       -1.95409953311973
H           -1.52454877838397       -1.94944086498484       -0.10917033166558
H           -0.75673724663091       -1.21778811262336        1.30736307027827
H           -2.44871854432981       -0.86631947459972        0.94006590716722
H           -0.45363046190296        1.19560514065525        1.18298379931326
18
 energy: -20.893135037668 gnorm: 0.003770635917 xtb: 6.7.1 (edcfbbe)
C            1.97522383860326        0.19764739438526        0.75856467217832
C            1.43999207496988       -0.67844360495418       -0.36824785940700
C            0.25150658260238       -0.08737161627230       -1.13182018360463
C           -1.05544019335703        0.14188847159494       -0.35140755220636
H           -1.84329413941247        0.33790243513403       -1.08982193452994
C           -1.46433256475230       -1.05340823542930        0.50375232710888
O           -1.03080311507410        1.34282792129523        0.40802387212909
H            2.93478571232085       -0.18430299565454        1.09858308594844
H            1.30403599555310        0.20502518686519        1.61273466851833
H            2.11611552875034        1.21855103913293        0.41378420931927
H            2.23993767995259       -0.82554026312411       -1.09743306931650
H            1.17531952447245       -1.66055976762694        0.02492952485350
H            0.54346613965860        0.87426666616840       -1.56054613225366
H            0.01817212435173       -0.76227830991486       -1.95789878702706
H           -1.51813027151527       -1.94605184797754       -0.11108470502234
H           -0.75148809546946       -1.21819628285955        1.30654814065258
H           -2.44108677719982       -0.86967936267559        0.94272683292598
H           -0.45016526818945        1.21187811903912        1.17045518446327
18
 energy: -20.893180986502 gnorm: 0.002100179746 xtb: 6.7.1 (edcfbbe)
C            1.97361701297733        0.19569510943338        0.75946600868509
C            1.43847755866663       -0.68115930659302       -0.36821225906617
C            0.25209499608265       -0.08417744941739       -1.13152672376951
C           -1.05679227920067        0.14335935508260       -0.35055900982981
H           -1.84541099034564        0.33062270228599       -1.09135139567241
C           -1.46152981035767       -1.05510118318699        0.50529572439118
O           -1.03622604941489        1.34251189610730        0.40464367042084
H            2.93575481531245       -0.18240951206835        1.09670011932928
H            1.30407946931951        0.19856042565734        1.61525513816565
H            2.10934481862771        1.21765968250807        0.41505735910603
H            2.23869926867755       -0.83112209120403       -1.09639981542132
H            1.17042427025359       -1.66231557268376        0.02464915309937
H            0.54641528613334        0.87977230075200       -1.55317919673182
H            0.01916320851593       -0.75309020988145       -1.96202320449487
H           -1.51366119857338       -1.94691001908837       -0.11079407585159
H           -0.74676623781749       -1.21791845525215        1.30699275092365
H           -2.43831559326926       -0.87367651314688        0.94587901640275
H           -0.44555376932241        1.22385378782188        1.16194903504382
18
 energy: -20.893208190951 gnorm: 0.002463735821 xtb: 6.7.1 (edcfbbe)
C            1.97199647645441        0.19266490044121        0.76105360161333
C            1.43602777612193       -0.68267651471177       -0.36850696490768
C            0.25232170006015       -0.08024524634236       -1.13190227549015
C           -1.05840970404954        0.14356181982557       -0.35078557998698
H           -1.84822451704522        0.32148555445989       -1.09310316105947
C           -1.45784885053394       -1.05670582934390        0.50719551964523
O           -1.04399768576753        1.34309434176387        0.40110210172042
H            2.93724229150929       -0.18160534284542        1.09534537376547
H            1.30467156509541        0.19007878232442        1.61952581853526
H            2.10277368449524        1.21686984478602        0.41941445552051
H            2.23704984322228       -0.83651326064817       -1.09538398259289
H            1.16416485592646       -1.66349979165847        0.02336274118420
H            0.54879306664883        0.88653731691529       -1.54620934834050
H            0.02045256098003       -0.74207990535548       -1.96851885600661
H           -1.50792462182953       -1.94949179040914       -0.10855131446435
H           -0.74098737017825       -1.21692150155873        1.30839013825365
H           -2.43501606448146       -0.87859982599516        0.94977973982420
H           -0.43927023036330        1.23820139547852        1.14963428751651
18
 energy: -20.893221932224 gnorm: 0.002132520091 xtb: 6.7.1 (edcfbbe)
C            1.97037294520652        0.19015203048704        0.76241743375200
C            1.43424286939810       -0.68295291586087       -0.36893130633394
C            0.25234699870338       -0.07712899658375       -1.13190239197014
C           -1.05978735220615        0.14231934858997       -0.35175319970761
H           -1.85060683295934        0.31516969713571       -1.09404858626182
C           -1.45484119287063       -1.05774121578024        0.50880034028925
O           -1.05009951499771        1.34340484411352        0.39840977739890
H            2.93721785373495       -0.18261165505313        1.09448173308823
H            1.30457895565917        0.18367263847042        1.62256987678424
H            2.09887740430045        1.21606458521895        0.42409816310835
H            2.23592485004307       -0.83850699741103       -1.09501339461083
H            1.16004648130517       -1.66394670927816        0.02151460589144
H            0.54935044971401        0.89184052991548       -1.54123363969410
H            0.02215828213074       -0.73423982265844       -1.97290094822762
H           -1.50323882316902       -1.95214209350145       -0.10533401195197
H           -0.73696459293118       -1.21514865823438        1.31004420523853
H           -2.43224729968520       -0.88174717564671        0.95229360363980
H           -0.43351670511107        1.24769751320327        1.13833003429746
18
 energy: -20.893234729919 gnorm: 0.001281495933 xtb: 6.7.1 (edcfbbe)
C            1.96832722152984        0.18708727818795        0.76436189961384
C            1.43232626732527       -0.68240420382329       -0.36952769691482
C            0.25200106674566       -0.07381479960428       -1.13190250405210
C           -1.06136186905545        0.13981334706104       -0.35313705011125
H           -1.85335628105190        0.30858410053853       -1.09459512194383
C           -1.45141247885674       -1.05892599524958        0.51084340180072
O           -1.05696468751091        1.34339544663943        0.39543741829227
H            2.93597779750551       -0.18546250932433        1.09431718670836
H            1.30350755740027        0.17670116255747        1.62537213021314
H            2.09573731014420        1.21453655367125        0.43012354702424
H            2.23465778819778       -0.83783135515278       -1.09503129502053
H            1.15644137234653       -1.66399967436126        0.01844959559416
H            0.54861966060484        0.89774976662819       -1.53560869004953
H            0.02457266479928       -0.72624968586511       -1.97742904946693
H           -1.49753073513399       -1.95556168111374       -0.10050623099510
H           -0.73297183081266       -1.21200733004075        1.31243896137903
H           -2.42906963221751       -0.88480725807094        0.95450791669571
H           -0.42568641569475        1.25735178444839        1.12372787596280
18
 energy: -20.893242458372 gnorm: 0.000932541681 xtb: 6.7.1 (edcfbbe)
C            1.96550922747535        0.18362751518186        0.76704452693988
C            1.43099431499410       -0.68113546779005       -0.37078461675833
C            0.25108413969282       -0.07071793790462       -1.13198944172349
C           -1.06309247621788        0.13671055874599       -0.35448110566893
H           -1.85650006808571        0.30229820343782       -1.09463250930461
C           -1.44775464004384       -1.06012360371418        0.51349936762066
O           -1.06340038346631        1.34307634392770        0.39235780958510
H            2.93237173556598       -0.19088063428270        1.09619968325917
H            1.29988574633637        0.16987700994555        1.62706575371962
H            2.09414266462481        1.21208538583885        0.43717174664064
H            2.23400147754075       -0.83286896188399       -1.09615129270269
H            1.15506645428451       -1.66416920482280        0.01305574392294
H            0.54627119802602        0.90335807847104       -1.53033319746261
H            0.02701219650055       -0.71952592665499       -1.98105264301229
H           -1.49045074944463       -1.95918972675637       -0.09427267307294
H           -0.72924378012275       -1.20709728206124        1.31574959005917
H           -2.42584965501851       -0.88783299909379        0.95627513765524
H           -0.41623262637636        1.26666359654212        1.10712041503366
18
 energy: -20.893245894042 gnorm: 0.000622253911 xtb: 6.7.1 (edcfbbe)
C            1.96431309910535        0.18270770043644        0.76811228063191
C            1.43139028604601       -0.68040357222895       -0.37183441270509
C            0.25043241642463       -0.07059572543515       -1.13248713350548
C           -1.06328310009588        0.13648182012978       -0.35426800828446
H           -1.85723029566096        0.30143285228615       -1.09412725139074
C           -1.44689281878903       -1.06020625232899        0.51450740929524
O           -1.06363638750977        1.34312197922021        0.39185005177941
H            2.92962564005085       -0.19391648768022        1.09915269634532
H            1.29644945980590        0.16909581247403        1.62620032319244
H            2.09541754044469        1.21100373658101        0.43910844699535
H            2.23475321425558       -0.82850930924173       -1.09740570821687
H            1.15713059173705       -1.66463801578511        0.00975600624577
H            0.54490296880615        0.90349072445750       -1.53091204035097
H            0.02654149098190       -0.71993126466036       -1.98100696574456
H           -1.48786665522135       -1.95964307977271       -0.09252239419384
H           -0.72861034995627       -1.20510355141000        1.31712481194416
H           -2.42540878531517       -0.88874173684948        0.95647835025082
H           -0.41421353884442        1.26850931693378        1.10411583244177
18
 energy: -20.893249951290 gnorm: 0.000548901352 xtb: 6.7.1 (edcfbbe)
C            1.96138285620547        0.18050083596299        0.77029121638953
C            1.43205882189374       -0.67897968312157       -0.37429089182019
C            0.24919594123801       -0.06989433984154       -1.13344772682158
C           -1.06381154844134        0.13638767977405       -0.35355353848781
H           -1.85915989424881        0.29877962346929       -1.09276524121146
C           -1.44450584078375       -1.06063276467141        0.51669131905753
O           -1.06552477537837        1.34350467007234        0.39071306570807
H            2.92328759808131       -0.20073948545080        1.10607299197170
H            1.28853529322375        0.16758740535159        1.62440369340584
H            2.09842307742799        1.20870652711870        0.44349682922580
H            2.23646730407829       -0.82025456023496       -1.09998856073229
H            1.16096266643425       -1.66589696651400        0.00248347818863
H            0.54249675258202        0.90423404768985       -1.53241499718120
H            0.02505212827656       -0.72003420592678       -1.98117806963335
H           -1.48164348034250       -1.96080060775648       -0.08929473169871
H           -0.72665546741244       -1.20171339586089        1.32026073346292
H           -2.42412894271169       -0.89167883650692        0.95714818660609
H           -0.40861771385720        1.27507900357272        1.09721453830066
18
 energy: -20.893250885071 gnorm: 0.000382194246 xtb: 6.7.1 (edcfbbe)
C            1.95991259833020        0.17932960697764        0.77110473496368
C            1.43214492653619       -0.67815592030821       -0.37554309275468
C            0.24881510040814       -0.06950783159888       -1.13407541071782
C           -1.06378214853279        0.13649645501139       -0.35345503328904
H           -1.85968292799419        0.29760133280068       -1.09229169203992
C           -1.44289386197095       -1.06049902716675        0.51771768005076
O           -1.06592496625298        1.34412512142617        0.38994147433228
H            2.92007052353267       -0.20420247008049        1.10964672763977
H            1.28457520151823        0.16722140702428        1.62340433100087
H            2.10025952816222        1.20764432722839        0.44566986673732
H            2.23716701305337       -0.81710046457604       -1.10109422914009
H            1.16229139726109       -1.66634139314136       -0.00091577536939
H            0.54156874883008        0.90450218145664       -1.53403709129192
H            0.02397613646720       -0.71999137990612       -1.98150815420731
H           -1.47852705570432       -1.96127315136625       -0.08765942468294
H           -0.72498216194942       -1.20030040879960        1.32160276848748
H           -2.42287691368403       -0.89297213838072        0.95808576991936
H           -0.40829636174544        1.27757870052541        1.09524884509179
18
 energy: -20.893251268219 gnorm: 0.000126484377 xtb: 6.7.1 (edcfbbe)
C            1.95925250295051        0.17860388512846        0.77139702175384
C            1.43190496338614       -0.67806816029454       -0.37592087257504
C            0.24883890099508       -0.06899409078193       -1.13424128124773
C           -1.06386563174669        0.13641923860317       -0.35346148791710
H           -1.86011575407539        0.29630637058643       -1.09214884110853
C           -1.44180959348918       -1.06057235916324        0.51821560493214
O           -1.06714489298082        1.34435025773793        0.38921491629465
H            2.91891599364884       -0.20555941674473        1.11059058185020
H            1.28321973059495        0.16661599227554        1.62315304249001
H            2.10043390257892        1.20698605143524        0.44654952369421
H            2.23720942569020       -0.81674328363280       -1.10122935056066
H            1.16188934631732       -1.66648157782508       -0.00197693155363
H            0.54152990105665        0.90534394701149       -1.53365075803924
H            0.02407093025703       -0.71888792294935       -1.98220816219292
H           -1.47707520012217       -1.96149240460939       -0.08696975980511
H           -0.72352626633923       -1.19975351662825        1.32187571107162
H           -2.42173344829681       -0.89360085716290        0.95890238360348
H           -0.40818003416007        1.27968279414017        1.09375095403999
18
 energy: -20.893251500347 gnorm: 0.000111969259 xtb: 6.7.1 (edcfbbe)
C            1.95893818726900        0.17813403138899        0.77149234445504
C            1.43177181082738       -0.67816399141394       -0.37615195095693
C            0.24897642221965       -0.06856813033725       -1.13432248032127
C           -1.06395023261250        0.13627796136978       -0.35367427548962
H           -1.86033214596297        0.29534041235017       -1.09236125160553
C           -1.44102451555270       -1.06051231732232        0.51857714936279
O           -1.06798500071962        1.34458993376090        0.38842947273530
H            2.91835129420052       -0.20638010272776        1.11097515995687
H            1.28257755862803        0.16625464917873        1.62301476617299
H            2.10054332705702        1.20656533845124        0.44694143195788
H            2.23723080498761       -0.81693042948139       -1.10131233526802
H            1.16141965498050       -1.66663272800883       -0.00254176765140
H            0.54169474109140        0.90604056639569       -1.53310521559245
H            0.02437985711160       -0.71786992252323       -1.98279335866681
H           -1.47647989640556       -1.96160018880656       -0.08636433528791
H           -0.72224635856038       -1.19936738236586        1.32185811580069
H           -2.42071555195291       -0.89364251547216        0.95980747535781
H           -0.40933518034081        1.28061976268999        1.09337334977076
18
 energy: -20.893251693168 gnorm: 0.000100663720 xtb: 6.7.1 (edcfbbe)
C            1.95872664658562        0.17756318674952        0.77163845329080
C            1.43168598943550       -0.67818970203928       -0.37645380884386
C            0.24909997060180       -0.06819814871284       -1.13458082117575
C           -1.06397258190990        0.13606368623125       -0.35396952842596
H           -1.86047383949865        0.29416997017141       -1.09270261193446
C           -1.44024191614126       -1.06034691584187        0.51905322859642
O           -1.06887234621218        1.34489349527698        0.38741203788007
H            2.91777604146251       -0.20744253518707        1.11160793314069
H            1.28182855583896        0.16590651045548        1.62273462459703
H            2.10092789090149        1.20598503533344        0.44732886797446
H            2.23729017011719       -0.81673967295095       -1.10149779924667
H            1.16118546046945       -1.66679325708867       -0.00331856717434
H            0.54183735219374        0.90675161566608       -1.53249098603774
H            0.02477841754537       -0.71683631734435       -1.98363611455159
H           -1.47605717831193       -1.96172589126748       -0.08544397896624
H           -0.72084058630749       -1.19876623600476        1.32183981017092
H           -2.41962212587447       -0.89340379560947        0.96096037157557
H           -0.41124114463047        1.28126391928878        1.09336118386087
18
 energy: -20.893251783292 gnorm: 0.000059885817 xtb: 6.7.1 (edcfbbe)
C            1.95845031274936        0.17713935074654        0.77176921571379
C            1.43183038057978       -0.67819730849372       -0.37683871208663
C            0.24917034088636       -0.06793287569302       -1.13469684697897
C           -1.06406137754477        0.13589981124339       -0.35422851405279
H           -1.86067079818800        0.29328257771675       -1.09301403686854
C           -1.43970604821245       -1.06016778799417        0.51950588612381
O           -1.06937407774015        1.34511748491735        0.38656011276583
H            2.91706613363521       -0.20846434516254        1.11225752100553
H            1.28099187278866        0.16567407982412        1.62240889036859
H            2.10139243610360        1.20554749618944        0.44775889070619
H            2.23754634506466       -0.81614623843611       -1.10186881873478
H            1.16146100128668       -1.66704246436338       -0.00427224039194
H            0.54181794253097        0.90722442594492       -1.53207944482963
H            0.02508881804429       -0.71620080324222       -1.98405703285131
H           -1.47571741569822       -1.96184608426070       -0.08452528697046
H           -0.71991188957171       -1.19812819468703        1.32201163458426
H           -2.41890159339084       -0.89310423380075        0.96177987151798
H           -0.41265760705813        1.28150005667736        1.09337120570926
