      -----------------------------------------------------------      
     |                   =====================                   |     
     |                           x T B                           |     
     |                   =====================                   |     
     |                         S. Grimme                         |     
     |          Mulliken Center for Theoretical Chemistry        |     
     |                    University of Bonn                     |     
      -----------------------------------------------------------      

   * xtb version 6.7.1 (edcfbbe) compiled by 'albert@albert-system' on 2024-07-22

   xtb is free software: you can redistribute it and/or modify it under
   the terms of the GNU Lesser General Public License as published by
   the Free Software Foundation, either version 3 of the License, or
   (at your option) any later version.
   
   xtb is distributed in the hope that it will be useful,
   but WITHOUT ANY WARRANTY; without even the implied warranty of
   MERCHANTABILITY or FITNESS FOR A PARTICULAR PURPOSE.  See the
   GNU Lesser General Public License for more details.
   
   Cite this work as:
   * C. Bannwarth, E. Caldeweyher, S. Ehlert, A. Hansen, P. Pracht,
     J. Seibert, S. Spicher, S. Grimme, WIREs Comput. Mol. Sci., 2020, 11,
     e01493. DOI: 10.1002/wcms.1493
   
   for GFN2-xTB:
   * C. Bannwarth, S. Ehlert and S. Grimme., J. Chem. Theory Comput., 2019,
     15, 1652-1671. DOI: 10.1021/acs.jctc.8b01176
   for GFN1-xTB:
   * S. Grimme, C. Bannwarth, P. Shushkov, J. Chem. Theory Comput., 2017,
     13, 1989-2009. DOI: 10.1021/acs.jctc.7b00118
   for GFN0-xTB:
   * P. Pracht, E. Caldeweyher, S. Ehlert, S. Grimme, ChemRxiv, 2019, preprint.
     DOI: 10.26434/chemrxiv.8326202.v1
   for GFN-FF:
   * S. Spicher and S. Grimme, Angew. Chem. Int. Ed., 2020, 59, 15665-15673.
     DOI: 10.1002/anie.202004239
   
   for ALPB and GBSA implicit solvation:
   * S. Ehlert, M. Stahn, S. Spicher, S. Grimme, J. Chem. Theory Comput.,
     2021, 17, 4250-4261. DOI: 10.1021/acs.jctc.1c00471
   
   for ddCOSMO and CPCM-X implicit solvation:
   * M. Stahn, S. Ehlert, S. Grimme, J. Phys. Chem. A,
     2023, XX, XXXX-XXXX. DOI: 10.1021/acs.jpca.3c04382
   
   for DFT-D4:
   * E. Caldeweyher, C. Bannwarth and S. Grimme, J. Chem. Phys., 2017,
     147, 034112. DOI: 10.1063/1.4993215
   * E. Caldeweyher, S. Ehlert, A. Hansen, H. Neugebauer, S. Spicher,
     C. Bannwarth and S. Grimme, J. Chem. Phys., 2019, 150, 154122.
     DOI: 10.1063/1.5090222
   * E. Caldeweyher, J.-M. Mewes, S. Ehlert and S. Grimme, Phys. Chem. Chem. Phys.
     2020, 22, 8499-8512. DOI: 10.1039/D0CP00502A
   
   for sTDA-xTB:
   * S. Grimme and C. Bannwarth, J. Chem. Phys., 2016, 145, 054103.
     DOI: 10.1063/1.4959605
   
   in the mass-spec context:
   * V. Asgeirsson, C. Bauer and S. Grimme, Chem. Sci., 2017, 8, 4879.
     DOI: 10.1039/c7sc00601b
   * J. Koopman and S. Grimme, ACS Omega 2019, 4, 12, 15120-15133.
     DOI: 10.1021/acsomega.9b02011
   
   for metadynamics refer to:
   * S. Grimme, J. Chem. Theory Comput., 2019, 155, 2847-2862
     DOI: 10.1021/acs.jctc.9b00143
   
   for SPH calculations refer to:
   * S. Spicher and S. Grimme, J. Chem. Theory Comput., 2021, 17, 1701-1714
     DOI: 10.1021/acs.jctc.0c01306
   
   for ONIOM refer to:
   * C. Plett, A. Katbashev, S. Ehlert, S. Grimme, M. Bursch,
     Phys. Chem. Chem. Phys., 2023, 25, 17860-17868. DOI: 10.1039/D3CP02178E
   
   for DIPRO refer to:
   * J. Kohn, N. Gildemeister, S. Grimme, D. Fazzi, A. Hansen,
     J. Chem. Phys., 2023, just accepted.
   
   for PTB refer to:
   * S. Grimme, M. Mueller, A. Hansen, J. Chem. Phys., 2023, 158, 124111.
     DOI: 10.1063/5.0137838
   
   with help from (in alphabetical order)
   P. Atkinson, C. Bannwarth, F. Bohle, G. Brandenburg, E. Caldeweyher
   M. Checinski, S. Dohm, S. Ehlert, S. Ehrlich, I. Gerasimov, C. Hölzer
   A. Katbashev, J. Kohn, J. Koopman, C. Lavigne, S. Lehtola, F. März, M. Müller,
   F. Musil, H. Neugebauer, J. Pisarek, C. Plett, P. Pracht, F. Pultar,
   J. Seibert, P. Shushkov, S. Spicher, M. Stahn, M. Steiner, T. Strunk,
   J. Stückrath, T. Rose, and J. Unsleber
   
 * started run on 2025/04/11 at 12:02:12.223     
   ID    Z sym.   atoms
    1    6 C      1-4, 7
    2    8 O      5, 6
    3    1 H      8-17

           -------------------------------------------------
          |                Calculation Setup                |
           -------------------------------------------------

          program call               : /srv/scratch/z5358697/.xtb/bin/xtb xtb_rrho.coord --gfn2 --bhess vtight --chrg 0 --enso --norestart -I rrho-xcontrol-inp --parallel 1 --alpb water
          hostname                   : k064
          coordinate file            : xtb_rrho.coord
          omp threads                :                     1


           -------------------------------------------------
          |                 G F N 2 - x T B                 |
           -------------------------------------------------

        Reference                      10.1021/acs.jctc.8b01176
      * Hamiltonian:
        H0-scaling (s, p, d)           1.850000    2.230000    2.230000
        zeta-weighting                 0.500000
      * Dispersion:
        s8                             2.700000
        a1                             0.520000
        a2                             5.000000
        s9                             5.000000
      * Repulsion:
        kExp                           1.500000    1.000000
        rExp                           1.000000
      * Coulomb:
        alpha                          2.000000
        third order                    shell-resolved
        anisotropic                    true
        a3                             3.000000
        a5                             4.000000
        cn-shift                       1.200000
        cn-exp                         4.000000
        max-rad                        5.000000

      * Solvation model:               ALPB
        Solvent                        water
        Parameter file                 internal GFN2-xTB/ALPB
        Dielectric constant                8.0200E+01
        Reference state                gsolv [1 M gas/solution]
        Free energy shift                  1.0808E-03 Eh       6.7819E-01 kcal/mol
        Temperature                        2.9815E+02 K
        Density                            1.0000E+00 kg/L
        Solvent mass                       1.8000E+01 g/mol
        Interaction kernel             P16
        Born radius scaling (c1)           1.4744E+00
        Born radii integrator          GBOBC
        Born offset                        0.0000E+00 a0       0.0000E+00 AA
        H-bond correction              true
        Ion screening                  false
        Surface tension                    1.0000E-05 Eh       1.5569E+01 dyn/cm
        Grid points                               974 per atom

          ...................................................
          :                      SETUP                      :
          :.................................................:
          :  # basis functions                  38          :
          :  # atomic orbitals                  38          :
          :  # shells                           24          :
          :  # electrons                        42          :
          :  max. iterations                   250          :
          :  Hamiltonian                  GFN2-xTB          :
          :  restarted?                      false          :
          :  GBSA solvation                   true          :
          :  PC potential                    false          :
          :  electronic temp.          300.0000000     K    :
          :  accuracy                    1.0000000          :
          :  -> integral cutoff          0.2500000E+02      :
          :  -> integral neglect         0.1000000E-07      :
          :  -> SCF convergence          0.1000000E-05 Eh   :
          :  -> wf. convergence          0.1000000E-03 e    :
          :  Broyden damping             0.4000000          :
          :  net charge                          0          :
          :  unpaired electrons                  0          :
          ...................................................

 iter      E             dE          RMSdq      gap      omega  full diag
   1    -24.1509858 -0.241510E+02  0.446E+00    5.76       0.0  T
   2    -24.2071054 -0.561196E-01  0.223E+00    4.80       1.0  T
   3    -24.2085665 -0.146111E-02  0.112E+00    5.14       1.0  T
   4    -24.2102601 -0.169362E-02  0.171E-01    4.90       1.0  T
   5    -24.2104584 -0.198262E-03  0.745E-02    4.95       1.0  T
   6    -24.2104601 -0.172290E-05  0.200E-02    4.95       1.2  T
   7    -24.2104609 -0.731527E-06  0.422E-03    4.95       5.8  T
   8    -24.2104609 -0.300174E-07  0.225E-03    4.95      10.8  T
   9    -24.2104609 -0.707809E-08  0.419E-04    4.95      57.9  T
  10    -24.2104609 -0.692950E-09  0.186E-04    4.95     130.7  T

   *** convergence criteria satisfied after 10 iterations ***

         #    Occupation            Energy/Eh            Energy/eV
      -------------------------------------------------------------
         1        2.0000           -0.7469044             -20.3243
       ...           ...                  ...                  ...
        15        2.0000           -0.4758330             -12.9481
        16        2.0000           -0.4672909             -12.7156
        17        2.0000           -0.4650316             -12.6542
        18        2.0000           -0.4531749             -12.3315
        19        2.0000           -0.4416918             -12.0190
        20        2.0000           -0.4287500             -11.6669
        21        2.0000           -0.4233208             -11.5191 (HOMO)
        22                         -0.2414273              -6.5696 (LUMO)
        23                         -0.0138676              -0.3774
        24                          0.0671162               1.8263
        25                          0.1148655               3.1256
        26                          0.1260389               3.4297
       ...                                ...                  ...
        38                          0.5754090              15.6577
      -------------------------------------------------------------
                  HL-Gap            0.1818935 Eh            4.9496 eV
             Fermi-level           -0.3323741 Eh           -9.0444 eV

 SCC (total)                   0 d,  0 h,  0 min,  0.042 sec
 SCC setup                      ...        0 min,  0.001 sec (  2.865%)
 Dispersion                     ...        0 min,  0.000 sec (  0.222%)
 classical contributions        ...        0 min,  0.000 sec (  0.055%)
 integral evaluation            ...        0 min,  0.002 sec (  4.964%)
 iterations                     ...        0 min,  0.034 sec ( 81.679%)
 molecular gradient             ...        0 min,  0.004 sec (  9.794%)
 printout                       ...        0 min,  0.000 sec (  0.377%)

         :::::::::::::::::::::::::::::::::::::::::::::::::::::
         ::                     SUMMARY                     ::
         :::::::::::::::::::::::::::::::::::::::::::::::::::::
         :: total energy             -23.953035432195 Eh    ::
         :: total w/o Gsasa/hb       -23.953100903762 Eh    ::
         :: gradient norm              0.029282950390 Eh/a0 ::
         :: HOMO-LUMO gap              4.949573063810 eV    ::
         ::.................................................::
         :: SCC energy               -24.210460302070 Eh    ::
         :: -> isotropic ES            0.058641904089 Eh    ::
         :: -> anisotropic ES          0.001351223613 Eh    ::
         :: -> anisotropic XC          0.006985391021 Eh    ::
         :: -> dispersion             -0.008983252287 Eh    ::
         :: -> Gsolv                  -0.009249114023 Eh    ::
         ::    -> Gelec               -0.009314585591 Eh    ::
         ::    -> Gsasa                0.001509075247 Eh    ::
         ::    -> Ghb                 -0.002524363377 Eh    ::
         ::    -> Gshift               0.001080759698 Eh    ::
         :: repulsion energy           0.257424869875 Eh    ::
         :: add. restraining           0.000000000000 Eh    ::
         :: total charge               0.000000000000 e     ::
         :::::::::::::::::::::::::::::::::::::::::::::::::::::

metadynamics with 1 initial structures loaded
           -------------------------------------------------
          |           Optimal kpush determination           |
           -------------------------------------------------
      ----------------------------------------------------------- 
     |                   =====================                   |
     |                        A N C O P T                        |
     |                   =====================                   |
     |               Approximate Normal Coordinate               |
     |                Rational Function Optimizer                |
      ----------------------------------------------------------- 
target rmsd / Å         0.100000
unbiased initial rmsd   0.058640
 
iter. min.        max.        rmsd       kpush
final kpush:  0.000000
           -------------------------------------------------
          |            Biased Numerical Hessian             |
           -------------------------------------------------
kpush                :   0.00000
alpha                :   1.00000
step length          :   0.00500
SCC accuracy         :   0.30000
Hessian scale factor :   1.00000
frozen atoms in %    :   0.00000    0
RMS gradient         :   0.00006
estimated CPU  time      0.01 min
estimated wall time      0.01 min

writing file <hessian>.

 projected vibrational frequencies (cm⁻¹)
eigval :       -0.00    -0.00    -0.00     0.00     0.00     0.00
eigval :       26.93    31.10    84.21   143.55   191.44   231.87
eigval :      273.94   336.20   459.77   570.39   649.67   774.50
eigval :      873.54   882.70   958.05  1034.37  1072.42  1087.27
eigval :     1113.52  1132.89  1143.21  1203.30  1208.98  1262.17
eigval :     1265.39  1348.75  1374.55  1412.22  1423.89  1429.16
eigval :     1449.64  1491.44  1497.37  1499.02  1683.16  2958.80
eigval :     2977.54  2987.67  2987.82  2997.57  3002.72  3033.75
eigval :     3038.34  3049.06  3057.35
           -------------------------------------------------
          |                Property Printout                |
           -------------------------------------------------

    * Orbital Energies and Occupations

         #    Occupation            Energy/Eh            Energy/eV
      -------------------------------------------------------------
         1        2.0000           -0.7513289             -20.4447
       ...           ...                  ...                  ...
         9        2.0000           -0.5609357             -15.2638
        10        2.0000           -0.5531649             -15.0524
        11        2.0000           -0.5246781             -14.2772
        12        2.0000           -0.5068167             -13.7912
        13        2.0000           -0.5066241             -13.7859
        14        2.0000           -0.4848130             -13.1924
        15        2.0000           -0.4756311             -12.9426
        16        2.0000           -0.4664067             -12.6916
        17        2.0000           -0.4657280             -12.6731
        18        2.0000           -0.4520573             -12.3011
        19        2.0000           -0.4411974             -12.0056
        20        2.0000           -0.4290067             -11.6739
        21        2.0000           -0.4214724             -11.4688 (HOMO)
        22                         -0.2367312              -6.4418 (LUMO)
        23                          0.0052300               0.1423
        24                          0.0781914               2.1277
        25                          0.1167784               3.1777
        26                          0.1366353               3.7180
        27                          0.1392467               3.7891
        28                          0.1513824               4.1193
        29                          0.1608329               4.3765
        30                          0.1839448               5.0054
        31                          0.2013028               5.4777
        32                          0.2207071               6.0057
       ...                                ...                  ...
        38                          0.6002846              16.3346
      -------------------------------------------------------------
                  HL-Gap            0.1847412 Eh            5.0271 eV
             Fermi-level           -0.3291018 Eh           -8.9553 eV

     #   Z          covCN         q      C6AA      α(0)
     1   6 C        3.753    -0.118    22.823     6.812
     2   6 C        3.801    -0.060    21.653     6.625
     3   6 C        3.805    -0.101    22.426     6.742
     4   6 C        2.717     0.362    20.860     7.477
     5   8 O        0.856    -0.498    23.736     6.532
     6   8 O        1.704    -0.259    18.294     5.775
     7   6 C        3.651     0.009    20.733     6.540
     8   1 H        0.925     0.044     2.391     2.418
     9   1 H        0.925     0.049     2.338     2.391
    10   1 H        0.925     0.044     2.390     2.418
    11   1 H        0.924     0.049     2.337     2.391
    12   1 H        0.924     0.049     2.334     2.389
    13   1 H        0.924     0.088     1.894     2.152
    14   1 H        0.924     0.088     1.898     2.154
    15   1 H        0.924     0.075     2.032     2.229
    16   1 H        0.925     0.104     1.753     2.070
    17   1 H        0.924     0.075     2.034     2.230

 Mol. C6AA /au·bohr⁶  :       2201.316242
 Mol. C8AA /au·bohr⁸  :      46915.047052
 Mol. α(0) /au        :         69.345926


Wiberg/Mayer (AO) data.
largest (>0.10) Wiberg bond orders for each atom

 ---------------------------------------------------------------------------
     #   Z sym  total        # sym  WBO       # sym  WBO       # sym  WBO
 ---------------------------------------------------------------------------
     1   6 C    3.994 --     2 C    1.019    10 H    0.987     8 H    0.987
                             9 H    0.986
     2   6 C    3.993 --     1 C    1.019     3 C    1.008    11 H    0.977
                            12 H    0.977
     3   6 C    3.989 --     2 C    1.008     4 C    0.985    14 H    0.945
                            13 H    0.944
     4   6 C    3.905 --     5 O    1.682     6 O    1.169     3 C    0.985
     5   8 O    1.960 --     4 C    1.682     6 O    0.169
     6   8 O    2.325 --     4 C    1.169     7 C    0.939     5 O    0.169
     7   6 C    3.904 --    16 H    0.977    17 H    0.976    15 H    0.976
                             6 O    0.939
     8   1 H    0.998 --     1 C    0.987
     9   1 H    0.997 --     1 C    0.986
    10   1 H    0.998 --     1 C    0.987
    11   1 H    0.998 --     2 C    0.977
    12   1 H    0.998 --     2 C    0.977
    13   1 H    0.992 --     3 C    0.944
    14   1 H    0.992 --     3 C    0.945
    15   1 H    0.994 --     7 C    0.976
    16   1 H    0.989 --     7 C    0.977
    17   1 H    0.994 --     7 C    0.976
 ---------------------------------------------------------------------------

Topologies differ in total number of bonds
Writing topology from bond orders to xtbtopo.mol

molecular dipole:
                 x           y           z       tot (Debye)
 q only:       -0.369       1.148       0.118
   full:       -0.354       1.107       0.113       2.968
molecular quadrupole (traceless):
                xx          xy          yy          xz          yz          zz
 q only:        7.389       6.729      -6.307       0.829      -0.490      -1.081
  q+dip:        5.010       7.246      -6.905       0.827      -0.884       1.895
   full:        5.693       7.229      -7.361       0.834      -0.904       1.668

           -------------------------------------------------
          |                Geometry Summary                 |
           -------------------------------------------------

      molecular mass/u    :      102.1318968
   center of mass at/Å    :       -0.0000551      -0.0001131       0.0011192
  moments of inertia/u·Å² :        0.8885895E+02   0.3589017E+03   0.4352320E+03
rotational constants/cm⁻¹ :        0.1897123E+00   0.4697005E-01   0.3873252E-01

 * 15 selected distances

     #   Z          #   Z                                           value/Å
     1   6 C        2   6 C                                       1.5242698
     2   6 C        3   6 C                                       1.5259923 (max)
     4   6 C        5   8 O                                       1.2159481
     4   6 C        6   8 O                                       1.3259626
     6   8 O        7   6 C                                       1.4294384
     1   6 C        8   1 H                                       1.0872205
     1   6 C        9   1 H                                       1.0864204
     1   6 C       10   1 H                                       1.0872135
     2   6 C       11   1 H                                       1.0907423
     2   6 C       12   1 H                                       1.0907189
     3   6 C       13   1 H                                       1.0928953
     3   6 C       14   1 H                                       1.0928356
     7   6 C       15   1 H                                       1.0906030
     7   6 C       16   1 H                                       1.0853125 (min)
     7   6 C       17   1 H                                       1.0906177

 * 3 distinct bonds (by element types)

   Z      Z             #   av. dist./Å        max./Å        min./Å
   1 H    6 C          10     1.0894580     1.0928953     1.0853125
   6 C    6 C           2     1.5251311     1.5259923     1.5242698
   6 C    8 O           3     1.3237830     1.4294384     1.2159481

           -------------------------------------------------
          |               Frequency Printout                |
           -------------------------------------------------
 projected vibrational frequencies (cm⁻¹)
eigval :       -0.00    -0.00    -0.00     0.00     0.00     0.00
eigval :       26.93    31.10    84.21   143.55   191.44   231.87
eigval :      273.94   336.20   459.77   570.39   649.67   774.50
eigval :      873.54   882.70   958.05  1034.37  1072.42  1087.27
eigval :     1113.52  1132.89  1143.21  1203.30  1208.98  1262.17
eigval :     1265.39  1348.75  1374.55  1412.22  1423.89  1429.16
eigval :     1449.64  1491.44  1497.37  1499.02  1683.16  2958.80
eigval :     2977.54  2987.67  2987.82  2997.57  3002.72  3033.75
eigval :     3038.34  3049.06  3057.35
 reduced masses (amu)
   1: 11.80   2: 11.78   3: 11.03   4: 10.76   5: 13.13   6: 10.62   7:  3.32   8:  6.72
   9:  8.13  10: 10.01  11: 10.62  12:  1.82  13: 11.19  14:  9.75  15: 12.85  16:  9.08
  17: 11.11  18:  3.35  19: 10.97  20:  3.73  21:  5.73  22: 13.01  23:  4.28  24:  9.08
  25:  3.83  26:  7.03  27:  6.78  28: 12.34  29:  4.50  30:  1.97  31:  4.34  32:  5.25
  33:  2.61  34:  3.18  35:  1.51  36:  1.99  37:  1.60  38:  1.83  39:  1.52  40:  1.65
  41: 13.34  42:  1.95  43:  1.50  44:  1.96  45:  1.99  46:  1.38  47:  1.49  48:  1.96
  49:  1.76  50:  1.44  51:  1.80
 IR intensities (km·mol⁻¹)
   1:  0.00   2:  0.55   3:  0.55   4:  0.64   5:  0.70   6:  1.92   7:  1.71   8:  4.90
   9:  0.15  10:  1.12  11:  9.53  12:  0.16  13: 19.04  14:  4.93  15: 15.51  16: 13.45
  17: 10.40  18: 37.76  19: 33.41  20:  3.06  21:  2.04  22: 19.58  23: 11.74  24: 14.17
  25:  0.90  26:  0.18  27: 22.68  28:591.33  29:  0.30  30:  0.07  31:  0.10  32:  4.10
  33: 17.76  34:  1.77  35: 12.36  36:  8.91  37:  2.12  38:  0.33  39:  2.61  40:  1.12
  41:657.87  42:  4.07  43: 10.39  44:  2.41  45: 67.29  46: 20.43  47: 41.21  48: 78.61
  49: 67.29  50: 41.39  51:  2.55
 Raman intensities (Ä⁴*amu⁻¹)
   1:  0.00   2:  0.00   3:  0.00   4:  0.00   5:  0.00   6:  0.00   7:  0.00   8:  0.00
   9:  0.00  10:  0.00  11:  0.00  12:  0.00  13:  0.00  14:  0.00  15:  0.00  16:  0.00
  17:  0.00  18:  0.00  19:  0.00  20:  0.00  21:  0.00  22:  0.00  23:  0.00  24:  0.00
  25:  0.00  26:  0.00  27:  0.00  28:  0.00  29:  0.00  30:  0.00  31:  0.00  32:  0.00
  33:  0.00  34:  0.00  35:  0.00  36:  0.00  37:  0.00  38:  0.00  39:  0.00  40:  0.00
  41:  0.00  42:  0.00  43:  0.00  44:  0.00  45:  0.00  46:  0.00  47:  0.00  48:  0.00
  49:  0.00  50:  0.00  51:  0.00
 output can be read by thermo (or use thermo option).
 writing <g98.out> molden fake output.
 recommended (thermochemical) frequency scaling factor: 1.0
           -------------------------------------------------
          |             Thermodynamic Functions             |
           -------------------------------------------------

Molecule has the following symmetry elements: (sigma) 
It seems to be the Cs point group
cs  symmetry found (for desy threshold:  0.10E+00) used in thermo

          ...................................................
          :                      SETUP                      :
          :.................................................:
          :  # frequencies                          45      :
          :  # imaginary freq.                       0      :
          :  linear?                             false      :
          :  only rotor calc.                    false      :
          :  symmetry                               cs      :
          :  rotational number                       1      :
          :  scaling factor                  1.0000000      :
          :  rotor cutoff                    0.0000000 cm⁻¹ :
          :  imag. cutoff                 -100.0000000 cm⁻¹ :
          :.................................................:

    mode    ω/cm⁻¹     T·S(HO)/kcal·mol⁻¹    T·S(FR)/kcal·mol⁻¹   T·S(vib)
   ------------------------------------------------------------------------
       1     26.93    -1.80198 (100.00%)    -1.23927 (  0.00%)    -1.80198
       2     31.10    -1.71679 (100.00%)    -1.19669 (  0.00%)    -1.71679
       3     84.21    -1.13005 (100.00%)    -0.90191 (  0.00%)    -1.13005
       4    143.55    -0.82169 (100.00%)    -0.74399 (  0.00%)    -0.82169
       5    191.44    -0.66004 (100.00%)    -0.65873 (  0.00%)    -0.66004
       6    231.87    -0.55588 (100.00%)    -0.60200 (  0.00%)    -0.55588
       7    273.94    -0.46846 (100.00%)    -0.55262 (  0.00%)    -0.46846
   ------------------------------------------------------------------------

   temp. (K)  partition function   enthalpy   heat capacity  entropy
                                   cal/mol     cal/K/mol   cal/K/mol   J/K/mol
 298.15  VIB  0.207E+04             3880.018     23.683     28.189
         ROT  0.285E+06              888.752      2.981     27.939
         INT  0.590E+09             4768.771     26.664     56.128
         TR   0.999E+27             1481.254      4.968     39.763
         TOT                        6250.0246    31.6321    95.8906   401.2062

       T/K    H(0)-H(T)+PV         H(T)/Eh          T*S/Eh         G(T)/Eh
   ------------------------------------------------------------------------
    298.15    0.996005E-02    0.152827E+00    0.455607E-01    0.107266E+00
   ------------------------------------------------------------------------

         :::::::::::::::::::::::::::::::::::::::::::::::::::::
         ::                  THERMODYNAMIC                  ::
         :::::::::::::::::::::::::::::::::::::::::::::::::::::
         :: total free energy         -23.846977258598 Eh   ::
         ::.................................................::
         :: total energy              -23.954243146154 Eh   ::
         :: zero point energy           0.142866554615 Eh   ::
         :: G(RRHO) w/o ZPVE           -0.035600667059 Eh   ::
         :: G(RRHO) contrib.            0.107265887556 Eh   ::
         :::::::::::::::::::::::::::::::::::::::::::::::::::::

optimized geometry written to: xtbopt.coord


           -------------------------------------------------
          | TOTAL ENERGY              -23.954243146154 Eh   |
          | TOTAL ENTHALPY            -23.801416543375 Eh   |
          | TOTAL FREE ENERGY         -23.846977258598 Eh   |
          | GRADIENT NORM               0.000058607467 Eh/α |
          | HOMO-LUMO GAP               5.027064740135 eV   |
           -------------------------------------------------

------------------------------------------------------------------------
 * finished run on 2025/04/11 at 12:02:13.292     
------------------------------------------------------------------------
 total:
 * wall-time:     0 d,  0 h,  0 min,  1.068 sec
 *  cpu-time:     0 d,  0 h,  0 min,  0.974 sec
 * ratio c/w:     0.912 speedup
 SCF:
 * wall-time:     0 d,  0 h,  0 min,  0.042 sec
 *  cpu-time:     0 d,  0 h,  0 min,  0.013 sec
 * ratio c/w:     0.320 speedup
 analytical hessian:
 * wall-time:     0 d,  0 h,  0 min,  0.851 sec
 *  cpu-time:     0 d,  0 h,  0 min,  0.837 sec
 * ratio c/w:     0.984 speedup

