17
 energy: -23.956145870491 gnorm: 0.028089679837 xtb: 6.7.1 (edcfbbe)
C           -2.08802710751786        0.76023573517863       -0.85950597375566
C           -1.84434884495633        0.49561015496597        0.62524726925719
C           -0.90902238077266       -0.69488577333190        0.87464296508380
C            0.39253207621219       -0.59038390646568        0.12828613032656
O            0.82215831777885       -1.43190194860295       -0.64627104468561
O            1.04179896930759        0.55707643815482        0.41389206807595
C            2.32049312622747        0.76010864092681       -0.21992061021734
H           -2.47326659808882       -0.13237646658160       -1.35674222789596
H           -2.81456802916293        1.56320020759991       -0.99325279469244
H           -1.16430172421298        1.05415491289865       -1.36419395250203
H           -2.79273647743765        0.27386272123348        1.11726474464621
H           -1.43514959650191        1.38767739004707        1.09918701833204
H           -1.37829938172630       -1.62996370947553        0.56914589753411
H           -0.66991358076226       -0.75349637989186        1.94086487355352
H            2.48008541405889        1.83911092281137       -0.24239374827167
H            2.32614758415102        0.35597733667949       -1.23327469565654
H            3.09968515337146        0.27863061367893        0.37583076249966
17
 energy: -23.956950880868 gnorm: 0.009955746538 xtb: 6.7.1 (edcfbbe)
C           -2.08692500779082        0.75302856316475       -0.85576787282004
C           -1.84031619373217        0.49952603825154        0.62615778573987
C           -0.90886792660573       -0.69477851672450        0.86623927823106
C            0.39363600397934       -0.58206355296178        0.12187699960288
O            0.82583757389308       -1.41725896476526       -0.64490485432446
O            1.04444226195263        0.55035717565375        0.40997752404517
C            2.31680201812398        0.76279969173642       -0.21558547300508
H           -2.47502721481215       -0.14044441990623       -1.34213624613548
H           -2.80762156498073        1.55758229750067       -0.98577570121436
H           -1.16377995584057        1.03822204977447       -1.35872145601720
H           -2.79042280945039        0.28790021362221        1.11984422682737
H           -1.41129314322140        1.39191153742777        1.08365872257936
H           -1.38432821716335       -1.62585152394057        0.55609918789067
H           -0.67347150272727       -0.75492491496981        1.93115320125021
H            2.46963007401640        1.83977956156494       -0.23177043966799
H            2.31196386210869        0.35282386944110       -1.22557345152808
H            3.09300866221823        0.27402778495616        0.37403525017788
17
 energy: -23.957122989774 gnorm: 0.004920013867 xtb: 6.7.1 (edcfbbe)
C           -2.08818295037072        0.74877598897405       -0.85564101902029
C           -1.83229024207039        0.50502682995113        0.62620225157104
C           -0.90973492120119       -0.69672725860609        0.86302543408749
C            0.39671456876616       -0.58171966372356        0.12405733448531
O            0.82754604211901       -1.41126762001882       -0.64759645843353
O            1.04416125233036        0.54291576395372        0.41386146095931
C            2.31052609169165        0.76571585504579       -0.21088329000362
H           -2.48347910573013       -0.14635829286727       -1.33005834117862
H           -2.80342127177580        1.55609336991455       -0.98689992667521
H           -1.16633435084130        1.02218068327371       -1.36445045204892
H           -2.78026697059577        0.30771052815399        1.12921519727121
H           -1.38469839078309        1.39532835682340        1.07079393957955
H           -1.38989781909871       -1.62165683557946        0.54163509468294
H           -0.67873616882167       -0.76628460753858        1.92736488280358
H            2.45754463254068        1.84148110440065       -0.22158308610573
H            2.30334744454953        0.35615478512571       -1.22140021562644
H            3.09046907925914        0.27526790254268        0.37116387528370
17
 energy: -23.957211007986 gnorm: 0.003571154898 xtb: 6.7.1 (edcfbbe)
C           -2.09110368950938        0.74377406100310       -0.85611929441761
C           -1.82241260151919        0.51151024397740        0.62608501911257
C           -0.91162670789731       -0.69971252271218        0.86004001871526
C            0.39721002917003       -0.58226630575280        0.12354713146170
O            0.82795120815676       -1.41066215059808       -0.65127138936675
O            1.04370289868498        0.53594878034028        0.42027262738313
C            2.30602257559169        0.76882239105318       -0.20511502997275
H           -2.49856113204789       -0.15301015191760       -1.31686675151220
H           -2.80007599497050        1.55586525289583       -0.98863169278004
H           -1.17138458845175        1.00289691504359       -1.37619991672173
H           -2.76661856367552        0.33145146918424        1.14241392437037
H           -1.35624384535207        1.39938988291632        1.05701780787824
H           -1.39650033041967       -1.61827800833410        0.52757534185470
H           -0.68507735960686       -0.77993066921175        1.92428282599378
H            2.44815760307258        1.84455316573723       -0.20905445645224
H            2.29865898046713        0.36493873787947       -1.21858983004539
H            3.09116843827471        0.27734579832148        0.36942034613075
17
 energy: -23.957274619588 gnorm: 0.004016106774 xtb: 6.7.1 (edcfbbe)
C           -2.09690739607069        0.73863757087643       -0.85646520844489
C           -1.81125725193392        0.51840653128242        0.62513837116864
C           -0.91375661790671       -0.70319354886265        0.85585329126234
C            0.39957888032902       -0.58644944992134        0.12544685921537
O            0.82838298045655       -1.41305490231777       -0.65483408444019
O            1.04482405559213        0.52880822889594        0.42886348889587
C            2.30383309598848        0.77236095061076       -0.19902145093331
H           -2.52141332312226       -0.15882044695939       -1.30169511014886
H           -2.79780003396844        1.55789310221329       -0.98970046057418
H           -1.18033646100510        0.97995820862898       -1.39210410286266
H           -2.75054301269649        0.35844392826262        1.15722788340032
H           -1.32583386869882        1.40310947154499        1.04112673468284
H           -1.40423743712297       -1.61436054348283        0.51169977183678
H           -0.69344409094343       -0.79582410186502        1.92043150407752
H            2.44022114510261        1.84909862136649       -0.19696572797097
H            2.29724640551128        0.37536252652390       -1.21575381354367
H            3.09470985045649        0.28226074302882        0.36955873601082
17
 energy: -23.957307338713 gnorm: 0.003336335701 xtb: 6.7.1 (edcfbbe)
C           -2.10377287784535        0.73505354671064       -0.85632016420867
C           -1.80437177897756        0.52241932678448        0.62366932114103
C           -0.91456538453301       -0.70469771554074        0.85218558796710
C            0.40054302658488       -0.58863357733442        0.12445189584998
O            0.82986271866757       -1.41529798603232       -0.65612675100750
O            1.04675393411700        0.52565732742909        0.43405090375236
C            2.30542359645891        0.77389020552421       -0.19447052326262
H           -2.54233977400027       -0.16133945096194       -1.29066086262624
H           -2.79784754752186        1.56058525463835       -0.98920320975964
H           -1.19039945308671        0.96264756190734       -1.40420274318363
H           -2.73892458090140        0.37486069484152        1.16711444853770
H           -1.30751132044094        1.40507427637708        1.02906976443427
H           -1.40805643504815       -1.61159651107487        0.50200744639822
H           -0.69805832202613       -0.80438802744698        1.91700083090877
H            2.43905465623751        1.85153193295708       -0.18847435585141
H            2.29901224211551        0.38226410967023       -1.21324203246608
H            3.09846422016771        0.28460592137688        0.37195712500815
17
 energy: -23.957328997321 gnorm: 0.001906333072 xtb: 6.7.1 (edcfbbe)
C           -2.11150045558060        0.73205247979953       -0.85586582821194
C           -1.79986555397196        0.52525340753422        0.62198197882634
C           -0.91454300570966       -0.70511490561740        0.84804946572067
C            0.40269769016175       -0.59079041509901        0.12419476992621
O            0.83303967678586       -1.41603886085294       -0.65672583288486
O            1.04902468947315        0.52455781798910        0.43718671924504
C            2.30852888189834        0.77468403316638       -0.19071718642473
H           -2.56402874932151       -0.16189655063094       -1.28080811849828
H           -2.79819199536893        1.56425032593899       -0.98736136485798
H           -1.20135517049996        0.94656770799116       -1.41438084987078
H           -2.72986908324596        0.38624670911335        1.17459513420782
H           -1.29454254451973        1.40658669691066        1.01832679089360
H           -1.40999195823248       -1.60924953573229        0.49406762458007
H           -0.70087468247745       -0.80933409437144        1.91300056630291
H            2.44093128996305        1.85288986724679       -0.18222738212942
H            2.30234989337894        0.38624024385006       -1.21030592287568
H            3.10145799723486        0.28573196258941        0.37579611768283
17
 energy: -23.957346759076 gnorm: 0.001737798455 xtb: 6.7.1 (edcfbbe)
C           -2.12319910187913        0.72868308641740       -0.85522960725944
C           -1.79615439556292        0.52771356191975        0.61950984780628
C           -0.91323354542918       -0.70467142980610        0.84243023305945
C            0.40503164397768       -0.59091344314755        0.12150948487187
O            0.83981783527649       -1.41476907927798       -0.65684975402181
O            1.05114683277765        0.52613533394296        0.43749407145023
C            2.31383794693722        0.77474877835072       -0.18576452907901
H           -2.59508238189406       -0.16057418628513       -1.26827508114027
H           -2.79862033806585        1.57068154229386       -0.98383749212682
H           -1.21719893367167        0.92520486006693       -1.42647238253008
H           -2.72014406314963        0.39562852071167        1.18288343967809
H           -1.28228014430182        1.40840807929176        1.00519482921610
H           -1.40975827086277       -1.60718889395579        0.48598304042780
H           -0.70093388276450       -0.81177141865533        1.90730910923376
H            2.44698458414263        1.85295476435914       -0.17556926140585
H            2.30957022295044        0.38760386614706       -1.20527487147760
H            3.10348291148711        0.28476294745224        0.38376560492909
17
 energy: -23.957355572900 gnorm: 0.001276818021 xtb: 6.7.1 (edcfbbe)
C           -2.12877835140007        0.72757428041246       -0.85496289701468
C           -1.79619973482800        0.52829161361865        0.61874849868516
C           -0.91187760991466       -0.70371832221578        0.83991529359226
C            0.40674841431403       -0.58949992333105        0.12024180239456
O            0.84379457810667       -1.41262198795053       -0.65749324293534
O            1.05147342237441        0.52844194964862        0.43498565000667
C            2.31642367471585        0.77442654058081       -0.18383307672657
H           -2.60922209693157       -0.15897827332180       -1.26291216035968
H           -2.79840290482364        1.57404827525753       -0.98218715399138
H           -1.22438084991029        0.91583087951604       -1.43075717234348
H           -2.71819549483728        0.39621410615146        1.18540741714936
H           -1.28097950796210        1.40954860068171        1.00150067462463
H           -1.40825839294247       -1.60658553434497        0.48354536661146
H           -0.69873226309223       -0.81077801625212        1.90465467782878
H            2.45163844222728        1.85208693768479       -0.17415044799642
H            2.31534570492807        0.38548916907440       -1.20278114258908
H            3.10286988994368        0.28286659461543        0.38888459469559
17
 energy: -23.957360739325 gnorm: 0.000660607372 xtb: 6.7.1 (edcfbbe)
C           -2.13442942258856        0.72644951592123       -0.85473168302338
C           -1.79677580887131        0.52854447827029        0.61816076946808
C           -0.91035847153690       -0.70239061325244        0.83772061826675
C            0.40747060338476       -0.58642204252127        0.11721087049090
O            0.84684682022252       -1.41090626464376       -0.65817502432708
O            1.05158450110384        0.53135924470268        0.43127322369537
C            2.31945582301134        0.77394571194084       -0.18182385211034
H           -2.62449122219936       -0.15723916257186       -1.25722495793411
H           -2.79733546048800        1.57827278093758       -0.98092224610463
H           -1.23106647390145        0.90508765032241       -1.43513341834149
H           -2.71701964283223        0.39527974190293        1.18768441936290
H           -1.28152129985091        1.41074487468755        0.99901524908015
H           -1.40600948860820       -1.60595921142820        0.48199153722352
H           -0.69553712435172       -0.80919730334524        1.90224874475721
H            2.45759439302898        1.85103407021576       -0.17248675919134
H            2.32265255679542        0.38372754264763       -1.20059274607629
H            3.10220663764946        0.28030587603950        0.39459193639562
17
 energy: -23.957361822147 gnorm: 0.000363446049 xtb: 6.7.1 (edcfbbe)
C           -2.13740208745068        0.72563615878022       -0.85443432614686
C           -1.79700046624004        0.52890148540342        0.61802894114395
C           -0.90978202603100       -0.70159414124501        0.83647665455057
C            0.40876966620252       -0.58579680014007        0.11692608084803
O            0.84744397058830       -1.41062148939322       -0.65879866589272
O            1.05229304551774        0.53226486487666        0.43002568130784
C            2.32131823753456        0.77386300828509       -0.18099248504763
H           -2.63242517919328       -0.15640135485671       -1.25421190601233
H           -2.79671826658447        1.58015685794386       -0.98069156209235
H           -1.23474254160421        0.89913036085883       -1.43736949035015
H           -2.71644739371044        0.39555864865912        1.18903238378176
H           -1.28172043214697        1.41164030994203        0.99783393692768
H           -1.40523789972106       -1.60511178760091        0.48033974883793
H           -0.69476013896684       -0.80912262954984        1.90095613345952
H            2.46058678997257        1.85086776399176       -0.17152974874935
H            2.32648330388640        0.38363720566070       -1.19978189972688
H            3.10260833791457        0.27962842820969        0.39699720479281
17
 energy: -23.957362012851 gnorm: 0.000127546495 xtb: 6.7.1 (edcfbbe)
C           -2.13775542766980        0.72550287836414       -0.85436349669822
C           -1.79706116374599        0.52891028126703        0.61799279111141
C           -0.90975464612475       -0.70142236068507        0.83644046616009
C            0.40870804180617       -0.58542183198874        0.11649668050078
O            0.84715665646526       -1.41069567628991       -0.65885279334191
O            1.05252005083995        0.53230017812960        0.42998503738766
C            2.32174014685172        0.77377532901455       -0.18086831719952
H           -2.63326554626974       -0.15636559377466       -1.25370776400476
H           -2.79668444616642        1.58023183892766       -0.98082573247473
H           -1.23524928325719        0.89836449362512       -1.43755793826538
H           -2.71635361461662        0.39556796052009        1.18924008704948
H           -1.28188651381612        1.41183073892739        0.99757728188518
H           -1.40498380273673       -1.60496654867800        0.48010909154547
H           -0.69471476592922       -0.80911659961793        1.90088874200053
H            2.46110037677739        1.85080340002287       -0.17113359174779
H            2.32684185240232        0.38391197645793       -1.19973241324056
H            3.10290900515743        0.27942642560358        0.39711855096410
17
 energy: -23.957362036459 gnorm: 0.000067725651 xtb: 6.7.1 (edcfbbe)
C           -2.13788132262441        0.72533344000673       -0.85438751524398
C           -1.79690918840947        0.52904627376647        0.61795498937682
C           -0.90981245564379       -0.70139993961767        0.83638372844352
C            0.40876692471399       -0.58538024674059        0.11647756569557
O            0.84697154474558       -1.41061370287093       -0.65902808866492
O            1.05270694147385        0.53212153315927        0.43032786573604
C            2.32186262989631        0.77381783227897       -0.18075146503199
H           -2.63392898945604       -0.15655416562485       -1.25330591862800
H           -2.79656451630613        1.58032919998570       -0.98083574542469
H           -1.23538449852071        0.89763898864439       -1.43792730402913
H           -2.71609982161326        0.39601522643180        1.18946117501881
H           -1.28145788597291        1.41193265710851        0.99730376752533
H           -1.40503171563097       -1.60483950019907        0.47977572327820
H           -0.69492870140811       -0.80932966670014        1.90082146814673
H            2.46112576151844        1.85086877284137       -0.17071561453905
H            2.32668531786944        0.38427275033262       -1.19971218213315
H            3.10314689533585        0.27937743702306        0.39696423210575
