18
 energy: -20.888634873586 gnorm: 0.029547725200 xtb: 6.7.1 (edcfbbe)
C           -1.53719237279458        1.20160798792136       -0.52591195322318
C           -1.18810965798268        0.40931767420617        0.73435157091896
C           -0.06670624596018       -0.64070819404900        0.60911611303284
H           -0.08157915316439       -1.20976324078303        1.55005191839147
C           -0.30500388931676       -1.63254172285901       -0.53094566017347
C            1.33975362013140       -0.05458284211318        0.56406066649443
O            1.59249400567651        0.59373586062089       -0.70023624255977
H           -1.84981100587598        0.54291555866779       -1.34263862185369
H           -2.36959466688816        1.88363827927791       -0.32172764330679
H           -0.69575020769379        1.80200624182648       -0.88182535622726
H           -2.09247400995855       -0.11213003871882        1.07408980097319
H           -0.91715865360722        1.10683912150758        1.53768484566072
H           -1.28716350516744       -2.10711979521574       -0.43282539865347
H            0.45453857587821       -2.42163999485164       -0.52211767127208
H           -0.26697850322898       -1.14631279003812       -1.50975512893496
H            2.06942686004000       -0.86499490834270        0.70934642313232
H            1.46520695163083        0.66634141602422        1.38549735203980
H            2.50692228785303        0.90184098864451       -0.68240188665317
18
 energy: -20.890009041318 gnorm: 0.013401349081 xtb: 6.7.1 (edcfbbe)
C           -1.51736691982831        1.19106435982939       -0.52386221198566
C           -1.19374577462569        0.40119821980308        0.73794842339082
C           -0.07781199826457       -0.65074015335704        0.61949817920454
H           -0.09775034351738       -1.22283289783121        1.55749757777207
C           -0.30773505282493       -1.62846198327257       -0.52917800389756
C            1.32615458892290       -0.04699179622531        0.55139872444426
O            1.56998064118813        0.60197041802528       -0.69730825778136
H           -1.83368743806922        0.53124446589630       -1.32966410469440
H           -2.33345016401931        1.88519000011844       -0.31887407007425
H           -0.65558276029510        1.76133993904741       -0.86685151195584
H           -2.10191478945851       -0.11567471063732        1.06374730674281
H           -0.91741510673545        1.10253418801823        1.53158073782018
H           -1.28903463938086       -2.09293110285975       -0.43773628002975
H            0.44909220309646       -2.41211762647199       -0.51216386732951
H           -0.24598041209981       -1.12200243064055       -1.49089548214394
H            2.06014213994504       -0.85343941046893        0.68487426173492
H            1.45301633846402        0.67585281395399        1.36862274423156
H            2.48390991707390        0.91324730879826       -0.69482103766300
18
 energy: -20.890504391402 gnorm: 0.003648987936 xtb: 6.7.1 (edcfbbe)
C           -1.49487220526892        1.18186871036254       -0.52295128137935
C           -1.20005164235342        0.39271943245600        0.74625499555220
C           -0.08436325175137       -0.65709507829311        0.62819704560422
H           -0.09778667495024       -1.22989249759240        1.56402513986796
C           -0.30885979425335       -1.62649226173532       -0.52850976258664
C            1.31696087097687       -0.03742197804196        0.54578413577515
O            1.53223152579866        0.60947747864402       -0.69454425001778
H           -1.82304841217313        0.52460873381137       -1.32121847327056
H           -2.28816227495045        1.90006669408875       -0.32511105494474
H           -0.60992145439649        1.71672640432663       -0.85858907269562
H           -2.11211994345049       -0.12084315088581        1.05898729517614
H           -0.92486476793663        1.09193487733776        1.53896676808032
H           -1.29354318397813       -2.07856307350582       -0.45394509320712
H            0.44017338511140       -2.41300567998476       -0.50346162091427
H           -0.22131854394631       -1.10469824175639       -1.47685956760689
H            2.05462113819285       -0.84172614247832        0.67152586040935
H            1.44149796782091        0.68278029037467        1.36557582941457
H            2.44424769107958        0.92800508459789       -0.72031376547108
18
 energy: -20.890643523854 gnorm: 0.003459719702 xtb: 6.7.1 (edcfbbe)
C           -1.48395408557075        1.17961394939372       -0.52141586944536
C           -1.20360475772151        0.38689443996586        0.75025067726372
C           -0.08599740701190       -0.66072595053513        0.63354628749582
H           -0.09308776870470       -1.23406263644097        1.56867728257142
C           -0.30729208329595       -1.62720242055814       -0.52741671265234
C            1.31283655406024       -0.03154609054227        0.54336877118814
O            1.51111529500549        0.61585939661563       -0.69475103271834
H           -1.82800343375767        0.52553790031668       -1.31595415494089
H           -2.25817970956997        1.92001256237966       -0.32818918586957
H           -0.58477206539089        1.68884341820332       -0.85862788806167
H           -2.11855694523621       -0.12643995534927        1.05404219689690
H           -0.93457180317591        1.08271855218257        1.54779838985623
H           -1.29871591977924       -2.06698476392616       -0.46823545902316
H            0.43200902490739       -2.42303690827867       -0.49382623521870
H           -0.20056173885360       -1.10242866182874       -1.47188962655819
H            2.05510987618058       -0.83258665574683        0.66741045115680
H            1.43601681398070        0.68517777134436        1.36743486228705
H            2.42103058350525        0.93880565453014       -0.73840962644199
18
 energy: -20.890713601497 gnorm: 0.002964700185 xtb: 6.7.1 (edcfbbe)
C           -1.47910365094836        1.17956860204290       -0.51941776948021
C           -1.20644413621256        0.38238990508089        0.75166270447469
C           -0.08530425831372       -0.66124945701504        0.63459372414912
H           -0.08788168214171       -1.23420683999868        1.56991643920784
C           -0.30543890759860       -1.62878719498222       -0.52633074615762
C            1.31148205386071       -0.02685665656398        0.54223755495549
O            1.50257219909963        0.62117592880358       -0.69556398495016
H           -1.84258017762214        0.53074949886250       -1.31135320113049
H           -2.23548780961094        1.93817669653785       -0.32480932777961
H           -0.57201775582996        1.66852815782533       -0.86341842412833
H           -2.12261401535341       -0.13425232034693        1.04772511910845
H           -0.94530589296943        1.07429042742159        1.55613347455361
H           -1.30465805159500       -2.05476373949131       -0.48068531477021
H            0.42165801364836       -2.43688071370009       -0.48185778033728
H           -0.18032614218115       -1.10799450360533       -1.47110342375095
H            2.05782983766951       -0.82480180594534        0.66627716091043
H            1.43361387869190        0.68833123588426        1.36895397705717
H            2.41082692697823        0.94503238091581       -0.74914705414607
18
 energy: -20.890747451899 gnorm: 0.002243543772 xtb: 6.7.1 (edcfbbe)
C           -1.47973679996300        1.18070954404248       -0.51764854537174
C           -1.20807218566544        0.37951788479678        0.75083065148313
C           -0.08363433496906       -0.66046273786840        0.63371530669077
H           -0.08388838597232       -1.23266991108175        1.56973106775161
C           -0.30383177603022       -1.62967403409512       -0.52575953837017
C            1.31157714646977       -0.02405839754807        0.54181759323763
O            1.50400515128845        0.62403444849564       -0.69680362300423
H           -1.85946895556414        0.53705475280191       -1.30725334063999
H           -2.22316218890371        1.95040389631916       -0.31806933715439
H           -0.56940232132037        1.65622325615428       -0.87007519059087
H           -2.12357212024943       -0.14176323554103        1.04220554856974
H           -0.95294912776451        1.06850693444781        1.56044380785042
H           -1.30856335843396       -2.04428172856942       -0.48828533706103
H            0.41257803078536       -2.44748896514017       -0.47208668764489
H           -0.16531977728504       -1.11525935222010       -1.47249616535080
H            2.05989491525491       -0.82012828925766        0.66717609564830
H            1.43232419759862        0.69194983823051        1.36851283462126
H            2.41204232029545        0.94583569775893       -0.75214201287889
18
 energy: -20.890761875246 gnorm: 0.001494268084 xtb: 6.7.1 (edcfbbe)
C           -1.48183025386688        1.18096932494934       -0.51662834916132
C           -1.20908449998805        0.37802161136116        0.75017010632052
C           -0.08254396454189       -0.65952945702463        0.63247114403981
H           -0.08223794645313       -1.23131165075895        1.56890972469402
C           -0.30287832759686       -1.62972541142804       -0.52587584288441
C            1.31177876773885       -0.02257975681000        0.54180881877892
O            1.50803467960428        0.62477222056250       -0.69809671808143
H           -1.87237248859965        0.54083640051065       -1.30374559867216
H           -2.21708514673904        1.95659995998977       -0.31198504326198
H           -0.57010061124087        1.64839267599043       -0.87587511775630
H           -2.12335633875527       -0.14656522489136        1.03972489022410
H           -0.95648849491853        1.06588086428256        1.56157462116075
H           -1.31026932021745       -2.03732710478666       -0.49236578019236
H            0.40706648866427       -2.45233188232918       -0.46699586678393
H           -0.15661960850629       -1.11909261452175       -1.47349558328804
H            2.06057531218255       -0.81772556130323        0.66872864722659
H            1.43109396903873        0.69555081684501        1.36668914350804
H            2.41713821376660        0.94361439108817       -0.75120006808499
18
 energy: -20.890767936675 gnorm: 0.000609250065 xtb: 6.7.1 (edcfbbe)
C           -1.48425023439237        1.17985175331337       -0.51610051126746
C           -1.20969407536374        0.37698483433787        0.75027214201142
C           -0.08205579770712       -0.65925644441019        0.63197578852028
H           -0.08177810706324       -1.23130153229139        1.56834950439004
C           -0.30205715237768       -1.62884031821359       -0.52681172024429
C            1.31157178146429       -0.02146984859363        0.54211973819275
O            1.51165650658419        0.62381675499157       -0.69973328703603
H           -1.88459186308172        0.54209849744182       -1.29943807526804
H           -2.21181071203192        1.96118278732942       -0.30705316399863
H           -0.57099908373311        1.63957753942196       -0.88180276724104
H           -2.12276154424527       -0.14917476155584        1.03993997219171
H           -0.95712923937985        1.06503878856406        1.56105130381357
H           -1.31111387365667       -2.03110301190877       -0.49669482044474
H            0.40350207417270       -2.45395341946740       -0.46464415359575
H           -0.14968663610226       -1.11887866010806       -1.47366824848778
H            2.06053617617757       -0.81560464265250        0.67123984488293
H            1.42892245302639        0.69989735691709        1.36385830363704
H            2.42255975728117        0.93958392860999       -0.74904672227011
18
 energy: -20.890769960452 gnorm: 0.000322937727 xtb: 6.7.1 (edcfbbe)
C           -1.48445786370820        1.17858182889325       -0.51636974705208
C           -1.20939117041090        0.37740636504596        0.75119091772017
C           -0.08239656921319       -0.65949702657540        0.63236891322023
H           -0.08233166632525       -1.23229189100217        1.56819710351426
C           -0.30203879352385       -1.62788977732432       -0.52767195611223
C            1.31143422105424       -0.02158811261381        0.54254292671615
O            1.51147795314035        0.62227660411041       -0.69995008466831
H           -1.88582064735831        0.53995527831331       -1.29819680896168
H           -2.21119948584356        1.96074548128735       -0.30796545393954
H           -0.57121272757628        1.63729972150227       -0.88302165937812
H           -2.12255365316686       -0.14745605551410        1.04257006265983
H           -0.95516334567751        1.06647232838815        1.56048336897476
H           -1.31087054841582       -2.03070485892476       -0.49811658945009
H            0.40423196129897       -2.45249216831594       -0.46661449890962
H           -0.14991391933369       -1.11594047895444       -1.47336179434669
H            2.06042433888249       -0.81540282128523        0.67277439941411
H            1.42812185985249        0.70064207927961        1.36346298949099
H            2.42248048589623        0.93833310541562       -0.74850896110628
18
 energy: -20.890771586235 gnorm: 0.000343366642 xtb: 6.7.1 (edcfbbe)
C           -1.48530598521845        1.17679221659749       -0.51663186234834
C           -1.20879568868813        0.37792039422321        0.75225567599322
C           -0.08265554701682       -0.65982926967499        0.63281070208222
H           -0.08276146388743       -1.23397113399793        1.56773638818492
C           -0.30202737994667       -1.62619017905509       -0.52912099695162
C            1.31132890947104       -0.02163334934481        0.54344738501012
O            1.51192289878593        0.61995274538552       -0.70003037918628
H           -1.89059932958066        0.53689909494124       -1.29552380329344
H           -2.20918408443569        1.96192217551477       -0.30867764939329
H           -0.57129463632438        1.63161651157966       -0.88653242095437
H           -2.12199720656170       -0.14518377408812        1.04668143703756
H           -0.95213378360247        1.06840178997386        1.55961672318543
H           -1.31077832526928       -2.02939240441877       -0.50081308810474
H            0.40461284312369       -2.45078317123745       -0.46932671248352
H           -0.14942003967489       -1.11219765210767       -1.47354759532573
H            2.06051094836752       -0.81485805244431        0.67598279856340
H            1.42676438547044        0.70202016313075        1.36327927361781
H            2.42263391455929        0.93696349674844       -0.74779274784751
18
 energy: -20.890772256340 gnorm: 0.000259930200 xtb: 6.7.1 (edcfbbe)
C           -1.48611474288144        1.17569685866066       -0.51690537129152
C           -1.20824611279094        0.37858856297994        0.75280064773496
C           -0.08267036246179       -0.65968438187444        0.63264178772564
H           -0.08323669654514       -1.23462603321419        1.56704083950811
C           -0.30209926892395       -1.62512657894392       -0.52998687442904
C            1.31158347949596       -0.02198465651363        0.54414200381360
O            1.51321523556360        0.61856803972545       -0.69967674843919
H           -1.89361077830135        0.53528335489367       -1.29411468963884
H           -2.20867814642241        1.96168221282824       -0.30901762173951
H           -0.57271884481156        1.62900914573432       -0.88929505687640
H           -2.12126693553361       -0.14373316797070        1.04941082611123
H           -0.95013370606723        1.07002493103937        1.55896707910619
H           -1.31060778790324       -2.02887453037835       -0.50155343014213
H            0.40496945328375       -2.44950561259352       -0.47143945870986
H           -0.15021079607667       -1.11036292200266       -1.47402295209945
H            2.06061736516564       -0.81516722813200        0.67808092293350
H            1.42639990091174        0.70229978850458        1.36354408476919
H            2.42362917386998        0.93636181898295       -0.74680286055062
18
 energy: -20.890772723196 gnorm: 0.000103685937 xtb: 6.7.1 (edcfbbe)
C           -1.48670617049035        1.17511347599690       -0.51712523720071
C           -1.20798811895848        0.37876879295460        0.75278809881526
C           -0.08256125799955       -0.65966522623885        0.63252904272578
H           -0.08336815724628       -1.23493174215127        1.56674408973494
C           -0.30212865665496       -1.62464151528995       -0.53036596957588
C            1.31177335039836       -0.02213440373730        0.54453784454761
O            1.51386466150663        0.61850803587863       -0.69906328610416
H           -1.89695409298062        0.53455761429806       -1.29289060695817
H           -2.20735116332793        1.96288293221035       -0.30870179574728
H           -0.57286232351865        1.62605966290373       -0.89172252760221
H           -2.12085767912944       -0.14321952501531        1.05051305645101
H           -0.94915082066823        1.07068062316726        1.55831346715191
H           -1.31071512090984       -2.02830347029543       -0.50190436637639
H            0.40488473701674       -2.44909782881617       -0.47212143956864
H           -0.15029552770696       -1.10967198930165       -1.47438410793234
H            2.06074229996476       -0.81540530644179        0.67872959572178
H            1.42644660434507        0.70206438770851        1.36408260239463
H            2.42404786593107        0.93688508389544       -0.74614533269126
18
 energy: -20.890773117178 gnorm: 0.000142128298 xtb: 6.7.1 (edcfbbe)
C           -1.48737670835331        1.17462087390481       -0.51760395007357
C           -1.20754888013052        0.37914931473017        0.75258494843462
C           -0.08238149463585       -0.65963187726118        0.63247738641710
H           -0.08349125193485       -1.23504042366991        1.56664596674788
C           -0.30225564063623       -1.62430917416111       -0.53055968139827
C            1.31211447603674       -0.02252158300835        0.54493537004758
O            1.51445164438009        0.61920123741043       -0.69804115406087
H           -1.90019350668377        0.53399135180121       -1.29194469951483
H           -2.20631839079829        1.96383398858737       -0.30867618606189
H           -0.57344673277075        1.62363639382969       -0.89440775281689
H           -2.12021303899339       -0.14255473018397        1.05142624419124
H           -0.94800707438002        1.07159787613224        1.55740933773271
H           -1.31066338000545       -2.02837081886598       -0.50151596565395
H            0.40503376987962       -2.44851301005120       -0.47293680491736
H           -0.15128409073298       -1.10924409252046       -1.47471906313004
H            2.06076912614907       -0.81626813971591        0.67838734391101
H            1.42716741121528        0.70081721314680        1.36521652422423
H            2.42446419196596        0.93805520162112       -0.74486473629284
18
 energy: -20.890773475018 gnorm: 0.000202110035 xtb: 6.7.1 (edcfbbe)
C           -1.48801004201469        1.17381551721732       -0.51834288347077
C           -1.20710464205307        0.37972817206380        0.75249377945405
C           -0.08227612116324       -0.65945659367738        0.63228965303741
H           -0.08381020865778       -1.23497114420943        1.56639404728577
C           -0.30245319040876       -1.62400859964514       -0.53073324021555
C            1.31257707980081       -0.02315236865929        0.54530447040485
O            1.51481246526844        0.62079733002775       -0.69649668317632
H           -1.90436500495524        0.53294581769538       -1.29062267040139
H           -2.20455665986352        1.96506912691834       -0.30879899841371
H           -0.57388820002099        1.62008568931812       -0.89810929018646
H           -2.11959845365837       -0.14142052257193        1.05283853434503
H           -0.94653731390306        1.07302607514870        1.55624184185190
H           -1.31069393063927       -2.02855508118867       -0.50094322854763
H            0.40529885495499       -2.44788430845621       -0.47385347758925
H           -0.15252863665656       -1.10861798614644       -1.47495234688598
H            2.06082167722653       -0.81764008122691        0.67696755831112
H            1.42845780852757        0.69855861323700        1.36691803632317
H            2.42467494778756        0.94012994588076       -0.74278197434037
18
 energy: -20.890773657440 gnorm: 0.000115630502 xtb: 6.7.1 (edcfbbe)
C           -1.48852365581353        1.17324792874510       -0.51895758664317
C           -1.20658663017179        0.38027207121198        0.75239263015086
C           -0.08224776411110       -0.65947255828662        0.63237810157407
H           -0.08404805363557       -1.23505167820239        1.56645109237010
C           -0.30267687812164       -1.62375669120583       -0.53083971374900
C            1.31286118574804       -0.02370530008874        0.54556599704927
O            1.51483131744635        0.62205287119694       -0.69536364158981
H           -1.90657156968754        0.53202412503945       -1.28992022519103
H           -2.20390467294326        1.96545215805987       -0.30940527925340
H           -0.57453908416053        1.61814842836405       -0.90035373194509
H           -2.11899579404497       -0.14022454597422        1.05404941202403
H           -0.94508170231468        1.07426380207316        1.55521767929245
H           -1.31063247413400       -2.02897344825971       -0.50051439235842
H            0.40564699385507       -2.44718687436154       -0.47461710642527
H           -0.15368005254144       -1.10802781193472       -1.47500661149970
H            2.06068819193424       -0.81884626699433        0.67553038370208
H            1.42961029243362        0.69662120965079        1.36825619126047
H            2.42467077983407        0.94161218269252       -0.74105007098258
18
 energy: -20.890773728025 gnorm: 0.000034368885 xtb: 6.7.1 (edcfbbe)
C           -1.48859070820696        1.17290010456025       -0.51921947625377
C           -1.20642764146606        0.38053235581966        0.75250760396342
C           -0.08231154388942       -0.65943844007236        0.63240328112970
H           -0.08417689845080       -1.23504803914619        1.56644339942904
C           -0.30275814244637       -1.62366620380083       -0.53088812964554
C            1.31293338141825       -0.02393766642038        0.54559697264632
O            1.51459370024552        0.62282680191207       -0.69489289055833
H           -1.90738097349052        0.53141436659208       -1.28957761708607
H           -2.20347639062847        1.96554814887300       -0.30973640479684
H           -0.57459025301567        1.61715343651320       -0.90128712546985
H           -2.11883547027438       -0.13961893890251        1.05475379662839
H           -0.94444416315632        1.07486603621988        1.55488126007683
H           -1.31070502001287       -2.02887466669124       -0.50062840009237
H            0.40554556542338       -2.44713490778669       -0.47474078113943
H           -0.15373304219210       -1.10780874582499       -1.47494114762513
H            2.06061246593865       -0.81934873865467        0.67459246054784
H            1.43010953228632        0.69567302907869        1.36882531505298
H            2.42445603148915        0.94241166945680       -0.74027898902133
