18
 energy: -272.906123292352 gnorm: 0.000825958624 xtb: 6.7.1 (edcfbbe)
C            1.24411075963242       -1.36683376157074        0.24140892285440
C            0.84629080338165        0.10894228506558        0.28101904608688
C            2.07087960282871        0.99955772291053        0.06798142877431
C           -0.22732223036152        0.44195920598920       -0.76350710367191
C           -1.54511390131176       -0.30065847252832       -0.60889723384124
O           -2.16216878948093       -0.08680932970874        0.67700419694606
H            0.40753594411460       -2.02680836618581        0.49208404708884
H            2.04960890250522       -1.57028121286467        0.95547263172935
H            1.60381351976593       -1.64169374887791       -0.75831352934238
H            0.43585617591448        0.32953186056335        1.27570882176536
H            2.83062907604413        0.81650911858951        0.83512314409880
H            1.80231614713241        2.06081344367409        0.10505740950135
H            2.52697889763383        0.80222683668770       -0.90961592056477
H            0.16463075351554        0.22071475524664       -1.76678818781919
H           -0.43215404194808        1.52153849513415       -0.73867675937031
H           -2.23495467980970        0.00446032524167       -1.40910545041621
H           -1.40445957727559       -1.38313206161282       -0.69123389927361
H           -2.24721754683738        0.86842979342242        0.79557875999941
18
 energy: -272.906125578857 gnorm: 0.000318180832 xtb: 6.7.1 (edcfbbe)
C            1.24370396949298       -1.36649203344230        0.24232572196376
C            0.84617055949067        0.10930585509893        0.28141461747543
C            2.07125779976603        0.99907781747252        0.06730359834252
C           -0.22772983472971        0.44242869825092       -0.76284214192636
C           -1.54500312368331       -0.30115114671103       -0.60963145623326
O           -2.16173148855035       -0.08793353911509        0.67683645395801
H            0.40656210776812       -2.02588422138138        0.49206681016587
H            2.04849126649866       -1.57041173254795        0.95686299478596
H            1.60408383129732       -1.64132137754517       -0.75692793466417
H            0.43624685157544        0.33029147545613        1.27610986769051
H            2.83264195227006        0.81477787360457        0.83307166853774
H            1.80287657764785        2.06067385870772        0.10593746987439
H            2.52515413176015        0.80237087468513       -0.91207012654771
H            0.16531866898106        0.22225700379031       -1.76617473722122
H           -0.43318097962262        1.52211912067851       -0.73691311716170
H           -2.23443194889443        0.00417923563414       -1.40980642455405
H           -1.40345836313290       -1.38315954158707       -0.69177175170423
H           -2.24771206884467        0.86733853531218        0.79450846055123
18
 energy: -272.906125578857 gnorm: 0.000318180832 xtb: 6.7.1 (edcfbbe)
C            1.24370396949298       -1.36649203344230        0.24232572196376
C            0.84617055949067        0.10930585509893        0.28141461747543
C            2.07125779976603        0.99907781747252        0.06730359834252
C           -0.22772983472971        0.44242869825092       -0.76284214192636
C           -1.54500312368331       -0.30115114671103       -0.60963145623326
O           -2.16173148855035       -0.08793353911509        0.67683645395801
H            0.40656210776812       -2.02588422138138        0.49206681016587
H            2.04849126649866       -1.57041173254795        0.95686299478596
H            1.60408383129732       -1.64132137754517       -0.75692793466417
H            0.43624685157544        0.33029147545613        1.27610986769051
H            2.83264195227006        0.81477787360457        0.83307166853774
H            1.80287657764785        2.06067385870772        0.10593746987439
H            2.52515413176015        0.80237087468513       -0.91207012654771
H            0.16531866898106        0.22225700379031       -1.76617473722122
H           -0.43318097962262        1.52211912067851       -0.73691311716170
H           -2.23443194889443        0.00417923563414       -1.40980642455405
H           -1.40345836313290       -1.38315954158707       -0.69177175170423
H           -2.24771206884467        0.86733853531218        0.79450846055123
