
                                 *****************
                                 * O   R   C   A *
                                 *****************

                                            #,                                       
                                            ###                                      
                                            ####                                     
                                            #####                                    
                                            ######                                   
                                           ########,                                 
                                     ,,################,,,,,                         
                               ,,#################################,,                 
                          ,,##########################################,,             
                       ,#########################################, ''#####,          
                    ,#############################################,,   '####,        
                  ,##################################################,,,,####,       
                ,###########''''           ''''###############################       
              ,#####''   ,,,,##########,,,,          '''####'''          '####       
            ,##' ,,,,###########################,,,                        '##       
           ' ,,###''''                  '''############,,,                           
         ,,##''                                '''############,,,,        ,,,,,,###''
      ,#''                                            '''#######################'''  
     '                                                          ''''####''''         
             ,#######,   #######,   ,#######,      ##                                
            ,#'     '#,  ##    ##  ,#'     '#,    #''#        ,####,   ,####,        
            ##       ##  ##   ,#'  ##            #'  '#       #'       #'  '#        
            ##       ##  #######   ##           ,######,      #####,   #    #        
            '#,     ,#'  ##    ##  '#,     ,#' ,#      #,     #,   #   #,  ,#        
             '#######'   ##     ##  '#######'  #'      '#     '####' # '####'        



                #########################################################
                #                        -***-                          #
                #          Department of theory and spectroscopy        #
                #                                                       #
                #                      Frank Neese                      #
                #                                                       #
                #     Directorship, Architecture, Infrastructure        #
                #                    SHARK, DRIVERS                     #
                #        Core code/Algorithms in most modules           #
                #                                                       #
                #        Max Planck Institute fuer Kohlenforschung      #
                #                Kaiser Wilhelm Platz 1                 #
                #                 D-45470 Muelheim/Ruhr                 #
                #                      Germany                          #
                #                                                       #
                #                  All rights reserved                  #
                #                        -***-                          #
                #########################################################


                         Program Version 6.0.0  -   RELEASE  -


 With contributions from (in alphabetic order):
   Daniel Aravena         : Magnetic Suceptibility
   Michael Atanasov       : Ab Initio Ligand Field Theory (pilot matlab implementation)
   Alexander A. Auer      : GIAO ZORA, VPT2 properties, NMR spectrum
   Ute Becker             : All parallelization in ORCA, NUMFREQ, NUMCALC
   Giovanni Bistoni       : ED, misc. LED, open-shell LED, HFLD
   Martin Brehm           : Molecular dynamics
   Dmytro Bykov           : pre 5.0 version of the SCF Hessian
   Marcos Casanova-Páez   : Triplet and SCS-CIS(D). UHF-(DLPNO)-IP/EA/STEOM-CCSD. UHF-CVS-IP/STEOM-CCSD
   Vijay G. Chilkuri      : MRCI spin determinant printing, contributions to CSF-ICE
   Pauline Colinet        : FMM embedding
   Dipayan Datta          : RHF DLPNO-CCSD density
   Achintya Kumar Dutta   : EOM-CC, STEOM-CC
   Nicolas Foglia         : Exact transition moments, OPA infrastructure, MCD improvements
   Dmitry Ganyushin       : Spin-Orbit,Spin-Spin,Magnetic field MRCI
   Miquel Garcia          : C-PCM and meta-GGA Hessian, CCSD/C-PCM, Gaussian charge scheme
   Tiago L. C. Gouveia    : GS-ROHF, GS-ROCIS
   Yang Guo               : DLPNO-NEVPT2, F12-NEVPT2, CIM, IAO-localization
   Andreas Hansen         : Spin unrestricted coupled pair/coupled cluster methods
   Ingolf Harden          : AUTO-CI MPn and infrastructure 
   Benjamin Helmich-Paris : MC-RPA, TRAH-(SCF,CASSCF), AVAS, COSX integrals, SCF dyn. polar.
   Lee Huntington         : MR-EOM, pCC
   Robert Izsak           : Overlap fitted RIJCOSX, COSX-SCS-MP3, EOM
   Riya Kayal             : Wick's Theorem for AUTO-CI, AUTO-CI UHF-CCSDT
   Emily Kempfer          : AUTO-CI, RHF CISDT and CCSDT
   Christian Kollmar      : KDIIS, OOCD, Brueckner-CCSD(T), CCSD density, CASPT2, CASPT2-K, improved NEVPT2
   Axel Koslowski         : Symmetry handling
   Simone Kossmann        : Meta GGA functionals, TD-DFT gradient, OOMP2, (MP2 Hessian; deprecated post 5.0)
   Lucas Lang             : DCDCAS
   Marvin Lechner         : AUTO-CI (C++ implementation), FIC-MRCC
   Spencer Leger          : CASSCF response
   Dagmar Lenk            : GEPOL surface, SMD, ORCA-2-JSON
   Dimitrios Liakos       : Extrapolation schemes; Compound Job, initial MDCI parallelization
   Dimitrios Manganas     : Further ROCIS development; embedding schemes. LFT, Crystal Embedding
   Dimitrios Pantazis     : SARC Basis sets
   Anastasios Papadopoulos: AUTO-CI, single reference methods and gradients
   Taras Petrenko         : pre 6.0 DFT Hessian and TD-DFT gradient, (ASA, deprecated), ECA, 1-Electron XAS/XES, NRVS
   Peter Pinski           : DLPNO-MP2, DLPNO-MP2 Gradient
   Christoph Reimann      : Effective Core Potentials
   Marius Retegan         : Local ZFS, SOC
   Christoph Riplinger    : Optimizer, TS searches, QM/MM, DLPNO-CCSD(T), (RO)-DLPNO pert. Triples
   Michael Roemelt        : Original ROCIS implementation
   Masaaki Saitow         : Open-shell DLPNO-CCSD energy and density
   Barbara Sandhoefer     : DKH picture change effects
   Kantharuban Sivalingam : CASSCF convergence/infrastructure, NEVPT2 and variants, FIC-MRCI
   Bernardo de Souza      : ESD, SOC TD-DFT
   Georgi Stoychev        : AutoAux, RI-MP2 NMR, DLPNO-MP2 response, X2C
   Van Anh Tran           : RI-MP2 g-tensors
   Willem Van den Heuvel  : Paramagnetic NMR
   Zikuan Wang            : NOTCH, Electric field optimization 
   Frank Wennmohs         : Technical directorship and infrastructure
   Hang Xu                : AUTO-CI-Response properties 


 We gratefully acknowledge several colleagues who have allowed us to
 interface, adapt or use parts of their codes:
   Stefan Grimme, W. Hujo, H. Kruse, P. Pracht,  : VdW corrections, initial TS optimization,
                  C. Bannwarth, S. Ehlert,         DFT functionals, gCP, sTDA/sTD-DF
                  L. Wittmann, M. Mueller
   Ed Valeev, F. Pavosevic, A. Kumar             : LibInt (2-el integral package), F12 methods
   Garnet Chan, S. Sharma, J. Yang, R. Olivares  : DMRG
   Ulf Ekstrom                                   : XCFun DFT Library
   Mihaly Kallay                                 : mrcc  (arbitrary order and MRCC methods)
   Frank Weinhold                                : gennbo (NPA and NBO analysis)
   Simon Mueller                                 : openCOSMO-RS
   Christopher J. Cramer and Donald G. Truhlar   : smd solvation model
   Lars Goerigk                                  : TD-DFT with DH, B97 family of functionals
   V. Asgeirsson, H. Jonsson                     : NEB implementation
   FAccTs GmbH                                   : IRC, NEB, NEB-TS, DLPNO-Multilevel, CI-OPT
                                                   MM, QMMM, 2- and 3-layer-ONIOM, Crystal-QMMM,
                                                   LR-CPCM, SF, NACMEs, symmetry and pop. for TD-DFT,
                                                   nearIR, NL-DFT gradient (VV10), updates on ESD,
                                                   ML-optimized integration grids, MBIS, APM,
                                                   GOAT, DOCKER, SOLVATOR, interface openCOSMO-RS
   S Lehtola, MJT Oliveira, MAL Marques          : LibXC Library
   Liviu Ungur et al                             : ANISO software


 Your calculation uses the libint2 library for the computation of 2-el integrals
 For citations please refer to: http://libint.valeyev.net

 Your ORCA version has been built with support for libXC version: 6.2.2
 For citations please refer to: https://libxc.gitlab.io

 This ORCA versions uses:
   CBLAS   interface :  Fast vector & matrix operations
   LAPACKE interface :  Fast linear algebra routines
   SCALAPACK package :  Parallel linear algebra routines
   Shared memory     :  Shared parallel matrices
   BLAS/LAPACK       :  OpenBLAS 0.3.27  USE64BITINT DYNAMIC_ARCH NO_AFFINITY SkylakeX SINGLE_THREADED
        Core in use  :  SkylakeX
   Copyright (c) 2011-2014, The OpenBLAS Project


Your calculation utilizes the geometrical counterpoise correction gCP
Please cite in your paper:
H.Kruse, S. Grimme J.Chem.Phys., 136, (2012), 154101 
   

Your calculation utilizes the atom-pairwise dispersion correction
based on EEQ partial charges (D4)


================================================================================

----- Orbital basis set information -----
Your calculation utilizes the basis: def2-SV(P)
   F. Weigend and R. Ahlrichs, Phys. Chem. Chem. Phys. 7, 3297 (2005).

----- AuxJ basis set information -----
Your calculation utilizes the auxiliary basis: def2/J
   F. Weigend, Phys. Chem. Chem. Phys. 8, 1057 (2006).

================================================================================
                                        WARNINGS
                       Please study these warnings very carefully!
================================================================================


================================================================================
                                       INPUT FILE
================================================================================
NAME = sp.inp
|  1> ! pbe def2-sv(p) def2/J RI DEFGRID1 loosescf d4 GCP(DFT/SV(P)) printgap
|  2> %output
|  3>     printlevel normal
|  4> end
|  5> * xyz 0 1
|  6> C -2.289057254 1.09484417 0.1884637853
|  7> C -1.8100100903 -0.3521413765 0.1594140279
|  8> C -0.5587588153 -0.6084231837 -0.6864400916
|  9> C 0.7872047434 -0.1485730581 -0.0832838351
| 10> C 1.0621841861 1.3381305845 -0.3441538825
| 11> C 1.915335088 -0.9738133902 -0.7233555727
| 12> O 0.7387162957 -0.4069695682 1.3159230284
| 13> H -2.3231449633 1.5094897859 -0.8166256353
| 14> H -1.6390066677 1.7121246858 0.801365103
| 15> H -3.2890354982 1.1431408357 0.6140949094
| 16> H -1.6180828745 -0.6934219585 1.1773071596
| 17> H -2.6099026478 -0.9707954528 -0.2549330174
| 18> H -0.4925572879 -1.6883804929 -0.8351964483
| 19> H -0.6756993188 -0.1429525332 -1.6660317288
| 20> H 2.0563925569 1.6027464056 0.0117692246
| 21> H 0.3377336873 1.9611003867 0.1692017443
| 22> H 1.0118887849 1.5454816716 -1.408864199
| 23> H 2.8875579459 -0.6251711066 -0.3808991802
| 24> H 1.8760348283 -0.8842085602 -1.8049897886
| 25> H 1.8074562146 -2.0217472266 -0.4526735332
| 26> H 1.5869564954 -0.1583562404 1.7059563249
| 27> *
| 28> 
| 29>                          ****END OF INPUT****
================================================================================

                       ****************************
                       * Single Point Calculation *
                       ****************************

---------------------------------
CARTESIAN COORDINATES (ANGSTROEM)
---------------------------------
  C     -2.289057    1.094844    0.188464
  C     -1.810010   -0.352141    0.159414
  C     -0.558759   -0.608423   -0.686440
  C      0.787205   -0.148573   -0.083284
  C      1.062184    1.338131   -0.344154
  C      1.915335   -0.973813   -0.723356
  O      0.738716   -0.406970    1.315923
  H     -2.323145    1.509490   -0.816626
  H     -1.639007    1.712125    0.801365
  H     -3.289035    1.143141    0.614095
  H     -1.618083   -0.693422    1.177307
  H     -2.609903   -0.970795   -0.254933
  H     -0.492557   -1.688380   -0.835196
  H     -0.675699   -0.142953   -1.666032
  H      2.056393    1.602746    0.011769
  H      0.337734    1.961100    0.169202
  H      1.011889    1.545482   -1.408864
  H      2.887558   -0.625171   -0.380899
  H      1.876035   -0.884209   -1.804990
  H      1.807456   -2.021747   -0.452674
  H      1.586956   -0.158356    1.705956

----------------------------
CARTESIAN COORDINATES (A.U.)
----------------------------
  NO LB      ZA    FRAG     MASS         X           Y           Z
   0 C     6.0000    0    12.011   -4.325691    2.068956    0.356145
   1 C     6.0000    0    12.011   -3.420423   -0.665451    0.301249
   2 C     6.0000    0    12.011   -1.055901   -1.149753   -1.297184
   3 C     6.0000    0    12.011    1.487601   -0.280762   -0.157384
   4 C     6.0000    0    12.011    2.007237    2.528700   -0.650357
   5 C     6.0000    0    12.011    3.619459   -1.840241   -1.366944
   6 O     8.0000    0    15.999    1.395971   -0.769061    2.486734
   7 H     1.0000    0     1.008   -4.390108    2.852522   -1.543199
   8 H     1.0000    0     1.008   -3.097274    3.235447    1.514361
   9 H     1.0000    0     1.008   -6.215376    2.160223    1.160471
  10 H     1.0000    0     1.008   -3.057733   -1.310378    2.224788
  11 H     1.0000    0     1.008   -4.932001   -1.834538   -0.481754
  12 H     1.0000    0     1.008   -0.930798   -3.190577   -1.578293
  13 H     1.0000    0     1.008   -1.276887   -0.270141   -3.148344
  14 H     1.0000    0     1.008    3.886019    3.028752    0.022241
  15 H     1.0000    0     1.008    0.638224    3.705943    0.319745
  16 H     1.0000    0     1.008    1.912193    2.920537   -2.662367
  17 H     1.0000    0     1.008    5.456694   -1.181402   -0.719795
  18 H     1.0000    0     1.008    3.545192   -1.670912   -3.410936
  19 H     1.0000    0     1.008    3.415597   -3.820549   -0.855429
  20 H     1.0000    0     1.008    2.998913   -0.299250    3.223790

--------------------------------
INTERNAL COORDINATES (ANGSTROEM)
--------------------------------
 C      0   0   0     0.000000000000     0.00000000     0.00000000
 C      1   0   0     1.524499014507     0.00000000     0.00000000
 C      2   1   0     1.531920138051   115.21211437     0.00000000
 C      3   2   1     1.544952267586   116.50187798    75.24052976
 C      4   3   2     1.534260276634   112.22113515   276.27789894
 C      4   3   2     1.537332595571   108.48067231   156.37349098
 O      4   3   2     1.423692288684   107.45738559    37.86318179
 H      1   2   3     1.087794880532   110.73457346    47.50221359
 H      1   2   3     1.085932329924   111.23435082   286.28552011
 H      1   2   3     1.087865299839   109.78186349   167.17043565
 H      2   1   3     1.090603007229   109.54408315   122.79078438
 H      2   1   3     1.092814917365   108.33347292   240.12524049
 H      3   2   1     1.092162481311   106.86631798   194.92763120
 H      3   2   1     1.090842694208   109.68774767   311.55757949
 H      5   4   3     1.088647360495   110.09775583   185.28851246
 H      5   4   3     1.084644595816   110.87737265    65.33683200
 H      5   4   3     1.085878519340   110.08705222   304.80041059
 H      6   4   3     1.088138368086   110.64802539   175.56637041
 H      6   4   3     1.086050695399   110.10952568    55.47489999
 H      6   4   3     1.087691106567   109.92465901   295.51229989
 H      7   4   3     0.966150089544   108.67200244   177.74557498

---------------------------
INTERNAL COORDINATES (A.U.)
---------------------------
 C      0   0   0     0.000000000000     0.00000000     0.00000000
 C      1   0   0     2.880885628852     0.00000000     0.00000000
 C      2   1   0     2.894909519955   115.21211437     0.00000000
 C      3   2   1     2.919536675717   116.50187798    75.24052976
 C      4   3   2     2.899331740993   112.22113515   276.27789894
 C      4   3   2     2.905137582380   108.48067231   156.37349098
 O      4   3   2     2.690388524588   107.45738559    37.86318179
 H      1   2   3     2.055634414088   110.73457346    47.50221359
 H      1   2   3     2.052114703527   111.23435082   286.28552011
 H      1   2   3     2.055767487292   109.78186349   167.17043565
 H      2   1   3     2.060941004494   109.54408315   122.79078438
 H      2   1   3     2.065120908884   108.33347292   240.12524049
 H      3   2   1     2.063887983422   106.86631798   194.92763120
 H      3   2   1     2.061393947243   109.68774767   311.55757949
 H      5   4   3     2.057245367752   110.09775583   185.28851246
 H      5   4   3     2.049681238729   110.87737265    65.33683200
 H      5   4   3     2.052013016261   110.08705222   304.80041059
 H      6   4   3     2.056283511495   110.64802539   175.56637041
 H      6   4   3     2.052338381860   110.10952568    55.47489999
 H      6   4   3     2.055438309714   109.92465901   295.51229989
 H      7   4   3     1.825759073501   108.67200244   177.74557498

---------------------
BASIS SET INFORMATION
---------------------
There are 3 groups of distinct atoms

 Group   1 Type C   : 7s4p1d contracted to 3s2p1d pattern {511/31/1}
 Group   2 Type O   : 7s4p1d contracted to 3s2p1d pattern {511/31/1}
 Group   3 Type H   : 4s contracted to 2s pattern {31}

Atom   0C    basis set group =>   1
Atom   1C    basis set group =>   1
Atom   2C    basis set group =>   1
Atom   3C    basis set group =>   1
Atom   4C    basis set group =>   1
Atom   5C    basis set group =>   1
Atom   6O    basis set group =>   2
Atom   7H    basis set group =>   3
Atom   8H    basis set group =>   3
Atom   9H    basis set group =>   3
Atom  10H    basis set group =>   3
Atom  11H    basis set group =>   3
Atom  12H    basis set group =>   3
Atom  13H    basis set group =>   3
Atom  14H    basis set group =>   3
Atom  15H    basis set group =>   3
Atom  16H    basis set group =>   3
Atom  17H    basis set group =>   3
Atom  18H    basis set group =>   3
Atom  19H    basis set group =>   3
Atom  20H    basis set group =>   3
---------------------------------
AUXILIARY/J BASIS SET INFORMATION
---------------------------------
There are 3 groups of distinct atoms

 Group   1 Type C   : 12s5p4d2f1g contracted to 6s4p3d1f1g pattern {711111/2111/211/2/1}
 Group   2 Type O   : 12s5p4d2f1g contracted to 6s4p3d1f1g pattern {711111/2111/211/2/1}
 Group   3 Type H   : 5s2p1d contracted to 3s1p1d pattern {311/2/1}

Atom   0C    basis set group =>   1
Atom   1C    basis set group =>   1
Atom   2C    basis set group =>   1
Atom   3C    basis set group =>   1
Atom   4C    basis set group =>   1
Atom   5C    basis set group =>   1
Atom   6O    basis set group =>   2
Atom   7H    basis set group =>   3
Atom   8H    basis set group =>   3
Atom   9H    basis set group =>   3
Atom  10H    basis set group =>   3
Atom  11H    basis set group =>   3
Atom  12H    basis set group =>   3
Atom  13H    basis set group =>   3
Atom  14H    basis set group =>   3
Atom  15H    basis set group =>   3
Atom  16H    basis set group =>   3
Atom  17H    basis set group =>   3
Atom  18H    basis set group =>   3
Atom  19H    basis set group =>   3
Atom  20H    basis set group =>   3
------------------------------------------------------------------------------
                             ORCA STARTUP CALCULATIONS
                           -- RI-GTO INTEGRALS CHOSEN --
------------------------------------------------------------------------------
------------------------------------------------------------------------------
                   ___                                                        
                  /   \      - P O W E R E D   B Y -                         
                 /     \                                                     
                 |  |  |   _    _      __       _____    __    __             
                 |  |  |  | |  | |    /  \     |  _  \  |  |  /  |          
                  \  \/   | |  | |   /    \    | | | |  |  | /  /          
                 / \  \   | |__| |  /  /\  \   | |_| |  |  |/  /          
                |  |  |   |  __  | /  /__\  \  |    /   |      \           
                |  |  |   | |  | | |   __   |  |    \   |  |\   \          
                \     /   | |  | | |  |  |  |  | |\  \  |  | \   \       
                 \___/    |_|  |_| |__|  |__|  |_| \__\ |__|  \__/        
                                                                              
                      - O R C A' S   B I G   F R I E N D -                    
                                      &                                       
                       - I N T E G R A L  F E E D E R -                       
                                                                              
 v1 FN, 2020, v2 2021, v3 2022-2024                                           
------------------------------------------------------------------------------


----------------------
SHARK INTEGRAL PACKAGE
----------------------

Number of atoms                             ...     21
Number of basis functions                   ...    126
Number of shells                            ...     70
Maximum angular momentum                    ...      2
Integral batch strategy                     ... SHARK/LIBINT Hybrid
RI-J (if used) integral strategy            ... SPLIT-RIJ (Revised 2003 algorithm where possible)
Printlevel                                  ...      1
Contraction scheme used                     ... SEGMENTED contraction
Prescreening option                         ... SCHWARTZ
   Thresh                                   ... 1.000e-09
   Tcut                                     ... 1.000e-10
   Tpresel                                  ... 1.000e-10 
Coulomb Range Separation                    ... NOT USED
Exchange Range Separation                   ... NOT USED
Multipole approximations                    ... NOT USED
Finite Nucleus Model                        ... NOT USED
CABS basis                                  ... NOT available
Auxiliary Coulomb fitting basis             ... AVAILABLE
   # of basis functions in Aux-J            ...    497
   # of shells in Aux-J                     ...    175
   Maximum angular momentum in Aux-J        ...      4
Auxiliary J/K fitting basis                 ... NOT available
Auxiliary Correlation fitting basis         ... NOT available
Auxiliary 'external' fitting basis          ... NOT available

Checking pre-screening integrals            ... done (  0.0 sec) Dimension = 70
Check shell pair data                       ... done (  0.0 sec)
Shell pair information
Shell pair cut-off parameter TPreSel        ...   1.0e-10
Total number of shell pairs                 ...      2485
Shell pairs after pre-screening             ...      2414
Total number of primitive shell pairs       ...     10003
Primitive shell pairs kept                  ...      7001
          la=0 lb=0:   1178 shell pairs
          la=1 lb=0:    679 shell pairs
          la=1 lb=1:    105 shell pairs
          la=2 lb=0:    327 shell pairs
          la=2 lb=1:     98 shell pairs
          la=2 lb=2:     27 shell pairs

Calculating one electron integrals          ... done (  0.0 sec)
Calculating RI/J V-Matrix + Cholesky decomp.... done (  0.1 sec)
Calculating Nuclear repulsion               ... done (  0.0 sec) ENN=    342.346427087266 Eh

Diagonalization of the overlap matrix:
Smallest eigenvalue                        ... 1.482e-03
Time for diagonalization                   ...    0.002 sec
Threshold for overlap eigenvalues          ... 1.000e-07
Number of eigenvalues below threshold      ... 0
Time for construction of square roots      ...    0.019 sec
Total time needed                          ...    0.029 sec

-------------------
DFT GRID GENERATION
-------------------

General Integration Accuracy     IntAcc      ... 4.159
Radial Grid Type                 RadialGrid  ... OptM3 with GC (2021)
Angular Grid (max. ang.)         AngularGrid ... 3 (Lebedev-194)
Angular grid pruning method      GridPruning ... 4 (adaptive)
Weight generation scheme         WeightScheme... mBecke (2022)
Basis function cutoff            BFCut       ... 1.0000e-10
Integration weight cutoff        WCut        ... 1.0000e-14
Partially contracted basis set               ... off
Rotationally invariant grid construction     ... off
Angular grids for H and He will be reduced by one unit

Total number of grid points                  ...    42188
Total number of batches                      ...      670
Average number of points per batch           ...       62
Average number of grid points per atom       ...     2009
Initializing property integral containers    ... done (  0.0 sec)

SHARK setup successfully completed in   0.7 seconds

Maximum memory used throughout the entire STARTUP-calculation: 20.5 MB
-------------------------------------------------------------------------------
                                 ORCA GUESS
                   Start orbitals & Density for SCF / CASSCF
-------------------------------------------------------------------------------

------------
SCF SETTINGS
------------
Hamiltonian:
 Density Functional     Method          .... DFT(GTOs)
 Exchange Functional    Exchange        .... PBE
   PBE kappa parameter   XKappa         ....  0.804000
   PBE mue parameter    XMuePBE         ....  0.219520
 Correlation Functional Correlation     .... PBE
   PBE beta parameter  CBetaPBE         ....  0.066725
 LDA part of GGA corr.  LDAOpt          .... PW91-LDA
 Gradients option       PostSCFGGA      .... off
   NL short-range parameter             ....  6.400000
 RI-approximation to the Coulomb term is turned on
   Number of AuxJ basis functions       .... 497


General Settings:
 Integral files         IntName         .... sp
 Hartree-Fock type      HFTyp           .... RHF
 Total Charge           Charge          ....    0
 Multiplicity           Mult            ....    1
 Number of Electrons    NEL             ....   58
 Basis Dimension        Dim             ....  126
 Nuclear Repulsion      ENuc            ....    342.3464270873 Eh

Convergence Acceleration:
 AO-DIIS                CNVDIIS         .... on
   Start iteration      DIISMaxIt       ....    12
   Startup error        DIISStart       ....  0.200000
   # of expansion vecs  DIISMaxEq       ....     5
   Bias factor          DIISBfac        ....   1.050
   Max. coefficient     DIISMaxC        ....  10.000
 MO-DIIS                CNVKDIIS        .... off
 Trust-Rad. Augm. Hess. CNVTRAH         .... auto
   Auto Start mean grad. ratio tolernc. ....  1.125000
   Auto Start start iteration           ....    50
   Auto Start num. interpolation iter.  ....    10
   Max. Number of Micro iterations      ....    24
   Max. Number of Macro iterations      .... Maxiter - #DIIS iter
   Number of Davidson start vectors     ....     2
   Converg. threshold    (grad. norm)   ....   1.000e-04
   Grad. Scal. Fac. for Micro threshold ....   0.100
   Minimum threshold for Micro iter.    ....   1.000e-02
   NR start threshold (gradient norm)   ....   1.000e-04
   Initial trust radius                 ....   0.400
   Minimum AH scaling param. (alpha)    ....   1.000
   Maximum AH scaling param. (alpha)    .... 1000.000
   Quad. conv. algorithm                .... NR
   White noise on init. David. guess    .... on
   Maximum white noise                  ....   0.010
   Pseudo random numbers                .... off
   Inactive MOs                         .... canonical
   Orbital update algorithm             .... Taylor
   Preconditioner                       .... Diag
   Full preconditioner red. dimension   ....   250
 SOSCF                  CNVSOSCF        .... on
   Start iteration      SOSCFMaxIt      ....   150
   Startup grad/error   SOSCFStart      ....  0.003300
   Hessian update       SOSCFHessUp     .... L-BFGS
 Level Shifting         CNVShift        .... on
   Level shift para.    LevelShift      ....    0.2500
   Turn off err/grad.   ShiftErr        ....    0.0010
 Zerner damping         CNVZerner       .... off
 Static damping         CNVDamp         .... on
   Fraction old density DampFac         ....    0.7000
   Max. Damping (<1)    DampMax         ....    0.9800
   Min. Damping (>=0)   DampMin         ....    0.0000
   Turn off err/grad.   DampErr         ....    0.1000

SCF Procedure:
 Maximum # iterations   MaxIter         ....   125
 SCF integral mode      SCFMode         .... Direct
   Integral package                     .... SHARK and LIBINT hybrid scheme
 Reset frequency        DirectResetFreq ....    20
 Integral Threshold     Thresh          ....  1.000e-09 Eh
 Primitive CutOff       TCut            ....  1.000e-10 Eh

Convergence Tolerance:
 Convergence Check Mode ConvCheckMode   .... Total+1el-Energy
 Convergence forced     ConvForced      .... 0
 Energy Change          TolE            ....  1.000e-05 Eh
 1-El. energy change                    ....  1.000e-02 Eh
 Orbital Gradient       TolG            ....  1.000e-04
 Orbital Rotation angle TolX            ....  1.000e-04
 DIIS Error             TolErr          ....  5.000e-04

------------------------------
INITIAL GUESS: MODEL POTENTIAL
------------------------------
Loading Hartree-Fock densities                     ... done
Calculating cut-offs                               ... done
Initializing the effective Hamiltonian             ... done
Setting up the integral package (SHARK)            ... done
Starting the Coulomb interaction                   ... done (   0.1 sec)
Making the grid                                    ... done (   0.2 sec)
Mapping shells                                     ... done
Starting the XC term evaluation                    ... done (   0.2 sec)
  promolecular density results
     # of electrons  =     57.992310936
     EX              =    -42.988036374
     EC              =     -1.897289391
     EX+EC           =    -44.885325765
Transforming the Hamiltonian                       ... done (   0.0 sec)
Diagonalizing the Hamiltonian                      ... done (   0.0 sec)
Back transforming the eigenvectors                 ... done (   0.0 sec)
Now organizing SCF variables                       ... done
                      ------------------
                      INITIAL GUESS DONE (   0.5 sec)
                      ------------------
             **** ENERGY FILE WAS UPDATED (sp.en.tmp) ****
Finished Guess after   0.7 sec
Maximum memory used throughout the entire GUESS-calculation: 15.6 MB

-------------------------------------------------------------------------------------------
                                      ORCA LEAN-SCF
                              memory conserving SCF solver
-------------------------------------------------------------------------------------------

----------------------------------------D-I-I-S--------------------------------------------
Iteration    Energy (Eh)           Delta-E    RMSDP     MaxDP     DIISErr   Damp  Time(sec)
-------------------------------------------------------------------------------------------
               ***  Starting incremental Fock matrix formation  ***
    1    -311.3460672486847329     0.00e+00  5.30e-03  8.32e-02  2.23e-01  0.700   0.7
    2    -311.4718698634530369    -1.26e-01  3.70e-03  4.85e-02  8.28e-02  0.700   0.8
                               ***Turning on AO-DIIS***
    3    -311.5141288880313937    -4.23e-02  1.40e-03  1.51e-02  2.32e-02  0.700   0.7
    4    -311.5390572471813471    -2.49e-02  1.92e-03  2.42e-02  8.30e-03  0.000   0.7
    5    -311.5965130035544348    -5.75e-02  6.40e-04  6.91e-03  9.80e-03  0.000   0.7
                              *** Initializing SOSCF ***
---------------------------------------S-O-S-C-F--------------------------------------
Iteration    Energy (Eh)           Delta-E    RMSDP     MaxDP     MaxGrad    Time(sec)
--------------------------------------------------------------------------------------
    6    -311.5971754042091675    -6.62e-04  2.34e-04  2.32e-03  2.10e-03     0.7
               *** Restarting incremental Fock matrix formation ***
    7    -311.5972321235794311    -5.67e-05  1.74e-04  2.21e-03  3.30e-04     0.7
    8    -311.5972296566397404     2.47e-06  5.89e-05  1.32e-03  5.53e-04     0.7
                 **** Energy Check signals convergence ****

               *****************************************************
               *                     SUCCESS                       *
               *           SCF CONVERGED AFTER   8 CYCLES          *
               *****************************************************

             **** ENERGY FILE WAS UPDATED (sp.en.tmp) ****

----------------
TOTAL SCF ENERGY
----------------

Total Energy       :       -311.59722965663974 Eh           -8478.99168 eV

Components:
Nuclear Repulsion  :        342.34642708726557 Eh            9315.71988 eV
Electronic Energy  :       -653.94365674390531 Eh          -17794.71157 eV
One Electron Energy:      -1099.87385407885427 Eh          -29929.08913 eV
Two Electron Energy:        445.93019733494896 Eh           12134.37757 eV

Virial components:
Potential Energy   :       -620.47390240441632 Eh          -16883.95325 eV
Kinetic Energy     :        308.87667274777658 Eh            8404.96157 eV
Virial Ratio       :          2.00880790667894

DFT components:
N(Alpha)           :       29.000060275901 electrons
N(Beta)            :       29.000060275901 electrons
N(Total)           :       58.000120551802 electrons
E(X)               :      -44.058165495094 Eh       
E(C)               :       -1.908226415063 Eh       
E(XC)              :      -45.966391910157 Eh       

---------------
SCF CONVERGENCE
---------------

  Last Energy change         ...   -2.4669e-06  Tolerance :   1.0000e-05
  Last MAX-Density change    ...    1.3188e-03  Tolerance :   1.0000e-03
  Last RMS-Density change    ...    5.8944e-05  Tolerance :   1.0000e-04
  Last DIIS Error            ...    2.0991e-03  Tolerance :   5.0000e-04
  Last Orbital Gradient      ...    5.5322e-04  Tolerance :   1.0000e-04
  Last Orbital Rotation      ...    1.8425e-04  Tolerance :   1.0000e-04


----------------
ORBITAL ENERGIES
----------------

  NO   OCC          E(Eh)            E(eV) 
   0   2.0000     -18.738931      -509.9122 
   1   2.0000      -9.945805      -270.6391 
   2   2.0000      -9.877149      -268.7709 
   3   2.0000      -9.872511      -268.6447 
   4   2.0000      -9.872121      -268.6341 
   5   2.0000      -9.872064      -268.6325 
   6   2.0000      -9.865154      -268.4445 
   7   2.0000      -0.917884       -24.9769 
   8   2.0000      -0.717761       -19.5313 
   9   2.0000      -0.676679       -18.4134 
  10   2.0000      -0.617469       -16.8022 
  11   2.0000      -0.604955       -16.4617 
  12   2.0000      -0.530219       -14.4280 
  13   2.0000      -0.500618       -13.6225 
  14   2.0000      -0.432234       -11.7617 
  15   2.0000      -0.409023       -11.1301 
  16   2.0000      -0.403386       -10.9767 
  17   2.0000      -0.380031       -10.3412 
  18   2.0000      -0.362772        -9.8715 
  19   2.0000      -0.360806        -9.8180 
  20   2.0000      -0.344580        -9.3765 
  21   2.0000      -0.336709        -9.1623 
  22   2.0000      -0.322138        -8.7658 
  23   2.0000      -0.308035        -8.3821 
  24   2.0000      -0.291040        -7.9196 
  25   2.0000      -0.279048        -7.5933 
  26   2.0000      -0.277068        -7.5394 
  27   2.0000      -0.257671        -7.0116 
  28   2.0000      -0.211404        -5.7526 
  29   0.0000       0.019033         0.5179 
  30   0.0000       0.058492         1.5916 
  31   0.0000       0.072496         1.9727 
  32   0.0000       0.074537         2.0282 
  33   0.0000       0.076705         2.0872 
  34   0.0000       0.094508         2.5717 
  35   0.0000       0.109404         2.9770 
  36   0.0000       0.112040         3.0488 
  37   0.0000       0.127889         3.4800 
  38   0.0000       0.134269         3.6536 
  39   0.0000       0.142944         3.8897 
*Only the first 10 virtual orbitals were printed.

                    ********************************
                    * MULLIKEN POPULATION ANALYSIS *
                    ********************************

-----------------------
MULLIKEN ATOMIC CHARGES
-----------------------
   0 C :   -0.290755
   1 C :   -0.156914
   2 C :   -0.130810
   3 C :   -0.040063
   4 C :   -0.220868
   5 C :   -0.224606
   6 O :   -0.422048
   7 H :    0.089666
   8 H :    0.116873
   9 H :    0.096934
  10 H :    0.101882
  11 H :    0.076793
  12 H :    0.073761
  13 H :    0.075103
  14 H :    0.080763
  15 H :    0.107473
  16 H :    0.092059
  17 H :    0.082436
  18 H :    0.095277
  19 H :    0.104509
  20 H :    0.292536
Sum of atomic charges:    0.0000000

--------------------------------
MULLIKEN REDUCED ORBITAL CHARGES
--------------------------------
  0 C s       :     3.091535  s :     3.091535
      pz      :     1.055718  p :     3.169764
      px      :     1.066629
      py      :     1.047417
      dz2     :     0.004923  d :     0.029456
      dxz     :     0.004522
      dyz     :     0.007759
      dx2y2   :     0.006658
      dxy     :     0.005594

  1 C s       :     3.030061  s :     3.030061
      pz      :     1.048801  p :     3.090233
      px      :     1.006879
      py      :     1.034553
      dz2     :     0.007966  d :     0.036620
      dxz     :     0.005917
      dyz     :     0.006891
      dx2y2   :     0.006059
      dxy     :     0.009787

  2 C s       :     3.050164  s :     3.050164
      pz      :     1.035345  p :     3.046283
      px      :     0.992326
      py      :     1.018612
      dz2     :     0.008763  d :     0.034362
      dxz     :     0.005356
      dyz     :     0.004444
      dx2y2   :     0.011067
      dxy     :     0.004733

  3 C s       :     3.116803  s :     3.116803
      pz      :     0.781745  p :     2.848553
      px      :     1.057547
      py      :     1.009260
      dz2     :     0.022181  d :     0.074707
      dxz     :     0.014346
      dyz     :     0.016463
      dx2y2   :     0.011473
      dxy     :     0.010244

  4 C s       :     3.064373  s :     3.064373
      pz      :     1.051940  p :     3.128802
      px      :     1.049394
      py      :     1.027468
      dz2     :     0.007420  d :     0.027692
      dxz     :     0.003273
      dyz     :     0.004166
      dx2y2   :     0.005802
      dxy     :     0.007031

  5 C s       :     3.081915  s :     3.081915
      pz      :     1.044304  p :     3.114902
      px      :     1.020620
      py      :     1.049979
      dz2     :     0.009195  d :     0.027789
      dxz     :     0.003054
      dyz     :     0.002145
      dx2y2   :     0.009474
      dxy     :     0.003921

  6 O s       :     3.797606  s :     3.797606
      pz      :     1.299699  p :     4.609434
      px      :     1.457218
      py      :     1.852517
      dz2     :     0.003709  d :     0.015007
      dxz     :     0.003709
      dyz     :     0.002099
      dx2y2   :     0.003464
      dxy     :     0.002024

  7 H s       :     0.910334  s :     0.910334

  8 H s       :     0.883127  s :     0.883127

  9 H s       :     0.903066  s :     0.903066

 10 H s       :     0.898118  s :     0.898118

 11 H s       :     0.923207  s :     0.923207

 12 H s       :     0.926239  s :     0.926239

 13 H s       :     0.924897  s :     0.924897

 14 H s       :     0.919237  s :     0.919237

 15 H s       :     0.892527  s :     0.892527

 16 H s       :     0.907941  s :     0.907941

 17 H s       :     0.917564  s :     0.917564

 18 H s       :     0.904723  s :     0.904723

 19 H s       :     0.895491  s :     0.895491

 20 H s       :     0.707464  s :     0.707464


------------------------
MULLIKEN OVERLAP CHARGES
------------------------
B(  0-C ,  1-C ) :   0.8757 B(  0-C ,  2-C ) :  -0.1078 B(  0-C ,  7-H ) :   0.7491 
B(  0-C ,  8-H ) :   0.7417 B(  0-C ,  9-H ) :   0.7100 B(  0-C , 11-H ) :  -0.0558 
B(  1-C ,  2-C ) :   0.8155 B(  1-C ,  3-C ) :  -0.0769 B(  1-C , 10-H ) :   0.7084 
B(  1-C , 11-H ) :   0.7022 B(  2-C ,  3-C ) :   0.6239 B(  2-C ,  4-C ) :  -0.1730 
B(  2-C ,  5-C ) :  -0.1677 B(  2-C ,  6-O ) :  -0.1704 B(  2-C , 10-H ) :  -0.0508 
B(  2-C , 12-H ) :   0.6324 B(  2-C , 13-H ) :   0.6767 B(  3-C ,  4-C ) :   0.8586 
B(  3-C ,  5-C ) :   0.8757 B(  3-C ,  6-O ) :   0.6437 B(  3-C , 20-H ) :  -0.0923 
B(  4-C ,  5-C ) :  -0.1903 B(  4-C ,  6-O ) :  -0.1047 B(  4-C , 14-H ) :   0.6887 
B(  4-C , 15-H ) :   0.7117 B(  4-C , 16-H ) :   0.6637 B(  5-C ,  6-O ) :  -0.1078 
B(  5-C , 17-H ) :   0.7015 B(  5-C , 18-H ) :   0.6699 B(  5-C , 19-H ) :   0.6965 
B(  6-O , 20-H ) :   0.5249 B(  7-H ,  8-H ) :  -0.0609 B( 10-H , 11-H ) :  -0.0604 
B( 12-H , 13-H ) :  -0.0564 B( 17-H , 19-H ) :  -0.0511 


                     *******************************
                     * LOEWDIN POPULATION ANALYSIS *
                     *******************************

----------------------
LOEWDIN ATOMIC CHARGES
----------------------
   0 C :   -0.344091
   1 C :   -0.235013
   2 C :   -0.216801
   3 C :   -0.013935
   4 C :   -0.340380
   5 C :   -0.339231
   6 O :   -0.316849
   7 H :    0.112649
   8 H :    0.116513
   9 H :    0.118269
  10 H :    0.123769
  11 H :    0.114074
  12 H :    0.118493
  13 H :    0.115977
  14 H :    0.110962
  15 H :    0.120951
  16 H :    0.121659
  17 H :    0.109931
  18 H :    0.122123
  19 H :    0.119958
  20 H :    0.280970

-------------------------------
LOEWDIN REDUCED ORBITAL CHARGES
-------------------------------
  0 C s       :     2.945721  s :     2.945721
      pz      :     1.119999  p :     3.327275
      px      :     1.116874
      py      :     1.090403
      dz2     :     0.013052  d :     0.071095
      dxz     :     0.010955
      dyz     :     0.017203
      dx2y2   :     0.016810
      dxy     :     0.013074

  1 C s       :     2.903402  s :     2.903402
      pz      :     1.108343  p :     3.243065
      px      :     1.061291
      py      :     1.073430
      dz2     :     0.019313  d :     0.088547
      dxz     :     0.015579
      dyz     :     0.014339
      dx2y2   :     0.016654
      dxy     :     0.022661

  2 C s       :     2.918299  s :     2.918299
      pz      :     1.084836  p :     3.213900
      px      :     1.038942
      py      :     1.090122
      dz2     :     0.019524  d :     0.084602
      dxz     :     0.015874
      dyz     :     0.010895
      dx2y2   :     0.027719
      dxy     :     0.010590

  3 C s       :     2.857911  s :     2.857911
      pz      :     0.863929  p :     2.984776
      px      :     1.067285
      py      :     1.053561
      dz2     :     0.051089  d :     0.171248
      dxz     :     0.031936
      dyz     :     0.035525
      dx2y2   :     0.028955
      dxy     :     0.023743

  4 C s       :     2.958093  s :     2.958093
      pz      :     1.123280  p :     3.312767
      px      :     1.114714
      py      :     1.074773
      dz2     :     0.018760  d :     0.069520
      dxz     :     0.008325
      dyz     :     0.010099
      dx2y2   :     0.016292
      dxy     :     0.016043

  5 C s       :     2.962778  s :     2.962778
      pz      :     1.116315  p :     3.307020
      px      :     1.083628
      py      :     1.107077
      dz2     :     0.022358  d :     0.069432
      dxz     :     0.008275
      dyz     :     0.005948
      dx2y2   :     0.021773
      dxy     :     0.011079

  6 O s       :     3.543879  s :     3.543879
      pz      :     1.368420  p :     4.746650
      px      :     1.523614
      py      :     1.854617
      dz2     :     0.007872  d :     0.026320
      dxz     :     0.006808
      dyz     :     0.003630
      dx2y2   :     0.005254
      dxy     :     0.002756

  7 H s       :     0.887351  s :     0.887351

  8 H s       :     0.883487  s :     0.883487

  9 H s       :     0.881731  s :     0.881731

 10 H s       :     0.876231  s :     0.876231

 11 H s       :     0.885926  s :     0.885926

 12 H s       :     0.881507  s :     0.881507

 13 H s       :     0.884023  s :     0.884023

 14 H s       :     0.889038  s :     0.889038

 15 H s       :     0.879049  s :     0.879049

 16 H s       :     0.878341  s :     0.878341

 17 H s       :     0.890069  s :     0.890069

 18 H s       :     0.877877  s :     0.877877

 19 H s       :     0.880042  s :     0.880042

 20 H s       :     0.719030  s :     0.719030


---------------------------------
LOEWDIN BOND ORDERS (THRESH 0.050000)
---------------------------------
B(  0-C ,  1-C ) :   1.1326 B(  0-C ,  2-C ) :   0.0514 B(  0-C ,  7-H ) :   0.9412 
B(  0-C ,  8-H ) :   0.9346 B(  0-C ,  9-H ) :   0.9375 B(  1-C ,  2-C ) :   1.0940 
B(  1-C , 10-H ) :   0.9006 B(  1-C , 11-H ) :   0.9041 B(  2-C ,  3-C ) :   1.0258 
B(  2-C ,  4-C ) :   0.0511 B(  2-C ,  5-C ) :   0.0596 B(  2-C ,  6-O ) :   0.0500 
B(  2-C , 12-H ) :   0.8936 B(  2-C , 13-H ) :   0.9001 B(  3-C ,  4-C ) :   1.0718 
B(  3-C ,  5-C ) :   1.0687 B(  3-C ,  6-O ) :   1.1696 B(  4-C ,  5-C ) :   0.0590 
B(  4-C ,  6-O ) :   0.0718 B(  4-C , 14-H ) :   0.9295 B(  4-C , 15-H ) :   0.9257 
B(  4-C , 16-H ) :   0.9285 B(  5-C ,  6-O ) :   0.0722 B(  5-C , 17-H ) :   0.9309 
B(  5-C , 18-H ) :   0.9295 B(  5-C , 19-H ) :   0.9316 B(  6-O , 20-H ) :   0.8859 


------------------------------------------
LOEWDIN REDUCED ORBITAL POPULATIONS PER MO
-------------------------------------------
THRESHOLD FOR PRINTING IS 0.1%%
                      0         1         2         3         4         5   
                 -18.73893  -9.94580  -9.87715  -9.87251  -9.87212  -9.87206
                   2.00000   2.00000   2.00000   2.00000   2.00000   2.00000
                  --------  --------  --------  --------  --------  --------
 1 C  s               0.0       0.0       0.0      99.6       0.0       0.0
 2 C  s               0.0       0.0      99.6       0.0       0.0       0.0
 3 C  s               0.0      99.5       0.0       0.0       0.0       0.0
 3 C  py              0.0       0.0       0.0       0.0       0.1       0.0
 4 C  s               0.0       0.0       0.0       0.0      98.9       0.8
 5 C  s               0.0       0.0       0.0       0.0       0.8      99.0
 6 O  s              99.9       0.0       0.0       0.0       0.0       0.0

                      6         7         8         9        10        11   
                  -9.86515  -0.91788  -0.71776  -0.67668  -0.61747  -0.60496
                   2.00000   2.00000   2.00000   2.00000   2.00000   2.00000
                  --------  --------  --------  --------  --------  --------
 0 C  s              99.7       0.0       4.4      14.3       2.5      16.3
 0 C  px              0.0       0.0       0.2       0.1       0.0       0.2
 0 C  py              0.0       0.0       1.0       1.5       0.1       0.1
 1 C  s               0.0       0.1      10.8      17.1       0.0       0.1
 1 C  pz              0.0       0.0       0.5       0.0       0.2       1.0
 1 C  px              0.0       0.2       0.8       0.1       0.7       4.4
 1 C  py              0.1       0.0       0.1       0.9       1.0       4.4
 1 C  dx2y2           0.0       0.0       0.0       0.0       0.0       0.2
 2 C  s               0.0       0.8      17.4       1.7       3.3      12.5
 2 C  pz              0.0       0.5       0.4       0.4       0.0       0.0
 2 C  px              0.0       0.7       0.1       5.7       0.1       0.0
 2 C  py              0.0       0.1       0.3       0.0       0.9       0.0
 3 C  s               0.0      10.7      11.9       5.5       0.0       0.3
 3 C  pz              0.0       7.9       5.0       1.6       0.3       0.0
 3 C  px              0.0       0.0       0.5       3.3       0.0      10.0
 3 C  py              0.0       0.2       0.0       0.3      15.2       0.2
 3 C  dz2             0.0       0.7       0.2       0.1       0.0       0.0
 3 C  dx2y2           0.0       0.0       0.0       0.0       0.2       0.0
 3 C  dxy             0.0       0.0       0.0       0.0       0.1       0.1
 4 C  s               0.0       0.9       6.5       7.1      27.3       0.1
 4 C  pz              0.0       0.3       0.0       0.0       0.0       0.0
 4 C  px              0.0       0.0       0.1       0.1       0.0       0.4
 4 C  py              0.0       1.0       1.3       0.7       0.5       0.0
 5 C  s               0.0       0.9       6.3       9.4      10.8      15.1
 5 C  pz              0.0       0.6       0.0       0.0       0.0       0.0
 5 C  px              0.0       0.5       1.0       0.2       0.0       0.9
 5 C  py              0.0       0.2       0.4       0.4       0.7       0.0
 6 O  s               0.0      57.0       4.9       1.5       0.0       0.0
 6 O  pz              0.0       1.0       2.0       0.9       0.1       0.3
 6 O  px              0.0       1.8       0.9       0.0       0.0       0.8
 6 O  py              0.0       0.5       0.0       0.0       0.5       0.0
 7 H  s               0.1       0.0       0.9       2.8       0.7       4.0
 8 H  s               0.1       0.0       0.9       2.7       0.9       4.2
 9 H  s               0.1       0.0       0.7       2.9       0.6       4.8
10 H  s               0.0       0.1       1.7       3.4       0.0       0.0
11 H  s               0.0       0.0       1.9       3.6       0.0       0.0
12 H  s               0.0       0.1       3.3       0.3       1.7       3.1
13 H  s               0.0       0.1       3.6       0.3       0.5       3.1
14 H  s               0.0       0.2       1.1       1.7       7.3       0.0
15 H  s               0.0       0.2       1.3       1.0       8.1       0.0
16 H  s               0.0       0.1       1.5       1.6       6.9       0.0
17 H  s               0.0       0.2       1.1       2.1       2.2       5.1
18 H  s               0.0       0.1       1.4       2.1       2.8       3.9
19 H  s               0.0       0.2       1.1       1.7       3.6       3.8
20 H  s               0.0      11.9       2.2       0.5       0.0       0.2

                     12        13        14        15        16        17   
                  -0.53022  -0.50062  -0.43223  -0.40902  -0.40339  -0.38003
                   2.00000   2.00000   2.00000   2.00000   2.00000   2.00000
                  --------  --------  --------  --------  --------  --------
 0 C  s               6.6       2.1       0.0       0.2       0.1       0.1
 0 C  pz              0.0       0.4       0.1       2.4       5.9      10.4
 0 C  px              0.2       0.1       0.6       4.2       4.1       5.9
 0 C  py              4.8       4.1       2.0       0.5       0.0       3.5
 1 C  s               9.1       6.4       0.6       0.3       0.0       0.0
 1 C  pz              0.0       3.7       0.1       7.0       8.1       5.9
 1 C  px              0.1       0.6       3.2       1.9       2.3      10.3
 1 C  py              4.6       1.3       0.0       2.0       2.1       0.0
 2 C  s               0.0       6.4       0.2       0.4       0.2       1.0
 2 C  pz              0.0      10.0       1.0       1.8       0.5       1.7
 2 C  px              8.4       0.3       0.2       2.5       7.0       0.1
 2 C  py              0.4       0.0       1.8       9.5       9.9       2.3
 2 C  dxz             0.3       0.0       0.0       0.0       0.0       0.1
 2 C  dx2y2           0.0       0.1       0.1       0.1       0.0       0.1
 3 C  s               6.2       2.4       4.7       0.0       0.1       0.0
 3 C  pz              0.5       5.7       5.0       4.1       3.8       0.2
 3 C  px              2.6       0.3       5.6       6.2       0.0       1.0
 3 C  py              0.7       0.0       2.5       1.8       6.6       0.2
 3 C  dz2             0.1       0.0       0.0       0.0       0.0       0.3
 3 C  dxz             0.0       0.2       0.0       0.0       0.0       0.0
 4 C  s               2.4       0.1       1.3       0.2       0.3       0.1
 4 C  pz              0.1       0.8       0.1       2.0       4.3       7.9
 4 C  px              1.0       0.0       0.6       8.7       1.0       1.9
 4 C  py              1.9       0.5      17.6       1.1       1.4       0.4
 4 C  dz2             0.0       0.0       0.1       0.0       0.0       0.1
 4 C  dx2y2           0.0       0.0       0.3       0.1       0.0       0.0
 5 C  s               2.4       0.0       1.0       0.2       0.4       0.0
 5 C  pz              0.4       1.0       0.7       8.2       0.0       3.4
 5 C  px              2.5       0.0       2.6       0.0      12.5       0.9
 5 C  py              0.1       0.1      12.2       0.0       0.1       1.3
 5 C  dxy             0.0       0.0       0.2       0.0       0.1       0.0
 6 O  s               0.1       0.2       1.6       0.6       0.1       2.1
 6 O  pz             10.5      15.8       1.0       7.1       2.0       0.6
 6 O  px              3.8       5.8       8.8       1.1       0.1       3.4
 6 O  py              0.0       0.0       1.1       0.2       2.9       1.0
 6 O  dz2             0.1       0.1       0.0       0.0       0.0       0.0
 7 H  s               2.9       2.3       0.1       1.7       1.4       2.1
 8 H  s               3.3       1.2       1.3       0.7       0.1       8.5
 9 H  s               2.7       0.8       0.0       1.1       3.4       0.2
10 H  s               2.9       5.3       0.0       2.9       3.0       2.4
11 H  s               5.0       2.8       1.4       1.8       0.3       4.8
12 H  s               0.1       3.2       1.3       5.3       3.2       1.9
13 H  s               0.0       7.8       0.2       0.1       2.6       0.8
14 H  s               2.1       0.0       0.9       5.9       0.3       1.8
15 H  s               0.6       0.1       7.0       0.1       0.1       0.1
16 H  s               1.4       0.6       1.0       0.4       2.9       5.3
17 H  s               2.1       0.0       0.4       0.2       6.0       1.8
18 H  s               1.3       0.4       0.8       4.3       0.0       2.0
19 H  s               0.8       0.0       5.9       0.0       0.0       0.3
20 H  s               4.2       6.5       2.3       0.4       0.3       1.3

                     18        19        20        21        22        23   
                  -0.36277  -0.36081  -0.34458  -0.33671  -0.32214  -0.30804
                   2.00000   2.00000   2.00000   2.00000   2.00000   2.00000
                  --------  --------  --------  --------  --------  --------
 0 C  pz              1.0       1.6      12.1       4.3       6.1       1.2
 0 C  px              4.0       6.9       5.8       0.3      10.9       0.0
 0 C  py              1.2       0.0       0.9      11.0       1.0       3.1
 0 C  dz2             0.0       0.0       0.1       0.1       0.0       0.0
 0 C  dxz             0.0       0.0       0.0       0.0       0.1       0.0
 0 C  dyz             0.0       0.0       0.0       0.0       0.2       0.0
 0 C  dxy             0.0       0.0       0.0       0.0       0.1       0.0
 1 C  s               0.4       0.1       0.2       0.0       0.0       0.0
 1 C  pz              0.2       0.0       1.3       0.5       0.4       0.1
 1 C  px              0.2       4.8       1.2       0.6       1.8       1.6
 1 C  py              1.5       2.1       0.0      12.0       0.4       1.6
 1 C  dyz             0.0       0.0       0.0       0.0       0.1       0.0
 1 C  dxy             0.0       0.0       0.0       0.0       0.1       0.0
 2 C  s               0.2       0.0       0.4       0.1       0.6       0.0
 2 C  pz              0.1       1.0       4.6       7.6       9.1       0.0
 2 C  px              0.2       0.7       0.1       0.3       2.9       3.7
 2 C  py              1.7       1.3       1.1       4.9       1.1       0.0
 2 C  dz2             0.0       0.0       0.1       0.2       0.0       0.0
 3 C  s               0.5       0.1       0.1       0.2       0.1       0.0
 3 C  pz              0.5       0.1       0.3       0.2       2.0       1.5
 3 C  px              0.2       0.9       0.3       0.0       6.5       0.0
 3 C  py              1.9       4.6       0.3       0.8       0.4       7.9
 3 C  dz2             0.2       0.0       0.0       0.1       0.5       0.0
 3 C  dxz             0.2       0.0       0.1       0.0       0.0       0.0
 3 C  dyz             0.0       0.3       0.1       0.0       0.0       0.0
 3 C  dx2y2           0.0       0.1       0.0       0.0       0.0       0.2
 3 C  dxy             0.3       0.0       0.0       0.0       0.1       0.0
 4 C  s               0.0       0.0       0.0       0.0       0.1       0.1
 4 C  pz              0.5      21.9       4.2       3.6       1.4       5.4
 4 C  px              6.9       7.5       3.5      13.5       3.8       2.6
 4 C  py              1.3       0.4       0.0       0.9       0.7      10.7
 4 C  dz2             0.0       0.2       0.1       0.0       0.1       0.1
 4 C  dyz             0.0       0.0       0.0       0.0       0.0       0.3
 4 C  dx2y2           0.0       0.0       0.0       0.1       0.0       0.0
 4 C  dxy             0.1       0.0       0.0       0.1       0.2       0.2
 5 C  pz             15.4       4.4      12.0       1.0       2.2       0.2
 5 C  px              6.7       0.1      11.1       2.0       2.2       0.5
 5 C  py             10.7       2.8       0.0       1.8       2.4      19.1
 5 C  dz2             0.2       0.0       0.2       0.0       0.2       0.0
 5 C  dx2y2           0.1       0.0       0.0       0.0       0.0       0.6
 6 O  s               2.1       0.5       0.0       0.1       0.0       0.2
 6 O  pz              0.1       0.0       0.3       0.5       7.5       0.9
 6 O  px              9.5       0.3       0.0       0.3       0.9       0.2
 6 O  py              0.3       7.1       0.1       0.0       0.0       6.6
 7 H  s               0.0       0.8       6.4       5.4       2.4       0.0
 8 H  s               0.0       0.2       0.0       0.2       9.9       0.9
 9 H  s               2.9       3.9       6.5       0.0       2.7       0.3
10 H  s               0.2       0.0       0.1       0.0       0.2       0.0
11 H  s               0.0       2.4       0.0       1.4       1.9       0.0
12 H  s               1.0       1.1       0.1       1.4       0.4       0.1
13 H  s               0.1       0.0       4.7       6.8       2.5       0.0
14 H  s               1.5       0.7       2.7      10.4       3.7       0.0
15 H  s               4.0       6.1       0.0       0.9       1.6      10.4
16 H  s               0.1      10.0       2.5       1.8       1.4       2.7
17 H  s               2.4       0.8       8.8       2.2       1.5       4.4
18 H  s               8.3       2.1       6.7       0.6       2.6       0.0
19 H  s               9.2       0.7       0.2       0.6       1.9      11.8
20 H  s               1.3       0.2       0.1       0.2       0.7       0.1

                     24        25        26        27        28        29   
                  -0.29104  -0.27905  -0.27707  -0.25767  -0.21140   0.01903
                   2.00000   2.00000   2.00000   2.00000   2.00000   0.00000
                  --------  --------  --------  --------  --------  --------
 0 C  s               0.2       0.4       0.1       0.0       0.0       1.4
 0 C  pz              1.0       3.5       6.0       0.0       0.0       0.0
 0 C  px              1.7       5.4       2.8       2.2       0.1       0.0
 0 C  py              8.1       8.6       0.8       2.0       0.0       0.5
 0 C  dz2             0.1       0.0       0.1       0.0       0.0       0.0
 0 C  dyz             0.0       0.1       0.5       0.0       0.0       0.0
 0 C  dx2y2           0.0       0.2       0.0       0.1       0.0       0.1
 0 C  dxy             0.1       0.0       0.1       0.1       0.0       0.0
 1 C  s               0.2       0.0       0.0       0.0       0.0       1.0
 1 C  pz              2.4       4.4      19.2       0.1       0.2       0.1
 1 C  px              3.3       4.5       2.7       7.5       0.2       0.1
 1 C  py              7.7       8.3       1.0       2.4       0.0       0.2
 1 C  dz2             0.2       0.0       0.5       0.1       0.0       0.0
 1 C  dxz             0.2       0.1       0.0       0.1       0.0       0.1
 1 C  dyz             0.0       0.0       0.4       0.0       0.0       0.0
 1 C  dx2y2           0.0       0.4       0.0       0.0       0.0       0.0
 1 C  dxy             0.3       0.1       0.0       0.4       0.0       0.0
 2 C  s               0.6       0.3       0.0       0.2       0.0       2.5
 2 C  pz              8.3       3.0       3.7       0.4       0.0       1.3
 2 C  px              0.7       4.3       0.0      13.8       0.0       0.0
 2 C  py              1.0      15.5       0.7       1.7       0.1       0.0
 2 C  dz2             0.1       0.0       0.4       0.0       0.0       0.0
 2 C  dxz             0.0       0.0       0.0       0.2       0.0       0.0
 2 C  dyz             0.1       0.1       0.1       0.0       0.0       0.0
 2 C  dx2y2           0.0       0.7       0.1       0.1       0.1       0.1
 3 C  s               0.0       0.1       0.3       0.2       0.0       0.7
 3 C  pz              1.7       0.3       1.8       0.3       0.2       1.6
 3 C  px              0.2       0.0       1.0      14.0       0.6       0.1
 3 C  py              0.5       2.3       0.3       1.4       4.4       0.1
 3 C  dz2             0.0       0.0       0.2       0.1       0.1       0.2
 3 C  dxz             0.0       0.0       0.1       0.6       0.2       0.1
 3 C  dyz             0.0       0.0       0.0       0.0       1.0       0.0
 3 C  dx2y2           0.0       0.1       0.0       0.2       0.3       0.0
 3 C  dxy             0.0       0.1       0.0       0.1       0.2       0.0
 4 C  s               0.0       0.1       0.1       0.5       1.1       4.8
 4 C  pz              1.8       0.5       0.0       0.5       0.7       0.2
 4 C  px              0.6       0.1       0.3       2.8       0.1       0.8
 4 C  py              1.5       2.2       1.6       2.0       6.0       1.7
 4 C  dz2             0.1       0.0       0.0       0.0       0.1       0.1
 4 C  dx2y2           0.0       0.0       0.0       0.1       0.0       0.1
 4 C  dxy             0.0       0.0       0.0       0.2       0.0       0.0
 5 C  s               0.0       0.2       0.0       0.4       1.2       3.9
 5 C  pz              2.7       0.1       0.4       0.7       2.3       0.5
 5 C  px              0.1       2.0       0.1       4.8       3.3       2.1
 5 C  py              0.3       0.4       0.0       0.6       1.5       0.2
 5 C  dz2             0.1       0.0       0.1       0.0       0.1       0.1
 5 C  dx2y2           0.0       0.0       0.0       0.2       0.0       0.0
 5 C  dxy             0.0       0.0       0.0       0.0       0.0       0.1
 6 O  s               2.8       0.0       1.2       2.1       0.0       4.8
 6 O  pz              5.8       0.0       6.2       3.5       2.0       0.2
 6 O  px             14.0       1.1       6.1       8.5       8.8       3.6
 6 O  py              2.1       4.5       0.9       3.5      61.2       0.4
 7 H  s               2.7       0.9       6.6       0.1       0.0       1.4
 8 H  s               2.1       0.7       4.1       2.2       0.1       1.4
 9 H  s               2.5       5.8       0.1       2.0       0.1       0.7
10 H  s               4.6       0.3      16.1       0.1       0.0       0.7
11 H  s               3.9       0.8       4.9       7.2       0.0       1.2
12 H  s               0.9      13.9       0.3       1.0       0.6       2.2
13 H  s               4.8       0.3       5.7       0.0       0.0       5.8
14 H  s               0.7       0.5       0.1       2.7       0.1       6.6
15 H  s               0.1       0.5       0.3       1.1       0.3       1.2
16 H  s               1.9       0.4       0.3       0.3       1.0       6.0
17 H  s               0.0       0.9       0.2       2.1       0.0       5.5
18 H  s               2.2       0.4       0.7       0.1       1.1       4.6
19 H  s               1.0       0.2       0.2       0.2       0.4       1.8
20 H  s               1.4       0.1       0.2       1.9       0.0      26.6

                     30        31        32        33        34        35   
                   0.05849   0.07250   0.07454   0.07670   0.09451   0.10940
                   0.00000   0.00000   0.00000   0.00000   0.00000   0.00000
                  --------  --------  --------  --------  --------  --------
 0 C  s               8.6       0.6       3.5       4.5       0.1       2.9
 0 C  pz              0.1       1.4       0.1       1.1       3.3       0.4
 0 C  px              1.0       0.6       0.2       1.9       1.3       4.3
 0 C  py              1.3       0.1       1.2       1.7       0.0       0.1
 0 C  dyz             0.0       0.0       0.0       0.0       0.2       0.0
 0 C  dx2y2           0.2       0.1       0.0       0.1       0.0       0.0
 1 C  s               4.3       2.1       1.0       2.9       0.2       0.1
 1 C  pz              0.3       0.2       0.1       0.3       1.0       0.4
 1 C  px              1.2       0.3       0.5       0.8       0.2       0.7
 1 C  py              1.5       1.0       0.2       0.3       0.2       0.3
 1 C  dz2             0.0       0.1       0.1       0.1       0.0       0.1
 1 C  dyz             0.0       0.1       0.0       0.0       0.2       0.0
 1 C  dx2y2           0.1       0.0       0.1       0.1       0.1       0.0
 1 C  dxy             0.2       0.3       0.1       0.1       0.0       0.1
 2 C  s               1.1       0.0       2.0       1.5       0.5       0.3
 2 C  pz              2.5       3.6       0.1       0.5       0.2       0.8
 2 C  px              0.3       0.6       0.4       0.1       0.4       0.5
 2 C  py              1.0       3.2       3.1       0.6       1.3       1.7
 2 C  dz2             0.0       0.2       0.0       0.1       0.0       0.0
 2 C  dxz             0.0       0.0       0.4       0.1       0.0       0.1
 2 C  dyz             0.0       0.2       0.0       0.0       0.0       0.0
 2 C  dx2y2           0.4       0.1       0.0       0.2       0.0       0.3
 2 C  dxy             0.0       0.0       0.0       0.0       0.0       0.2
 3 C  s               0.0       0.0       0.5       0.1       0.0       0.0
 3 C  pz              0.3       1.0       0.9       2.3       0.5       0.0
 3 C  px              0.1       0.1       0.2       0.2       0.3       0.3
 3 C  py              0.1       0.3       0.5       0.2       0.1       1.4
 3 C  dz2             0.0       0.5       0.3       0.6       0.1       0.0
 3 C  dxz             0.0       0.0       0.1       0.0       0.0       0.2
 3 C  dyz             0.0       0.1       0.0       0.1       0.0       0.0
 3 C  dx2y2           0.2       0.0       0.0       0.0       0.3       0.7
 3 C  dxy             0.0       0.2       0.1       0.2       0.4       0.2
 4 C  s               0.3       0.1       0.6       5.7       1.6       6.2
 4 C  pz              0.2       7.2       0.5       1.0       0.1       0.1
 4 C  px              2.1       0.7       0.6       1.1       7.8       0.1
 4 C  py              0.0       0.3       0.4       2.9       0.5       0.6
 4 C  dz2             0.0       0.4       0.1       0.1       0.1       0.1
 4 C  dxz             0.0       0.0       0.0       0.1       0.3       0.0
 4 C  dyz             0.0       0.0       0.1       0.1       0.0       0.0
 4 C  dx2y2           0.0       0.0       0.0       0.0       0.2       0.0
 4 C  dxy             0.0       0.0       0.0       0.1       0.2       0.1
 5 C  s               0.5       0.1       8.5       1.9       2.4       6.1
 5 C  pz              0.2       3.5       0.7       0.7       0.9       1.0
 5 C  px              1.1       1.1       1.1       0.1       2.6       2.4
 5 C  py              0.7       0.4       2.4       0.1       3.1       3.6
 5 C  dz2             0.0       0.1       0.1       0.3       0.1       0.0
 5 C  dx2y2           0.1       0.0       0.0       0.0       0.2       0.5
 6 O  s               0.7       0.1       2.9       1.5       1.5       0.1
 6 O  pz              0.7       2.4       0.1       0.4       0.1       0.2
 6 O  px              3.1       0.1       1.2       0.7       0.3       0.0
 6 O  py              0.1       0.0       0.8       0.0       0.1       0.2
 7 H  s               8.6       1.3       3.4       0.8       7.0       0.1
 8 H  s               2.2       0.2       4.1      16.2       3.8       0.0
 9 H  s              10.0       4.6       1.4       0.3       0.5      16.0
10 H  s               0.9       4.0       1.9       0.4       3.8       0.3
11 H  s              12.6       4.2       0.1       9.4       0.1       0.3
12 H  s               4.8       5.5      11.1       3.9       0.7       5.7
13 H  s               3.2      12.4       0.1       2.0       1.8       0.2
14 H  s               1.7       3.9       1.6       2.5      21.1       5.0
15 H  s               1.8       0.1       0.6      17.2       1.8       3.3
16 H  s               1.0      15.4       0.9       0.7       0.8       2.6
17 H  s               5.0       2.6       5.3       2.4       4.6      16.3
18 H  s               0.1       8.8       7.1       0.5       5.8      10.1
19 H  s               0.5       1.2      13.0       1.8      11.4       1.8
20 H  s              12.8       1.8      13.2       3.8       3.8       0.7

                     36        37        38        39        40        41   
                   0.11204   0.12789   0.13427   0.14294   0.14453   0.15367
                   0.00000   0.00000   0.00000   0.00000   0.00000   0.00000
                  --------  --------  --------  --------  --------  --------
 0 C  s               0.7       2.1       0.1       2.0       0.3       1.3
 0 C  pz              8.1       0.3       1.0       1.8       4.7       0.1
 0 C  px              0.9       6.3       1.0       1.9       0.6       3.0
 0 C  py              0.6       2.0       0.0       0.4       0.0       1.9
 0 C  dz2             0.3       0.2       0.3       0.0       0.2       0.1
 0 C  dxz             0.0       0.3       0.2       0.1       0.1       0.1
 0 C  dyz             0.0       0.4       0.1       0.0       0.3       0.0
 0 C  dx2y2           0.2       0.1       0.1       0.4       0.0       0.5
 0 C  dxy             0.0       0.1       0.1       0.0       0.0       0.3
 1 C  s               0.4       5.4       1.4       0.3       2.9       2.4
 1 C  pz              0.1       3.3      10.0       0.1       0.8       0.0
 1 C  px              0.3       0.8       6.3       2.0       1.6       0.0
 1 C  py              0.2       0.2       0.2       0.3       1.9       2.0
 1 C  dz2             0.0       0.1       0.5       0.1       0.1       0.2
 1 C  dxz             0.0       0.3       0.3       0.2       0.1       0.0
 1 C  dyz             0.2       0.0       0.1       0.0       0.7       0.0
 1 C  dx2y2           0.0       0.1       0.0       0.3       0.1       0.3
 1 C  dxy             0.1       0.6       0.1       0.0       0.0       0.4
 2 C  s               1.2       2.6       0.4       0.1       7.1       0.1
 2 C  pz              1.4       1.0       0.2       0.2       2.0       1.3
 2 C  px              0.5       0.3       0.5       1.1       0.6       0.3
 2 C  py              0.4       0.7       0.5       2.2       0.3       6.8
 2 C  dz2             0.0       0.0       0.7       0.1       0.0       0.1
 2 C  dxz             0.1       0.2       0.4       0.1       0.1       0.1
 2 C  dyz             0.2       0.0       0.1       0.2       0.2       0.5
 2 C  dx2y2           0.2       0.3       0.0       0.2       0.0       0.0
 2 C  dxy             0.0       0.0       0.0       0.1       0.1       0.2
 3 C  s               0.1       0.5       1.0       0.3       3.6       0.1
 3 C  pz              0.8       0.4       0.3       1.1       0.3       1.6
 3 C  px              0.1       0.2       0.1       0.4       1.0       0.2
 3 C  py              0.5       0.7       0.2       0.5       0.6       0.6
 3 C  dz2             0.1       0.0       0.1       0.4       0.0       0.1
 3 C  dxz             0.3       0.0       0.1       0.0       0.1       0.0
 3 C  dyz             0.1       0.0       0.1       0.1       0.0       0.6
 3 C  dx2y2           0.1       0.4       0.0       0.1       0.2       0.0
 3 C  dxy             0.2       0.0       0.0       1.0       0.0       0.1
 4 C  s               5.2       0.2       0.1       0.3       1.6       0.0
 4 C  pz              0.8       0.4       3.3       4.6       0.4       5.0
 4 C  px              0.3       0.0       1.6       1.3       0.5       2.2
 4 C  py              0.7       0.5       0.7       0.7       3.0       0.2
 4 C  dz2             0.1       0.0       0.0       0.4       0.0       0.5
 4 C  dxz             0.0       0.0       0.1       0.0       0.0       0.1
 4 C  dyz             0.1       0.1       0.2       0.0       0.1       0.4
 4 C  dx2y2           0.0       0.0       0.0       0.0       1.0       0.0
 4 C  dxy             0.0       0.0       0.1       0.3       0.0       0.0
 5 C  s               1.4       0.1       0.2       0.0       2.1       0.7
 5 C  pz              4.1       0.1       0.3      11.1       0.0       0.7
 5 C  px              0.3       0.8       0.1       0.3       1.8       5.7
 5 C  py              1.8       3.8       0.8       0.2       0.3       1.0
 5 C  dz2             0.4       0.0       0.0       1.2       0.0       0.0
 5 C  dxz             0.0       0.0       0.1       0.0       0.1       0.3
 5 C  dx2y2           0.0       0.3       0.0       0.0       0.1       0.3
 5 C  dxy             0.0       0.0       0.0       0.0       0.5       0.5
 6 O  s               0.0       0.1       0.1       0.0       0.1       0.1
 6 O  pz              0.4       0.0       0.6       0.8       0.1       0.2
 6 O  px              0.1       2.3       0.5       0.1       0.0       0.0
 6 O  py              0.3       0.2       0.1       0.0       0.1       0.9
 7 H  s              20.3       2.0       1.4       7.1       5.6       1.0
 8 H  s               0.0       4.9       1.0       1.7       2.3       2.3
 9 H  s               4.5      16.0       1.3       2.2       6.5       1.9
10 H  s               0.8      14.5      29.2       0.0       0.3       0.8
11 H  s               1.9       3.7      13.5       2.0      16.5       0.2
12 H  s               0.5       0.9       0.1       3.8       7.3      10.0
13 H  s               5.7       4.2       1.0       2.8      10.4       5.9
14 H  s               4.1       0.1       0.6       3.7       1.0       9.1
15 H  s               1.0       0.3       6.2       0.5       0.1       0.5
16 H  s               8.3       0.8       6.1      10.1       2.8       8.9
17 H  s               2.7       4.0       0.0       2.7       1.5       8.0
18 H  s               4.7       0.2       0.5      20.0       1.0       2.8
19 H  s               9.9       6.2       2.0       3.3       2.3       4.2
20 H  s               0.9       3.5       1.2       0.1       0.1       0.0

                     42        43        44        45        46        47   
                   0.17132   0.18390   0.19917   0.21025   0.22422   0.22707
                   0.00000   0.00000   0.00000   0.00000   0.00000   0.00000
                  --------  --------  --------  --------  --------  --------
 0 C  s               0.3       1.6       0.8       0.2       0.0       0.2
 0 C  pz              0.3       1.0       3.2       0.6       0.2       1.4
 0 C  px              1.6       4.0       1.9       1.4       0.0       0.1
 0 C  py              0.5       0.8       2.1       2.3       0.2      20.5
 0 C  dz2             0.0       0.0       0.4       0.1       0.0       1.2
 0 C  dxz             0.0       0.6       0.2       0.0       0.0       0.4
 0 C  dyz             0.1       0.2       0.1       0.2       0.1       0.0
 0 C  dx2y2           0.0       0.3       0.5       0.2       0.0       1.2
 0 C  dxy             0.5       0.3       0.1       0.6       0.0       1.5
 1 C  s               2.8       0.7       1.1       1.5       0.1       1.3
 1 C  pz              3.1       0.6       1.1       1.7       2.4       0.7
 1 C  px              3.8       1.5       0.3       1.6       0.2       1.3
 1 C  py              0.1       4.4       2.3       2.2       0.2      12.9
 1 C  dz2             0.4       0.5       0.1       0.0       0.3       1.3
 1 C  dxz             0.9       0.8       0.1       0.6       0.3       0.0
 1 C  dx2y2           0.7       0.2       0.5       0.1       0.2       0.7
 1 C  dxy             0.0       0.0       0.0       0.2       0.0       0.7
 2 C  s               7.6       0.4       0.2       0.3       1.1       0.3
 2 C  pz              4.6       2.3       0.9       0.7       2.5       0.6
 2 C  px              0.3       0.0       0.1      12.9      11.4       1.2
 2 C  py              1.4       3.5       0.4       1.5       0.4       0.6
 2 C  dz2             0.4       0.1       0.3       0.0       0.2       0.0
 2 C  dxz             0.5       0.0       0.4       2.3       1.9       0.9
 2 C  dyz             0.5       0.6       0.0       0.4       0.0       0.4
 2 C  dx2y2           1.9       0.3       0.0       0.1       0.6       0.2
 2 C  dxy             0.5       0.0       0.0       1.9       0.2       0.4
 3 C  s               5.7       3.6      15.1       3.6       2.7       0.1
 3 C  pz             14.0       0.0       5.7       0.4       0.9       1.0
 3 C  px              0.4       6.8       2.3      16.5       2.6       1.7
 3 C  py              1.7       0.1       0.2       3.6      19.8       2.2
 3 C  dz2             2.8       0.1       1.1       0.0       0.1       0.3
 3 C  dxz             0.0       0.4       0.0       1.7       0.1       0.2
 3 C  dyz             0.1       0.1       0.2       0.1       0.4       0.0
 3 C  dx2y2           0.0       0.2       0.2       0.0       2.3       0.2
 3 C  dxy             0.1       0.5       0.0       1.4       0.0       0.1
 4 C  s               1.2       0.6       0.5       0.2       0.8       0.1
 4 C  pz              0.2       1.3       0.3       0.7       2.1       1.1
 4 C  px              0.6       5.5       1.3       3.4       0.6       1.5
 4 C  py              7.7       2.0       7.1       2.9       9.4       4.5
 4 C  dz2             0.2       0.2       0.2       0.3       1.0       0.0
 4 C  dxz             0.0       0.0       0.1       1.1       0.0       0.5
 4 C  dyz             0.1       0.0       1.4       0.1       0.6       0.2
 4 C  dx2y2           1.9       0.5       1.3       0.4       1.2       0.2
 4 C  dxy             0.6       0.2       0.1       0.9       0.0       0.3
 5 C  s               0.0       0.7       0.4       0.4       0.4       0.3
 5 C  pz              0.3       1.3       2.7       2.1       1.5       0.1
 5 C  px              3.1       2.6       1.7       5.7       7.0       0.2
[...]
 6 O  dx2y2           0.0       1.3       0.1       2.7       7.8      12.1
 6 O  dxy             0.2       0.0       0.2       0.0      34.9       8.4
 7 H  s               0.5       0.0       0.1       0.0       0.1       0.1
 8 H  s               0.4       0.1       0.2       0.1       0.0       0.1
 9 H  s               1.0       0.0       0.0       0.4       0.0       0.1
10 H  s               0.0       0.7       0.0       0.7       0.1       0.0
11 H  s               0.1       0.9       0.0       0.4       0.0       0.5
12 H  s               0.3       0.5       0.9       0.6       0.3       0.2
13 H  s               0.0       0.1       2.0       0.0       0.2       0.0
14 H  s               0.0       0.9       0.3       0.0       0.0       0.0
15 H  s               0.2       0.4       0.8       0.1       0.0       0.1
16 H  s               0.4       0.0       0.1       0.0       0.0       0.0
17 H  s               0.2       0.0       0.3       0.0       0.0       0.0
18 H  s               0.0       0.9       0.0       0.0       0.0       0.0
19 H  s               0.1       0.0       1.0       0.0       0.0       0.0
20 H  s               0.0       0.2       0.3       0.0       0.0       0.0

                    120       121       122       123       124       125   
                   2.62023   2.62450   2.82203   2.90251   2.94548   3.30153
                   0.00000   0.00000   0.00000   0.00000   0.00000   0.00000
                  --------  --------  --------  --------  --------  --------
 0 C  s               0.0       0.3       0.0       0.0       0.0       0.0
 0 C  px              0.0       0.4       0.0       0.0       0.0       0.0
 0 C  py              0.0       0.6       0.0       0.0       0.0       0.0
 0 C  dz2             0.0       0.8       0.0       0.0       0.0       0.0
 0 C  dxz             0.0       0.1       0.0       0.0       0.0       0.0
 0 C  dyz             0.0       0.3       0.1       0.0       0.0       0.0
 0 C  dx2y2           0.0       1.7       0.0       0.0       0.0       0.0
 0 C  dxy             0.1       2.1       0.0       0.0       0.0       0.0
 1 C  s               0.1       0.4       0.0       0.0       0.0       0.0
 1 C  pz              0.1       0.7       0.0       0.0       0.0       0.0
 1 C  px              0.1       2.4       0.0       0.0       0.0       0.0
 1 C  py              0.0       0.7       0.0       0.0       0.0       0.0
 1 C  dz2             0.8       0.1       0.2       0.0       0.0       0.0
 1 C  dxz             0.4      10.4       0.1       0.1       0.1       0.0
 1 C  dyz             0.1       0.1       0.3       0.0       0.0       0.0
 1 C  dx2y2           0.0      14.5       0.1       0.1       0.1       0.0
 2 C  s               0.1       0.1       0.1       0.0       0.1       0.1
 2 C  pz              0.1       0.2       0.0       0.0       0.1       0.0
 2 C  px              0.0       4.5       0.3       0.1       0.0       0.1
 2 C  py              0.0       0.0       0.0       0.1       0.0       0.0
 2 C  dz2             0.1       0.1       2.0       0.0       0.5       0.0
 2 C  dxz             0.0      23.6       0.0       0.3       0.6       0.4
 2 C  dyz             1.3       0.1       0.0       0.1       0.0       0.0
 2 C  dx2y2           4.0       0.9       2.2       0.3       0.2       0.0
 2 C  dxy             0.9       7.0       1.5       0.0       0.0       0.0
 3 C  s               0.0       0.1       0.0       0.0       0.0       1.6
 3 C  pz              0.0       0.1       0.0       0.0       0.1       3.9
 3 C  px              0.6       2.2       0.5       0.1       0.2       0.0
 3 C  py              1.4       0.1       0.1       0.9       0.0       0.1
 3 C  dz2             0.0       0.4       0.6       1.7       0.0      12.3
 3 C  dxz             1.6       1.8      16.9       2.0       2.9       0.1
 3 C  dyz             0.2       0.2       0.6      14.0       1.8       1.2
 3 C  dx2y2          11.4       5.8       1.1       1.0       0.3       0.1
 3 C  dxy            18.2       4.7       0.3       0.0       1.1       0.0
 4 C  s               0.5       0.0       0.0       0.0       0.0       0.0
 4 C  pz              0.1       0.0       0.0       0.0       0.0       0.0
 4 C  py              1.3       0.1       0.1       0.2       0.0       0.0
 4 C  dz2             0.2       0.0       0.2       1.2       0.2       0.0
 4 C  dxz             0.0       0.0       0.3       0.2       0.0       0.0
 4 C  dyz             1.7       0.0       0.1       0.6       0.5       0.1
 4 C  dx2y2           7.0       0.3       0.3       0.6       0.1       0.1
 4 C  dxy             0.1       0.4       0.1       0.2       0.2       0.0
 5 C  s               0.6       0.4       0.1       0.0       0.0       0.0
 5 C  pz              0.3       0.0       0.0       0.1       0.0       0.0
 5 C  px              0.8       0.4       0.2       0.0       0.0       0.0
 5 C  py              0.7       0.1       0.0       0.1       0.0       0.0
 5 C  dz2             0.2       0.2       0.6       1.5       0.2       0.0
 5 C  dxz             3.2       0.6       0.4       0.2       0.1       0.1
 5 C  dyz             2.3       0.0       0.0       0.0       0.0       0.1
 5 C  dx2y2           0.0       1.7       0.0       0.1       0.4       0.0
 5 C  dxy             5.7       0.7       0.8       1.0       0.0       0.0
 6 O  s               0.0       0.0       0.5       0.0       2.2       4.6
 6 O  pz              0.0       0.0       0.0       0.0       0.0       4.6
 6 O  px              0.0       0.0       2.3       0.0       0.8       0.3
 6 O  py              0.0       0.0       0.2       1.0       0.1       0.0
 6 O  dz2             0.0       0.0       0.4       5.1       2.4      60.2
 6 O  dxz             2.4       0.3      18.9      10.7      41.0       1.0
 6 O  dyz             0.1       1.0       3.9      54.3       2.5       7.0
 6 O  dx2y2          17.8       1.9      18.5       1.1      25.9       0.6
 6 O  dxy            12.5       2.9      23.2       0.3       8.6       0.1
 9 H  s               0.0       0.2       0.0       0.0       0.0       0.0
12 H  s               0.2       0.1       0.0       0.0       0.0       0.0
14 H  s               0.2       0.0       0.0       0.0       0.0       0.0
15 H  s               0.1       0.0       0.0       0.0       0.0       0.0
17 H  s               0.3       0.0       0.0       0.0       0.0       0.0
19 H  s               0.2       0.0       0.0       0.0       0.0       0.0
20 H  s               0.0       0.2       1.3       0.1       6.4       0.8



                      *****************************
                      * MAYER POPULATION ANALYSIS *
                      *****************************

  NA   - Mulliken gross atomic population
  ZA   - Total nuclear charge
  QA   - Mulliken gross atomic charge
  VA   - Mayer's total valence
  BVA  - Mayer's bonded valence
  FA   - Mayer's free valence

  ATOM       NA         ZA         QA         VA         BVA        FA
  0 C      6.2908     6.0000    -0.2908     4.0272     4.0272     0.0000
  1 C      6.1569     6.0000    -0.1569     4.1826     4.1826    -0.0000
  2 C      6.1308     6.0000    -0.1308     3.9993     3.9993    -0.0000
  3 C      6.0401     6.0000    -0.0401     4.3477     4.3477     0.0000
  4 C      6.2209     6.0000    -0.2209     3.9053     3.9053     0.0000
  5 C      6.2246     6.0000    -0.2246     3.9020     3.9020     0.0000
  6 O      8.4220     8.0000    -0.4220     1.9852     1.9852     0.0000
  7 H      0.9103     1.0000     0.0897     0.9580     0.9580     0.0000
  8 H      0.8831     1.0000     0.1169     0.9599     0.9599     0.0000
  9 H      0.9031     1.0000     0.0969     0.9500     0.9500    -0.0000
 10 H      0.8981     1.0000     0.1019     0.9704     0.9704    -0.0000
 11 H      0.9232     1.0000     0.0768     0.9417     0.9417    -0.0000
 12 H      0.9262     1.0000     0.0738     0.9592     0.9592     0.0000
 13 H      0.9249     1.0000     0.0751     0.9607     0.9607     0.0000
 14 H      0.9192     1.0000     0.0808     0.9689     0.9689    -0.0000
 15 H      0.8925     1.0000     0.1075     0.9836     0.9836    -0.0000
 16 H      0.9079     1.0000     0.0921     0.9656     0.9656     0.0000
 17 H      0.9176     1.0000     0.0824     0.9679     0.9679     0.0000
 18 H      0.9047     1.0000     0.0953     0.9620     0.9620     0.0000
 19 H      0.8955     1.0000     0.1045     0.9707     0.9707     0.0000
 20 H      0.7075     1.0000     0.2925     0.8905     0.8905    -0.0000

  Mayer bond orders larger than 0.100000
B(  0-C ,  1-C ) :   1.1604 B(  0-C ,  7-H ) :   0.9542 B(  0-C ,  8-H ) :   0.9426 
B(  0-C ,  9-H ) :   0.9482 B(  1-C ,  2-C ) :   1.1419 B(  1-C , 10-H ) :   0.9117 
B(  1-C , 11-H ) :   0.9249 B(  2-C ,  3-C ) :   1.0374 B(  2-C , 12-H ) :   0.9091 
B(  2-C , 13-H ) :   0.9160 B(  3-C ,  4-C ) :   1.0917 B(  3-C ,  5-C ) :   1.0871 
B(  3-C ,  6-O ) :   1.0144 B(  4-C , 14-H ) :   0.9379 B(  4-C , 15-H ) :   0.9334 
B(  4-C , 16-H ) :   0.9376 B(  5-C , 17-H ) :   0.9411 B(  5-C , 18-H ) :   0.9407 
B(  5-C , 19-H ) :   0.9387 B(  6-O , 20-H ) :   0.8531 

-------
TIMINGS
-------

Total SCF time: 0 days 0 hours 0 min 6 sec 

Total time                  ....       6.122 sec
Sum of individual times     ....       5.732 sec  ( 93.6%)

SCF preparation             ....       0.152 sec  (  2.5%)
Fock matrix formation       ....       4.833 sec  ( 78.9%)
  Startup                   ....       0.045 sec  (  0.9% of F)
  Split-RI-J                ....       1.669 sec  ( 34.5% of F)
  XC integration            ....       2.713 sec  ( 56.1% of F)
    Basis function eval.    ....       0.952 sec  ( 35.1% of XC)
    Density eval.           ....       0.331 sec  ( 12.2% of XC)
    XC-Functional eval.     ....       0.231 sec  (  8.5% of XC)
    XC-Potential eval.      ....       0.561 sec  ( 20.7% of XC)
Diagonalization             ....       0.000 sec  (  0.0%)
Density matrix formation    ....       0.168 sec  (  2.7%)
Total Energy calculation    ....       0.028 sec  (  0.5%)
Population analysis         ....       0.064 sec  (  1.0%)
Orbital Transformation      ....       0.052 sec  (  0.8%)
Orbital Orthonormalization  ....       0.000 sec  (  0.0%)
DIIS solution               ....       0.352 sec  (  5.7%)
  MO trafo                  ....       0.000 sec  (  0.0 % of DIIS)
  Orb grad                  ....       0.000 sec  (  0.0 % of DIIS)
  Energy W gradient         ....       0.000 sec  (  0.0 % of DIIS)
  DIIS error                ....       0.002 sec  (  0.6 % of DIIS)
  DIIS work                 ....       0.311 sec  ( 88.4 % of DIIS)
  Form Q                    ....       0.000 sec  (  0.0 % of DIIS)
  Form QpQm                 ....       0.000 sec  (  0.0 % of DIIS)
  Exp/Cayley                ....       0.000 sec  (  0.0 % of DIIS)
  Orb update                ....       0.000 sec  (  0.0 % of DIIS)
  Wake-sleep                ....       0.016 sec  (  4.6 % of DIIS)
SOSCF solution              ....       0.083 sec  (  1.4%)
  MO trafo                  ....       0.039 sec  ( 46.7 % of SOSCF)
  Orb grad                  ....       0.003 sec  (  3.8 % of SOSCF)
  Rot update                ....       0.027 sec  ( 32.9 % of SOSCF)
  Step                      ....       0.014 sec  ( 16.5 % of SOSCF)
Finished LeanSCF after   6.2 sec

Maximum memory used throughout the entire LEANSCF-calculation: 12.5 MB


-------------------------------------------------------------------------------
                          DFT DISPERSION CORRECTION                            
                                                                               
                                DFTD4 V3.4.0                                   
-------------------------------------------------------------------------------
The PBE functional is recognized
Active option DFTDOPT                   ...         5   

-------------------------   ----------------
Dispersion correction           -0.017032501
-------------------------   ----------------

------------------   -----------------
gCP correction             0.096195468
------------------   -----------------

-------------------------   --------------------
FINAL SINGLE POINT ENERGY      -311.518066689908
-------------------------   --------------------


------------------------------------------------------------------------------
                              ORCA PROPERTY CALCULATIONS
------------------------------------------------------------------------------

GBWName                                 ... sp.gbw
Number of atoms                         ...     21
Number of basis functions               ...    126
Max core memory                         ...   1024 MB

Electric properties:
Dipole moment                           ... YES
Quadrupole moment                       ...  NO
Static polarizability (Dipole/Dipole)   ...  NO
Static polarizability (Dipole/Quad.)    ...  NO
Static polarizability (Quad./Quad.)     ...  NO
Static polarizability (Velocity)        ...  NO

Atomic electric properties:
Dipole moment                           ...  NO
Quadrupole moment                       ...  NO
Static polarizability                   ...  NO

Choice of electric origin               ... Center of mass
Position of electric origin             ...    -0.000007     0.000007    -0.000016

General magnetic properties:
Magnetizability                         ...  NO

EPR properties:
g-Tensor (aka g-matrix)                 ...  NO
Zero-Field splitting spin-orbit         ...  NO
Zero-field splitting spin-spin          ...  NO
Hyperfine couplings                     ...  NO (   0 nuclei)
Quadrupole couplings                    ...  NO (   0 nuclei)
Contact density                         ...  NO (   0 nuclei)

NMR properties:
Chemical shifts                         ...  NO (   0 nuclei)
Spin-rotation constants                 ...  NO (   0 nuclei)
Spin-spin couplings                     ...  NO (   0 nuclei,    0 pairs)

Choice of magnetic origin               ... GIAO
Position of magnetic origin             ...     0.000000     0.000000     0.000000

Properties with geometric perturbations:
SCF Hessian                             ...  NO
IR spectrum                             ...  NO
VCD spectrum                            ...  NO
X-ray spectroscopy properties:
SCF XES/XAS/RIXS spectra                ...  NO


-------------
DIPOLE MOMENT
-------------

Method             : SCF
Type of density    : Electron Density
Multiplicity       :   1
Irrep              :   0
Energy             :  -311.5972296566397404 Eh
Relativity type    : 
Basis              : AO
                                X                 Y                 Z
Electronic contribution:      1.470455426      -1.969278181       2.762362235
Nuclear contribution   :     -1.005451469       2.141463712      -2.926791189
                        -----------------------------------------
Total Dipole Moment    :      0.465003957       0.172185531      -0.164428954
                        -----------------------------------------
Magnitude (a.u.)       :      0.522411158
Magnitude (Debye)      :      1.327863636



--------------------
Rotational spectrum 
--------------------
 
Rotational constants in cm-1:             0.131377             0.056544             0.053534 
Rotational constants in MHz :          3938.576804          1695.144851          1604.913076 

Dipole components along the rotational axes: 
x,y,z [a.u.] :    -0.426183     0.271046    -0.133477 
x,y,z [Debye]:    -1.083271     0.688943    -0.339270 

 

Dipole moment calculation done in   0.0 sec 

Maximum memory used throughout the entire PROP-calculation: 7.8 MB

--------------------------------
SUGGESTED CITATIONS FOR THIS RUN
--------------------------------

Below you find a list of papers that are relevant to this ORCA run
We neither can nor want to force you to cite these papers, but we appreciate if you do
You receive ORCA, which is the product of decades of hard work by many enthusiastic individuals, for free
The only thing we kindly ask in return is that you cite our papers,
We deeply appreciate it, if you show your appreciation for ORCA by not just citing the generic ORCA reference.

Please note that relegating all ORCA citations to the supporting information does *not* help us.
SI sections are not indexed - citations you put there will not count into any citation statistics
But we need these citations in order to attract the funding resources that allow us to do what we are doing

Therefore, if you are a happy ORCA user, please consider citing a few of the papers listed below in the main body of your paper

In addition to the list printed below, the program has created the file sp.bibtex that contains the list in bibtex format
You can import this file easily into all common literature databanks and citation aid programs


List of essential papers. We consider these as the minimum necessary citations

  1. Neese,F.
     Software update: the ORCA program system, version 5.0
     WIRES Comput. Molec. Sci., 2022 12(1)e1606
     doi.org/10.1002/wcms.1606

List of papers to cite with high priority. The work reported in these papers was absolutely
necessary for this run to complete.
Our perspective: the developers of density functionals and basis sets usually get cited in chemistry papers
Good! But without the algorithms to do something with them, the functionals or basis sets would not do anything.
Hence, in our opinion, the algorithm design and method developments papers are equally worthy of getting cited

  1. Neese,F.
     An improvement of the resolution of the identity approximation for the formation of the Coulomb matrix
     J. Comp. Chem., 2003 24(14)1740-1747
     doi.org/10.1002/jcc.10318
  2. Neese,F.
     The SHARK Integral Generation and Digestion System
     J. Comp. Chem., 2022  1-16
     doi.org/10.1002/jcc.26942
  3. Caldeweyher,E.; Bannwarth,C.; Grimme,S.
     Extension of the D3 dispersion coefficient model
     J. Chem. Phys., 2017 147 034112-XXXX
     doi.org/10.1063/1.4993215
  4. Caldeweyher,E.; Ehlert,S.; Hansen,A.; Neugebauer,H.; Spicher,S.; Bannwarth,C.; Grimme,S.
     A generally applicable atomic-charge dependent London dispersion correction
     J. Chem. Phys., 2019 150 154122-XXXX
     doi.org/10.1063/1.5090222
  5. Caldeweyher,E.; Mewes,J.; Ehlert,S.; Grimme,S.
     Extension and evaluation of the D4 London-dispersion model for periodic systems
     Phys. Chem. Chem. Phys., 2020 22(16)8499-8512
     doi.org/10.1039/D0CP00502A

List of suggested additional citations. These are papers that are important in the 'surrounding' of 
of this run, or papers that preceded the highly important papers. If you like your results we are grateful for a citation.

  1. Neese,F.
     The ORCA program system
     WIRES Comput. Molec. Sci., 2012 2(1)73-78
     doi.org/10.1002/wcms.81
  2. Neese,F.
     Software update: the ORCA program system, version 4.0
     WIRES Comput. Molec. Sci., 2018 8(1)1-6
     doi.org/10.1002/wcms.1327
  3. Neese,F.; Wennmohs,F.; Becker,U.; Riplinger,C.
     The ORCA quantum chemistry program package
     J. Chem. Phys., 2020 152 Art. No. L224108
     doi.org/10.1063/5.0004608

List of optional additional citations

  1. Neese,F.
     Approximate second-order SCF convergence for spin unrestricted wavefunctions
     Chem. Phys. Lett., 2000 325(1-3)93-98
     doi.org/10.1016/s0009-2614(00)00662-x

Timings for individual modules:

Sum of individual times          ...        7.721 sec (=   0.129 min)
Startup calculation              ...        0.710 sec (=   0.012 min)   9.2 %
SCF iterations                   ...        6.915 sec (=   0.115 min)  89.6 %
Property calculations            ...        0.095 sec (=   0.002 min)   1.2 %
                             ****ORCA TERMINATED NORMALLY****
TOTAL RUN TIME: 0 days 0 hours 0 minutes 8 seconds 360 msec
