      -----------------------------------------------------------      
     |                   =====================                   |     
     |                           x T B                           |     
     |                   =====================                   |     
     |                         S. Grimme                         |     
     |          Mulliken Center for Theoretical Chemistry        |     
     |                    University of Bonn                     |     
      -----------------------------------------------------------      

   * xtb version 6.7.1 (edcfbbe) compiled by 'albert@albert-system' on 2024-07-22

   xtb is free software: you can redistribute it and/or modify it under
   the terms of the GNU Lesser General Public License as published by
   the Free Software Foundation, either version 3 of the License, or
   (at your option) any later version.
   
   xtb is distributed in the hope that it will be useful,
   but WITHOUT ANY WARRANTY; without even the implied warranty of
   MERCHANTABILITY or FITNESS FOR A PARTICULAR PURPOSE.  See the
   GNU Lesser General Public License for more details.
   
   Cite this work as:
   * C. Bannwarth, E. Caldeweyher, S. Ehlert, A. Hansen, P. Pracht,
     J. Seibert, S. Spicher, S. Grimme, WIREs Comput. Mol. Sci., 2020, 11,
     e01493. DOI: 10.1002/wcms.1493
   
   for GFN2-xTB:
   * C. Bannwarth, S. Ehlert and S. Grimme., J. Chem. Theory Comput., 2019,
     15, 1652-1671. DOI: 10.1021/acs.jctc.8b01176
   for GFN1-xTB:
   * S. Grimme, C. Bannwarth, P. Shushkov, J. Chem. Theory Comput., 2017,
     13, 1989-2009. DOI: 10.1021/acs.jctc.7b00118
   for GFN0-xTB:
   * P. Pracht, E. Caldeweyher, S. Ehlert, S. Grimme, ChemRxiv, 2019, preprint.
     DOI: 10.26434/chemrxiv.8326202.v1
   for GFN-FF:
   * S. Spicher and S. Grimme, Angew. Chem. Int. Ed., 2020, 59, 15665-15673.
     DOI: 10.1002/anie.202004239
   
   for ALPB and GBSA implicit solvation:
   * S. Ehlert, M. Stahn, S. Spicher, S. Grimme, J. Chem. Theory Comput.,
     2021, 17, 4250-4261. DOI: 10.1021/acs.jctc.1c00471
   
   for ddCOSMO and CPCM-X implicit solvation:
   * M. Stahn, S. Ehlert, S. Grimme, J. Phys. Chem. A,
     2023, XX, XXXX-XXXX. DOI: 10.1021/acs.jpca.3c04382
   
   for DFT-D4:
   * E. Caldeweyher, C. Bannwarth and S. Grimme, J. Chem. Phys., 2017,
     147, 034112. DOI: 10.1063/1.4993215
   * E. Caldeweyher, S. Ehlert, A. Hansen, H. Neugebauer, S. Spicher,
     C. Bannwarth and S. Grimme, J. Chem. Phys., 2019, 150, 154122.
     DOI: 10.1063/1.5090222
   * E. Caldeweyher, J.-M. Mewes, S. Ehlert and S. Grimme, Phys. Chem. Chem. Phys.
     2020, 22, 8499-8512. DOI: 10.1039/D0CP00502A
   
   for sTDA-xTB:
   * S. Grimme and C. Bannwarth, J. Chem. Phys., 2016, 145, 054103.
     DOI: 10.1063/1.4959605
   
   in the mass-spec context:
   * V. Asgeirsson, C. Bauer and S. Grimme, Chem. Sci., 2017, 8, 4879.
     DOI: 10.1039/c7sc00601b
   * J. Koopman and S. Grimme, ACS Omega 2019, 4, 12, 15120-15133.
     DOI: 10.1021/acsomega.9b02011
   
   for metadynamics refer to:
   * S. Grimme, J. Chem. Theory Comput., 2019, 155, 2847-2862
     DOI: 10.1021/acs.jctc.9b00143
   
   for SPH calculations refer to:
   * S. Spicher and S. Grimme, J. Chem. Theory Comput., 2021, 17, 1701-1714
     DOI: 10.1021/acs.jctc.0c01306
   
   for ONIOM refer to:
   * C. Plett, A. Katbashev, S. Ehlert, S. Grimme, M. Bursch,
     Phys. Chem. Chem. Phys., 2023, 25, 17860-17868. DOI: 10.1039/D3CP02178E
   
   for DIPRO refer to:
   * J. Kohn, N. Gildemeister, S. Grimme, D. Fazzi, A. Hansen,
     J. Chem. Phys., 2023, just accepted.
   
   for PTB refer to:
   * S. Grimme, M. Mueller, A. Hansen, J. Chem. Phys., 2023, 158, 124111.
     DOI: 10.1063/5.0137838
   
   with help from (in alphabetical order)
   P. Atkinson, C. Bannwarth, F. Bohle, G. Brandenburg, E. Caldeweyher
   M. Checinski, S. Dohm, S. Ehlert, S. Ehrlich, I. Gerasimov, C. Hölzer
   A. Katbashev, J. Kohn, J. Koopman, C. Lavigne, S. Lehtola, F. März, M. Müller,
   F. Musil, H. Neugebauer, J. Pisarek, C. Plett, P. Pracht, F. Pultar,
   J. Seibert, P. Shushkov, S. Spicher, M. Stahn, M. Steiner, T. Strunk,
   J. Stückrath, T. Rose, and J. Unsleber
   
 * started run on 2025/04/11 at 11:30:07.453     
   ID    Z sym.   atoms
    1    6 C      1-4, 6-8
    2    8 O      5
    3    1 H      9-22

           -------------------------------------------------
          |                Calculation Setup                |
           -------------------------------------------------

          program call               : /srv/scratch/z5358697/.xtb/bin/xtb xtb_opt.coord --opt normal --orca -I xtb_opt-xcontrol-inp
          hostname                   : k022
          coordinate file            : xtb_opt.coord
          omp threads                :                    10

           -------------------------------------------------
          |                   Orca driver                   |
           -------------------------------------------------
orca executable           : /apps/z_install_tree/linux-rocky8-ivybridge/gcc-12.2.0/orca-6.0.0-srtngmq3qlimg2qxbl6avaaiffipurdx/bin/orca
orca input file           : xtb_opt.inp
orca input line           : 
orca parallel             : true
orca number of threads    : 10
                         * ORCA takes the control...
  ------------------------------------------------------------------------

                                 *****************
                                 * O   R   C   A *
                                 *****************

                                            #,                                       
                                            ###                                      
                                            ####                                     
                                            #####                                    
                                            ######                                   
                                           ########,                                 
                                     ,,################,,,,,                         
                               ,,#################################,,                 
                          ,,##########################################,,             
                       ,#########################################, ''#####,          
                    ,#############################################,,   '####,        
                  ,##################################################,,,,####,       
                ,###########''''           ''''###############################       
              ,#####''   ,,,,##########,,,,          '''####'''          '####       
            ,##' ,,,,###########################,,,                        '##       
           ' ,,###''''                  '''############,,,                           
         ,,##''                                '''############,,,,        ,,,,,,###''
      ,#''                                            '''#######################'''  
     '                                                          ''''####''''         
             ,#######,   #######,   ,#######,      ##                                
            ,#'     '#,  ##    ##  ,#'     '#,    #''#        ,####,   ,####,        
            ##       ##  ##   ,#'  ##            #'  '#       #'       #'  '#        
            ##       ##  #######   ##           ,######,      #####,   #    #        
            '#,     ,#'  ##    ##  '#,     ,#' ,#      #,     #,   #   #,  ,#        
             '#######'   ##     ##  '#######'  #'      '#     '####' # '####'        



                #########################################################
                #                        -***-                          #
                #          Department of theory and spectroscopy        #
                #                                                       #
                #                      Frank Neese                      #
                #                                                       #
                #     Directorship, Architecture, Infrastructure        #
                #                    SHARK, DRIVERS                     #
                #        Core code/Algorithms in most modules           #
                #                                                       #
                #        Max Planck Institute fuer Kohlenforschung      #
                #                Kaiser Wilhelm Platz 1                 #
                #                 D-45470 Muelheim/Ruhr                 #
                #                      Germany                          #
                #                                                       #
                #                  All rights reserved                  #
                #                        -***-                          #
                #########################################################


                         Program Version 6.0.0  -   RELEASE  -


 With contributions from (in alphabetic order):
   Daniel Aravena         : Magnetic Suceptibility
   Michael Atanasov       : Ab Initio Ligand Field Theory (pilot matlab implementation)
   Alexander A. Auer      : GIAO ZORA, VPT2 properties, NMR spectrum
   Ute Becker             : All parallelization in ORCA, NUMFREQ, NUMCALC
   Giovanni Bistoni       : ED, misc. LED, open-shell LED, HFLD
   Martin Brehm           : Molecular dynamics
   Dmytro Bykov           : pre 5.0 version of the SCF Hessian
   Marcos Casanova-Páez   : Triplet and SCS-CIS(D). UHF-(DLPNO)-IP/EA/STEOM-CCSD. UHF-CVS-IP/STEOM-CCSD
   Vijay G. Chilkuri      : MRCI spin determinant printing, contributions to CSF-ICE
   Pauline Colinet        : FMM embedding
   Dipayan Datta          : RHF DLPNO-CCSD density
   Achintya Kumar Dutta   : EOM-CC, STEOM-CC
   Nicolas Foglia         : Exact transition moments, OPA infrastructure, MCD improvements
   Dmitry Ganyushin       : Spin-Orbit,Spin-Spin,Magnetic field MRCI
   Miquel Garcia          : C-PCM and meta-GGA Hessian, CCSD/C-PCM, Gaussian charge scheme
   Tiago L. C. Gouveia    : GS-ROHF, GS-ROCIS
   Yang Guo               : DLPNO-NEVPT2, F12-NEVPT2, CIM, IAO-localization
   Andreas Hansen         : Spin unrestricted coupled pair/coupled cluster methods
   Ingolf Harden          : AUTO-CI MPn and infrastructure 
   Benjamin Helmich-Paris : MC-RPA, TRAH-(SCF,CASSCF), AVAS, COSX integrals, SCF dyn. polar.
   Lee Huntington         : MR-EOM, pCC
   Robert Izsak           : Overlap fitted RIJCOSX, COSX-SCS-MP3, EOM
   Riya Kayal             : Wick's Theorem for AUTO-CI, AUTO-CI UHF-CCSDT
   Emily Kempfer          : AUTO-CI, RHF CISDT and CCSDT
   Christian Kollmar      : KDIIS, OOCD, Brueckner-CCSD(T), CCSD density, CASPT2, CASPT2-K, improved NEVPT2
   Axel Koslowski         : Symmetry handling
   Simone Kossmann        : Meta GGA functionals, TD-DFT gradient, OOMP2, (MP2 Hessian; deprecated post 5.0)
   Lucas Lang             : DCDCAS
   Marvin Lechner         : AUTO-CI (C++ implementation), FIC-MRCC
   Spencer Leger          : CASSCF response
   Dagmar Lenk            : GEPOL surface, SMD, ORCA-2-JSON
   Dimitrios Liakos       : Extrapolation schemes; Compound Job, initial MDCI parallelization
   Dimitrios Manganas     : Further ROCIS development; embedding schemes. LFT, Crystal Embedding
   Dimitrios Pantazis     : SARC Basis sets
   Anastasios Papadopoulos: AUTO-CI, single reference methods and gradients
   Taras Petrenko         : pre 6.0 DFT Hessian and TD-DFT gradient, (ASA, deprecated), ECA, 1-Electron XAS/XES, NRVS
   Peter Pinski           : DLPNO-MP2, DLPNO-MP2 Gradient
   Christoph Reimann      : Effective Core Potentials
   Marius Retegan         : Local ZFS, SOC
   Christoph Riplinger    : Optimizer, TS searches, QM/MM, DLPNO-CCSD(T), (RO)-DLPNO pert. Triples
   Michael Roemelt        : Original ROCIS implementation
   Masaaki Saitow         : Open-shell DLPNO-CCSD energy and density
   Barbara Sandhoefer     : DKH picture change effects
   Kantharuban Sivalingam : CASSCF convergence/infrastructure, NEVPT2 and variants, FIC-MRCI
   Bernardo de Souza      : ESD, SOC TD-DFT
   Georgi Stoychev        : AutoAux, RI-MP2 NMR, DLPNO-MP2 response, X2C
   Van Anh Tran           : RI-MP2 g-tensors
   Willem Van den Heuvel  : Paramagnetic NMR
   Zikuan Wang            : NOTCH, Electric field optimization 
   Frank Wennmohs         : Technical directorship and infrastructure
   Hang Xu                : AUTO-CI-Response properties 


 We gratefully acknowledge several colleagues who have allowed us to
 interface, adapt or use parts of their codes:
   Stefan Grimme, W. Hujo, H. Kruse, P. Pracht,  : VdW corrections, initial TS optimization,
                  C. Bannwarth, S. Ehlert,         DFT functionals, gCP, sTDA/sTD-DF
                  L. Wittmann, M. Mueller
   Ed Valeev, F. Pavosevic, A. Kumar             : LibInt (2-el integral package), F12 methods
   Garnet Chan, S. Sharma, J. Yang, R. Olivares  : DMRG
   Ulf Ekstrom                                   : XCFun DFT Library
   Mihaly Kallay                                 : mrcc  (arbitrary order and MRCC methods)
   Frank Weinhold                                : gennbo (NPA and NBO analysis)
   Simon Mueller                                 : openCOSMO-RS
   Christopher J. Cramer and Donald G. Truhlar   : smd solvation model
   Lars Goerigk                                  : TD-DFT with DH, B97 family of functionals
   V. Asgeirsson, H. Jonsson                     : NEB implementation
   FAccTs GmbH                                   : IRC, NEB, NEB-TS, DLPNO-Multilevel, CI-OPT
                                                   MM, QMMM, 2- and 3-layer-ONIOM, Crystal-QMMM,
                                                   LR-CPCM, SF, NACMEs, symmetry and pop. for TD-DFT,
                                                   nearIR, NL-DFT gradient (VV10), updates on ESD,
                                                   ML-optimized integration grids, MBIS, APM,
                                                   GOAT, DOCKER, SOLVATOR, interface openCOSMO-RS
   S Lehtola, MJT Oliveira, MAL Marques          : LibXC Library
   Liviu Ungur et al                             : ANISO software


 Your calculation uses the libint2 library for the computation of 2-el integrals
 For citations please refer to: http://libint.valeyev.net

 Your ORCA version has been built with support for libXC version: 6.2.2
 For citations please refer to: https://libxc.gitlab.io

 This ORCA versions uses:
   CBLAS   interface :  Fast vector & matrix operations
   LAPACKE interface :  Fast linear algebra routines
   SCALAPACK package :  Parallel linear algebra routines
   Shared memory     :  Shared parallel matrices
   BLAS/LAPACK       :  OpenBLAS 0.3.27  USE64BITINT DYNAMIC_ARCH NO_AFFINITY SkylakeX SINGLE_THREADED
        Core in use  :  SkylakeX
   Copyright (c) 2011-2014, The OpenBLAS Project




***************************************
The coordinates will be read from file: xtb_opt.xyz
***************************************


Your calculation utilizes the geometrical counterpoise correction gCP
Please cite in your paper:
H.Kruse, S. Grimme J.Chem.Phys., 136, (2012), 154101 
   

Your calculation utilizes the atom-pairwise dispersion correction
based on EEQ partial charges (D4)


Your calculation utilizes the SMD solvation module
Please cite in your paper:
A.V. Marenich, C.J. Cramer, D.G. Truhlar J. Phys. Chem. B, 113, (2009), 6378 

================================================================================

----- Orbital basis set information -----
Your calculation utilizes the basis: def2-mTZVPP
   Stefan Grimme, Andreas Hansen, Sebastian Ehlert, and Jan-Michael Mewes 
   J. Chem. Phys. 154, 064103 (2021). DOI: 10.1063/5.0040021

----- AuxJ basis set information -----
Your calculation utilizes the auxiliary basis: def2/J
   F. Weigend, Phys. Chem. Chem. Phys. 8, 1057 (2006).

================================================================================
                                        WARNINGS
                       Please study these warnings very carefully!
================================================================================

WARNING: Old DensityContainer found on disk!
         Will remove this file - 
         If you want to keep old densities, please start your calculation with a different basename. 

Using LibXC functional ID 497 : Re-regularized SCAN exchange by Furness et al
[ 1]  J. W. Furness, A. D. Kaplan, J. Ning, J. P. Perdew, and J. Sun.,  J. Phys. Chem. Lett. 11, 8208-8215 (2020)
[ 2]  J. W. Furness, A. D. Kaplan, J. Ning, J. P. Perdew, and J. Sun.,  J. Phys. Chem. Lett. 11, 9248-9248 (2020)
Using LibXC functional ID 498 : Re-regularized SCAN correlation by Furness et al
[ 1]  J. W. Furness, A. D. Kaplan, J. Ning, J. P. Perdew, and J. Sun.,  J. Phys. Chem. Lett. 11, 8208-8215 (2020)
[ 2]  J. W. Furness, A. D. Kaplan, J. Ning, J. P. Perdew, and J. Sun.,  J. Phys. Chem. Lett. 11, 9248-9248 (2020)
Using LibXC functional ID 497 : Re-regularized SCAN exchange by Furness et al
[ 1]  J. W. Furness, A. D. Kaplan, J. Ning, J. P. Perdew, and J. Sun.,  J. Phys. Chem. Lett. 11, 8208-8215 (2020)
[ 2]  J. W. Furness, A. D. Kaplan, J. Ning, J. P. Perdew, and J. Sun.,  J. Phys. Chem. Lett. 11, 9248-9248 (2020)
Using LibXC functional ID 498 : Re-regularized SCAN correlation by Furness et al
[ 1]  J. W. Furness, A. D. Kaplan, J. Ning, J. P. Perdew, and J. Sun.,  J. Phys. Chem. Lett. 11, 8208-8215 (2020)
[ 2]  J. W. Furness, A. D. Kaplan, J. Ning, J. P. Perdew, and J. Sun.,  J. Phys. Chem. Lett. 11, 9248-9248 (2020)

================================================================================
                                       INPUT FILE
================================================================================
NAME = xtb_opt.inp
|  1> ! r2scan-3c def2/J RI DEFGRID2 scfconv7 ENGRAD tightSCF miniprint
|  2> %cpcm
|  3>     smd true
|  4>     smdsolvent "water"
|  5> end
|  6> * xyzfile 0 1 xtb_opt.xyz
|  7> 
|  8>                          ****END OF INPUT****
================================================================================

                     *******************************
                     * Energy+Gradient Calculation *
                     *******************************

---------------------------------
CARTESIAN COORDINATES (ANGSTROEM)
---------------------------------
  C      2.352746    0.912787    0.472822
  C      1.160108   -0.037057    0.481056
  C      1.475615   -1.318432   -0.317164
  C     -0.079367    0.598850   -0.113914
  O      0.012191    1.565451   -0.867447
  C     -1.462303    0.021190    0.166201
  C     -1.575923   -0.858638    1.408528
  C     -1.961009   -0.715320   -1.090892
  H      3.204722    0.438685    0.969055
  H      2.124307    1.844822    0.998565
  H      2.650364    1.162075   -0.550016
  H      0.929268   -0.330032    1.511200
  H      1.662007   -1.073512   -1.368406
  H      2.377533   -1.783407    0.092469
  H      0.666014   -2.050286   -0.270742
  H     -2.101335    0.904161    0.298395
  H     -0.992277   -1.779433    1.310272
  H     -1.245519   -0.332664    2.309360
  H     -2.622502   -1.144582    1.554314
  H     -1.891320   -0.077746   -1.976735
  H     -1.381775   -1.626539   -1.269764
  H     -3.008564   -1.000848   -0.954332

----------------------------
CARTESIAN COORDINATES (A.U.)
----------------------------
  NO LB      ZA    FRAG     MASS         X           Y           Z
   0 C     6.0000    0    12.011    4.446045    1.724918    0.893505
   1 C     6.0000    0    12.011    2.192286   -0.070028    0.909065
   2 C     6.0000    0    12.011    2.788508   -2.491475   -0.599353
   3 C     6.0000    0    12.011   -0.149981    1.131662   -0.215267
   4 O     8.0000    0    15.999    0.023038    2.958273   -1.639237
   5 C     6.0000    0    12.011   -2.763353    0.040044    0.314075
   6 C     6.0000    0    12.011   -2.978063   -1.622591    2.661732
   7 C     6.0000    0    12.011   -3.705770   -1.351759   -2.061488
   8 H     1.0000    0     1.008    6.056046    0.828995    1.831248
   9 H     1.0000    0     1.008    4.014358    3.486209    1.887014
  10 H     1.0000    0     1.008    5.008462    2.196004   -1.039380
  11 H     1.0000    0     1.008    1.756061   -0.623670    2.855754
  12 H     1.0000    0     1.008    3.140738   -2.028644   -2.585912
  13 H     1.0000    0     1.008    4.492887   -3.370152    0.174741
  14 H     1.0000    0     1.008    1.258584   -3.874478   -0.511628
  15 H     1.0000    0     1.008   -3.970947    1.708616    0.563886
  16 H     1.0000    0     1.008   -1.875132   -3.362641    2.476055
  17 H     1.0000    0     1.008   -2.353691   -0.628644    4.364058
  18 H     1.0000    0     1.008   -4.955811   -2.162947    2.937227
  19 H     1.0000    0     1.008   -3.574077   -0.146919   -3.735487
  20 H     1.0000    0     1.008   -2.611176   -3.073713   -2.399507
  21 H     1.0000    0     1.008   -5.685362   -1.891328   -1.803426

------------------------------------------------------------------------------
                   ___                                                        
                  /   \      - P O W E R E D   B Y -                         
                 /     \                                                     
                 |  |  |   _    _      __       _____    __    __             
                 |  |  |  | |  | |    /  \     |  _  \  |  |  /  |          
                  \  \/   | |  | |   /    \    | | | |  |  | /  /          
                 / \  \   | |__| |  /  /\  \   | |_| |  |  |/  /          
                |  |  |   |  __  | /  /__\  \  |    /   |      \           
                |  |  |   | |  | | |   __   |  |    \   |  |\   \          
                \     /   | |  | | |  |  |  |  | |\  \  |  | \   \       
                 \___/    |_|  |_| |__|  |__|  |_| \__\ |__|  \__/        
                                                                              
                      - O R C A' S   B I G   F R I E N D -                    
                                      &                                       
                       - I N T E G R A L  F E E D E R -                       
                                                                              
 v1 FN, 2020, v2 2021, v3 2022-2024                                           
------------------------------------------------------------------------------


----------------------
SHARK INTEGRAL PACKAGE
----------------------

Number of atoms                             ...     22
Number of basis functions                   ...    227
Number of shells                            ...    115
Maximum angular momentum                    ...      2
Integral batch strategy                     ... SHARK/LIBINT Hybrid
RI-J (if used) integral strategy            ... SPLIT-RIJ (Revised 2003 algorithm where possible)
Printlevel                                  ...      1
Contraction scheme used                     ... SEGMENTED contraction
Prescreening option                         ... SCHWARTZ
   Thresh                                   ... 3.000e-11
   Tcut                                     ... 1.000e-12
   Tpresel                                  ... 1.000e-12 
Coulomb Range Separation                    ... NOT USED
Exchange Range Separation                   ... NOT USED
Multipole approximations                    ... NOT USED
Finite Nucleus Model                        ... NOT USED
CABS basis                                  ... NOT available
Auxiliary Coulomb fitting basis             ... AVAILABLE
   # of basis functions in Aux-J            ...    546
   # of shells in Aux-J                     ...    190
   Maximum angular momentum in Aux-J        ...      4
Auxiliary J/K fitting basis                 ... NOT available
Auxiliary Correlation fitting basis         ... NOT available
Auxiliary 'external' fitting basis          ... NOT available

Checking pre-screening integrals            ... done (  0.0 sec) Dimension = 115
Check shell pair data                       ... done (  0.0 sec)
Shell pair information
Shell pair cut-off parameter TPreSel        ...   1.0e-12
Total number of shell pairs                 ...      6670
Shell pairs after pre-screening             ...      6130
Total number of primitive shell pairs       ...     23438
Primitive shell pairs kept                  ...     15428
          la=0 lb=0:   2131 shell pairs
          la=1 lb=0:   2367 shell pairs
          la=1 lb=1:    684 shell pairs
          la=2 lb=0:    579 shell pairs
          la=2 lb=1:    325 shell pairs
          la=2 lb=2:     44 shell pairs

Calculating one electron integrals          ... done (  0.0 sec)
Calculating RI/J V-Matrix + Cholesky decomp.... done (  0.1 sec)
Calculating Nuclear repulsion               ... done (  0.0 sec) ENN=    401.598714695069 Eh

Diagonalization of the overlap matrix:
Smallest eigenvalue                        ... 1.305e-04
Time for diagonalization                   ...    0.005 sec
Threshold for overlap eigenvalues          ... 1.000e-07
Number of eigenvalues below threshold      ... 0
Time for construction of square roots      ...    0.017 sec
Total time needed                          ...    0.037 sec

-------------------
DFT GRID GENERATION
-------------------

General Integration Accuracy     IntAcc      ... 4.388
Radial Grid Type                 RadialGrid  ... OptM3 with GC (2021)
Angular Grid (max. ang.)         AngularGrid ... 4 (Lebedev-302)
Angular grid pruning method      GridPruning ... 4 (adaptive)
Weight generation scheme         WeightScheme... mBecke (2022)
Basis function cutoff            BFCut       ... 1.0000e-11
Integration weight cutoff        WCut        ... 1.0000e-14
Partially contracted basis set               ... off
Rotationally invariant grid construction     ... off
Angular grids for H and He will be reduced by one unit
Diffuse basis detected: some atoms will have their outermost
                        angular grid increased by 1.

Total number of grid points                  ...    92995
Total number of batches                      ...     1464
Average number of points per batch           ...       63
Average number of grid points per atom       ...     4227
Initializing property integral containers    ... done (  0.0 sec)

SHARK setup successfully completed in   1.4 seconds

Maximum memory used throughout the entire STARTUP-calculation: 42.5 MB
Occupation numbers will be reassigned to an Aufbau configuration
             **** ENERGY FILE WAS UPDATED (xtb_opt.en.tmp) ****
Finished Guess after   0.3 sec
Maximum memory used throughout the entire GUESS-calculation: 16.1 MB
--------------------
CPCM SOLVATION MODEL
--------------------
CPCM parameters:
  Epsilon                                         ...      78.3550
  Refrac                                          ...       1.3328
  Rsolv                                           ...       1.3000
  Surface type                                    ... GAUSSIAN VDW
  Discretization scheme                           ... Constant charge density
    Threshold for H atoms                         ...       5.0000 (charges/Ang^2)
    Threshold for non-H atoms                     ...       5.0000 (charges/Ang^2)
  Epsilon function type                           ...         CPCM
Solvent:                                          ... WATER
SMD-CDS solvent descriptors:
  Soln                                            ...       1.3328
  Soln25                                          ...       1.3323
  Sola                                            ...       0.0000
  Solb                                            ...       0.0000
  Solg                                            ...       0.0000
  Solc                                            ...       0.0000
  Solh                                            ...       0.0000
Radii:
  Scheme                                          ... Element-dependent radii
  Radius for C  used is    3.4960 Bohr (=   1.8500 Ang.)
  Radius for O  used is    2.8724 Bohr (=   1.5200 Ang.)
  Radius for H  used is    2.2677 Bohr (=   1.2000 Ang.)
Calculating surface                               ...        done! (  0.0s)
Cavity surface points                             ...         1629
Cavity Volume                                     ...     939.6332
Cavity Surface-area                               ...     604.9319
Calculating surface distance matrix               ...        done! (  0.0s)
Performing Cholesky decomposition & store         ...        done! (  0.1s)
Overall time for CPCM initialization              ...                 0.1s

----------------------------------------D-I-I-S--------------------------------------------
Iteration    Energy (Eh)           Delta-E    RMSDP     MaxDP     DIISErr   Damp  Time(sec)
-------------------------------------------------------------------------------------------
               ***  Starting incremental Fock matrix formation  ***
                              *** Initializing SOSCF ***
---------------------------------------S-O-S-C-F--------------------------------------
Iteration    Energy (Eh)           Delta-E    RMSDP     MaxDP     MaxGrad    Time(sec)
--------------------------------------------------------------------------------------
    1    -350.3194554915846766     0.00e+00  1.36e-06  6.20e-05  3.35e-06     4.0
               *** Restarting incremental Fock matrix formation ***
    2    -350.3194554925390776    -9.54e-10  1.96e-06  9.89e-05  9.56e-06     3.9
                  *** Gradient check signals convergence ***

               *****************************************************
               *                     SUCCESS                       *
               *           SCF CONVERGED AFTER   2 CYCLES          *
               *****************************************************


SMD CDS free energy correction energy :                 4.71986     Kcal/mol
Total Energy after SMD CDS correction =              -350.311933910 Eh
             **** ENERGY FILE WAS UPDATED (xtb_opt.en.tmp) ****

----------------
TOTAL SCF ENERGY
----------------

Total Energy       :       -350.31193391017246 Eh           -9532.47234 eV

Components:
Nuclear Repulsion  :        401.59871469506913 Eh           10928.05660 eV
Electronic Energy  :       -751.90059031025828 Eh          -20460.25524 eV
One Electron Energy:      -1269.24514757964994 Eh          -34537.91634 eV
Two Electron Energy:        517.34455726939166 Eh           14077.66110 eV
CPCM Dielectric    :         -0.01757987734991 Eh              -0.47837 eV
SMD CDS (Gcds)     :          0.00752158236661 Eh               0.20467 eV

Virial components:
Potential Energy   :       -698.88234765929872 Eh          -19017.55551 eV
Kinetic Energy     :        348.57041374912626 Eh            9485.08317 eV
Virial Ratio       :          2.00499617894220

DFT components:
N(Alpha)           :       31.999946486900 electrons
N(Beta)            :       31.999946486900 electrons
N(Total)           :       63.999892973800 electrons
E(X)               :      -49.655242741902 Eh       
E(C)               :       -2.006576606470 Eh       
E(XC)              :      -51.661819348372 Eh       

CPCM Solvation Model Properties:
Surface-charge          :         -0.04966531527289
Corrected charge        :         -0.00000000000000
Outlying charge corr.   :          0.00018775657315 Eh               0.00511 eV
Free-energy (cav+disp)  :          0.00752158236661 Eh               0.20467 eV

---------------
SCF CONVERGENCE
---------------

  Last Energy change         ...    9.5440e-10  Tolerance :   1.0000e-07
  Last MAX-Density change    ...    9.8939e-05  Tolerance :   1.0000e-07
  Last RMS-Density change    ...    1.9599e-06  Tolerance :   5.0000e-09
  Last DIIS Error            ...    3.5929e-05  Tolerance :   1.0000e-07
  Last Orbital Gradient      ...    9.5627e-06  Tolerance :   1.0000e-04
  Last Orbital Rotation      ...    2.4815e-05  Tolerance :   1.0000e-04


----------------
ORBITAL ENERGIES
----------------

  NO   OCC          E(Eh)            E(eV) 
   0   2.0000     -18.944132      -515.4960 
   1   2.0000     -10.120232      -275.3855 
   2   2.0000     -10.041270      -273.2368 
   3   2.0000     -10.040313      -273.2108 
   4   2.0000     -10.022940      -272.7381 
   5   2.0000     -10.020912      -272.6829 
   6   2.0000     -10.016358      -272.5590 
   7   2.0000     -10.014880      -272.5187 
   8   2.0000      -1.007121       -27.4051 
   9   2.0000      -0.776211       -21.1218 
  10   2.0000      -0.750003       -20.4086 
  11   2.0000      -0.649043       -17.6614 
  12   2.0000      -0.647583       -17.6216 
  13   2.0000      -0.612306       -16.6617 
  14   2.0000      -0.559990       -15.2381 
  15   2.0000      -0.481216       -13.0945 
  16   2.0000      -0.447494       -12.1769 
  17   2.0000      -0.431540       -11.7428 
  18   2.0000      -0.416792       -11.3415 
  19   2.0000      -0.402548       -10.9539 
  20   2.0000      -0.379487       -10.3264 
  21   2.0000      -0.365835        -9.9549 
  22   2.0000      -0.354587        -9.6488 
  23   2.0000      -0.347800        -9.4641 
  24   2.0000      -0.344156        -9.3650 
  25   2.0000      -0.339854        -9.2479 
  26   2.0000      -0.326793        -8.8925 
  27   2.0000      -0.307923        -8.3790 
  28   2.0000      -0.303714        -8.2645 
  29   2.0000      -0.301737        -8.2107 
  30   2.0000      -0.291922        -7.9436 
  31   2.0000      -0.217825        -5.9273 
  32   0.0000      -0.054002        -1.4695 
  33   0.0000       0.077548         2.1102 
  34   0.0000       0.114930         3.1274 
  35   0.0000       0.122323         3.3286 
  36   0.0000       0.125704         3.4206 
  37   0.0000       0.134824         3.6688 
  38   0.0000       0.139995         3.8095 
  39   0.0000       0.147344         4.0094 
  40   0.0000       0.150790         4.1032 
  41   0.0000       0.156749         4.2654 
  42   0.0000       0.162498         4.4218 
*Only the first 10 virtual orbitals were printed.
Total SCF time: 0 days 0 hours 0 min 8 sec 
Finished LeanSCF after   8.7 sec

Maximum memory used throughout the entire LEANSCF-calculation: 34.6 MB


-------------------------------------------------------------------------------
                          DFT DISPERSION CORRECTION                            
                                                                               
                                DFTD4 V3.4.0                                   
-------------------------------------------------------------------------------
-------------------------   ----------------
Dispersion correction           -0.006551778
-------------------------   ----------------

------------------   -----------------
gCP correction             0.010413972
------------------   -----------------

-------------------------   --------------------
FINAL SINGLE POINT ENERGY      -350.308071716444
-------------------------   --------------------

------------------------------------------------------------------------------
                         ORCA SCF GRADIENT CALCULATION
------------------------------------------------------------------------------

Nuc. rep. gradient        (SHARK) ... done (  0.0 sec)
HCore & Overlap gradient  (SHARK) ... done (  0.4 sec)
Split-RIJ-J gradient      (SHARK) ... done (  1.9 sec)
XC gradient                       ... done (  8.1 sec)
CPCM gradient                     ... done (  1.2 sec)
SMD gradient                      ... done (  0.0 sec)
Dispersion correction             ... done (  0.0 sec)

-------------------
DISPERSION GRADIENT
-------------------

   1   C   :    0.000103350    0.000049660    0.000016707
   2   C   :    0.000071377    0.000007475    0.000021839
   3   C   :    0.000088393   -0.000070942   -0.000023783
   4   C   :   -0.000004268    0.000044020   -0.000013114
   5   O   :   -0.000003293    0.000107550   -0.000053660
   6   C   :   -0.000082953    0.000009348    0.000005217
   7   C   :   -0.000077573   -0.000035960    0.000078445
   8   C   :   -0.000094463   -0.000023182   -0.000061253
   9   H   :    0.000039486    0.000012516    0.000012638
  10   H   :    0.000034097    0.000031857    0.000011653
  11   H   :    0.000032964    0.000021409   -0.000001862
  12   H   :    0.000028203    0.000000539    0.000023286
  13   H   :    0.000040804   -0.000023725   -0.000023639
  14   H   :    0.000041290   -0.000032766   -0.000004542
  15   H   :    0.000030396   -0.000044162   -0.000010455
  16   H   :   -0.000035563    0.000017515    0.000000240
  17   H   :   -0.000030339   -0.000025686    0.000033241
  18   H   :   -0.000033744   -0.000005963    0.000049103
  19   H   :   -0.000035236   -0.000012489    0.000029758
  20   H   :   -0.000036336    0.000004255   -0.000037253
  21   H   :   -0.000036926   -0.000021506   -0.000031386
  22   H   :   -0.000039665   -0.000009765   -0.000021180

Difference to translation invariance:
           :    0.0000000000   -0.0000000000   -0.0000000000

Difference to rotation invariance:
           :    0.0000000000   -0.0000000000   -0.0000000000

Norm of the Dispersion gradient    ...    0.0003408045
RMS gradient                       ...    0.0000419501
MAX gradient                       ...    0.0001075504
gCP correction                   ... done

------------------
CARTESIAN GRADIENT
------------------

   1   C   :    0.000246565    0.000028732    0.000021910
   2   C   :    0.000030281   -0.000140638   -0.000012537
   3   C   :   -0.000014865    0.000091731    0.000085097
   4   C   :   -0.000154370   -0.000021115   -0.000025888
   5   O   :    0.000028543    0.000016404   -0.000013001
   6   C   :    0.000007113    0.000112214    0.000009511
   7   C   :   -0.000031905    0.000020266    0.000004198
   8   C   :   -0.000009878    0.000019266    0.000042247
   9   H   :   -0.000060477    0.000044435    0.000003926
  10   H   :   -0.000051513   -0.000015542   -0.000015160
  11   H   :   -0.000033934   -0.000033112    0.000028774
  12   H   :   -0.000021803   -0.000020938   -0.000013113
  13   H   :    0.000043810    0.000028698   -0.000063498
  14   H   :   -0.000021680   -0.000058593   -0.000011267
  15   H   :   -0.000015884   -0.000029832   -0.000081785
  16   H   :   -0.000028074    0.000002107   -0.000006034
  17   H   :    0.000040966   -0.000019146    0.000004703
  18   H   :    0.000040818    0.000031251    0.000036437
  19   H   :   -0.000021000    0.000000192    0.000042892
  20   H   :    0.000019746    0.000004293   -0.000037167
  21   H   :    0.000028409   -0.000046068    0.000010681
  22   H   :   -0.000020869   -0.000014605   -0.000010926

Difference to translation invariance:
           :    0.0000000000   -0.0000000000   -0.0000000000

Difference to rotation invariance:
           :    0.0000132611    0.0002043573   -0.0004023658

Norm of the Cartesian gradient     ...    0.0004333357
RMS gradient                       ...    0.0000533399
MAX gradient                       ...    0.0002465649

-------
TIMINGS
-------

Total SCF gradient time     ....       12.600 sec

Densities                   ....       0.001 sec  (  0.0%)
One electron gradient       ....       0.393 sec  (  3.1%)
RI-J Coulomb gradient       ....       1.919 sec  ( 15.2%)
XC gradient                 ....       8.102 sec  ( 64.3%)
CPCM gradient               ....       1.190 sec  (  9.4%)
   A-Matrix (El+Nuc)        ....       0.095 sec  (  0.8%)
   Potential                ....       1.095 sec  (  8.7%)
SMD gradient                ....       0.012 sec  (  0.1%)

Maximum memory used throughout the entire SCFGRAD-calculation: 36.4 MB

------------------------------------------------------------------------------
                              ORCA PROPERTY CALCULATIONS
------------------------------------------------------------------------------

GBWName                                 ... xtb_opt.gbw
Number of atoms                         ...     22
Number of basis functions               ...    227
Max core memory                         ...   1024 MB

Electric properties:
Dipole moment                           ... YES
Quadrupole moment                       ...  NO
Static polarizability (Dipole/Dipole)   ...  NO
Static polarizability (Dipole/Quad.)    ...  NO
Static polarizability (Quad./Quad.)     ...  NO
Static polarizability (Velocity)        ...  NO

Atomic electric properties:
Dipole moment                           ...  NO
Quadrupole moment                       ...  NO
Static polarizability                   ...  NO

Choice of electric origin               ... Center of mass
Position of electric origin             ...    -0.008501     0.022618     0.014684

General magnetic properties:
Magnetizability                         ...  NO

EPR properties:
g-Tensor (aka g-matrix)                 ...  NO
Zero-Field splitting spin-orbit         ...  NO
Zero-field splitting spin-spin          ...  NO
Hyperfine couplings                     ...  NO (   0 nuclei)
Quadrupole couplings                    ...  NO (   0 nuclei)
Contact density                         ...  NO (   0 nuclei)

NMR properties:
Chemical shifts                         ...  NO (   0 nuclei)
Spin-rotation constants                 ...  NO (   0 nuclei)
Spin-spin couplings                     ...  NO (   0 nuclei,    0 pairs)

Choice of magnetic origin               ... GIAO
Position of magnetic origin             ...     0.000000     0.000000     0.000000

Properties with geometric perturbations:
SCF Hessian                             ...  NO
IR spectrum                             ...  NO
VCD spectrum                            ...  NO
X-ray spectroscopy properties:
SCF XES/XAS/RIXS spectra                ...  NO


-------------
DIPOLE MOMENT
-------------

Method             : SCF
Type of density    : Electron Density
Multiplicity       :   1
Irrep              :   0
Energy             :  -350.3119339101724563 Eh
Relativity type    : 
Basis              : AO
                                X                 Y                 Z
Electronic contribution:     -0.563051842       5.112510127      -1.384953684
Nuclear contribution   :      0.407320473      -6.560090119       2.374572714
                        -----------------------------------------
Total Dipole Moment    :     -0.155731369      -1.447579992       0.989619030
                        -----------------------------------------
Magnitude (a.u.)       :      1.760422085
Magnitude (Debye)      :      4.474637335



--------------------
Rotational spectrum 
--------------------
 
Rotational constants in cm-1:             0.093381             0.047991             0.042730 
Rotational constants in MHz :          2799.493690          1438.742542          1281.011956 

Dipole components along the rotational axes: 
x,y,z [a.u.] :    -0.463935    -1.687986     0.185883 
x,y,z [Debye]:    -1.179228    -4.290520     0.472477 

 

Dipole moment calculation done in   0.0 sec 

Maximum memory used throughout the entire PROP-calculation: 14.9 MB

--------------------------------
SUGGESTED CITATIONS FOR THIS RUN
--------------------------------

Below you find a list of papers that are relevant to this ORCA run
We neither can nor want to force you to cite these papers, but we appreciate if you do
You receive ORCA, which is the product of decades of hard work by many enthusiastic individuals, for free
The only thing we kindly ask in return is that you cite our papers,
We deeply appreciate it, if you show your appreciation for ORCA by not just citing the generic ORCA reference.

Please note that relegating all ORCA citations to the supporting information does *not* help us.
SI sections are not indexed - citations you put there will not count into any citation statistics
But we need these citations in order to attract the funding resources that allow us to do what we are doing

Therefore, if you are a happy ORCA user, please consider citing a few of the papers listed below in the main body of your paper

In addition to the list printed below, the program has created the file xtb_opt.bibtex that contains the list in bibtex format
You can import this file easily into all common literature databanks and citation aid programs


List of essential papers. We consider these as the minimum necessary citations

  1. Neese,F.
     Software update: the ORCA program system, version 5.0
     WIRES Comput. Molec. Sci., 2022 12(1)e1606
     doi.org/10.1002/wcms.1606
  2. Grimme,S.; Hansen,A.; Ehlert,S.; Mewes,J.
     r2SCAN-3c: A 'Swiss army knife' composite electronic-structure method
     J. Chem. Phys., 2021 154 064103
     doi.org/10.1063/5.0040021

List of papers to cite with high priority. The work reported in these papers was absolutely
necessary for this run to complete.
Our perspective: the developers of density functionals and basis sets usually get cited in chemistry papers
Good! But without the algorithms to do something with them, the functionals or basis sets would not do anything.
Hence, in our opinion, the algorithm design and method developments papers are equally worthy of getting cited

  1. Neese,F.
     An improvement of the resolution of the identity approximation for the formation of the Coulomb matrix
     J. Comp. Chem., 2003 24(14)1740-1747
     doi.org/10.1002/jcc.10318
  2. Garcia-Rates,M.; Neese,F.
     Effect of the Solute Cavity on the Solvation Energy and its Derivatives within the Framework of the Gaussian Charge Scheme
     J. Comput. Chem., 2020 41 922-939
     doi.org/10.1002/jcc.26139
  3. Neese,F.
     The SHARK Integral Generation and Digestion System
     J. Comp. Chem., 2022  1-16
     doi.org/10.1002/jcc.26942
  4. Lehtola,S.; Steigemann,C.; Oliveira,M.; Marques,M.
     Recent developments in Libxc - A comprehensive library of functionals for density functional theory
     Software X, 2018 7 
     doi.org/10.1016/j.softx.2017.11.002
  5. Caldeweyher,E.; Bannwarth,C.; Grimme,S.
     Extension of the D3 dispersion coefficient model
     J. Chem. Phys., 2017 147 034112-XXXX
     doi.org/10.1063/1.4993215
  6. Caldeweyher,E.; Ehlert,S.; Hansen,A.; Neugebauer,H.; Spicher,S.; Bannwarth,C.; Grimme,S.
     A generally applicable atomic-charge dependent London dispersion correction
     J. Chem. Phys., 2019 150 154122-XXXX
     doi.org/10.1063/1.5090222
  7. Caldeweyher,E.; Mewes,J.; Ehlert,S.; Grimme,S.
     Extension and evaluation of the D4 London-dispersion model for periodic systems
     Phys. Chem. Chem. Phys., 2020 22(16)8499-8512
     doi.org/10.1039/D0CP00502A

List of suggested additional citations. These are papers that are important in the 'surrounding' of 
of this run, or papers that preceded the highly important papers. If you like your results we are grateful for a citation.

  1. Neese,F.
     The ORCA program system
     WIRES Comput. Molec. Sci., 2012 2(1)73-78
     doi.org/10.1002/wcms.81
  2. Neese,F.
     Software update: the ORCA program system, version 4.0
     WIRES Comput. Molec. Sci., 2018 8(1)1-6
     doi.org/10.1002/wcms.1327
  3. Neese,F.; Wennmohs,F.; Becker,U.; Riplinger,C.
     The ORCA quantum chemistry program package
     J. Chem. Phys., 2020 152 Art. No. L224108
     doi.org/10.1063/5.0004608

List of optional additional citations

  1. Neese,F.
     Approximate second-order SCF convergence for spin unrestricted wavefunctions
     Chem. Phys. Lett., 2000 325(1-3)93-98
     doi.org/10.1016/s0009-2614(00)00662-x

Timings for individual modules:

Sum of individual times          ...       23.266 sec (=   0.388 min)
Startup calculation              ...        1.418 sec (=   0.024 min)   6.1 %
SCF iterations                   ...        9.031 sec (=   0.151 min)  38.8 %
Property calculations            ...        0.113 sec (=   0.002 min)   0.5 %
SCF Gradient evaluation          ...       12.704 sec (=   0.212 min)  54.6 %
                             ****ORCA TERMINATED NORMALLY****
TOTAL RUN TIME: 0 days 0 hours 0 minutes 24 seconds 232 msec
  ------------------------------------------------------------------------
          * successful ORCA run, taking over control again...

         :::::::::::::::::::::::::::::::::::::::::::::::::::::
         ::                  ORCA SUMMARY                   ::
         :::::::::::::::::::::::::::::::::::::::::::::::::::::
         :: total energy            -350.308071716444 Eh    ::
         :: gradient norm              0.000433335702 Eh/a0 ::
         :: HOMO-LUMO gap              0.000000000000 eV    ::
         :::::::::::::::::::::::::::::::::::::::::::::::::::::

      ----------------------------------------------------------- 
     |                       L-ANC optimizer                     |
      ----------------------------------------------------------- 
          low memory version by Sebastian Ehlert

          ...................................................
          :                      SETUP                      :
          :.................................................:
          :   energy convergence        0.5000000E-05 Eh    :
          :   grad. convergence         0.1000000E-02 Eh/a0 :
          :   optimization log               true           :
          :   writing optlog all                1     steps :
          :   Hessian reset                     8     steps :
          :   maximium step len.        1.0000000     a0    :
          :   LBFGS images                      8           :
          ...................................................
 * calculating model hessian...
Using Lindh-Hessian (1995)
 Shifting diagonal of input Hessian by   1.000000000000000E-002
 Lowest  eigenvalues of input Hessian
    0.000000    0.000000    0.000000    0.000000    0.000000    0.000000
    0.011751    0.012679    0.015063    0.018382    0.019208    0.019597
    0.019816    0.020117    0.023291    0.025781    0.027938    0.031066
 Highest eigenvalues
    1.175567    1.180142    1.234169    1.252686    1.382198    2.030956
 

........................................................................
.............................. CYCLE    1 ..............................
........................................................................
                         * ORCA takes the control...
  ------------------------------------------------------------------------

                                 *****************
                                 * O   R   C   A *
                                 *****************

                                            #,                                       
                                            ###                                      
                                            ####                                     
                                            #####                                    
                                            ######                                   
                                           ########,                                 
                                     ,,################,,,,,                         
                               ,,#################################,,                 
                          ,,##########################################,,             
                       ,#########################################, ''#####,          
                    ,#############################################,,   '####,        
                  ,##################################################,,,,####,       
                ,###########''''           ''''###############################       
              ,#####''   ,,,,##########,,,,          '''####'''          '####       
            ,##' ,,,,###########################,,,                        '##       
           ' ,,###''''                  '''############,,,                           
         ,,##''                                '''############,,,,        ,,,,,,###''
      ,#''                                            '''#######################'''  
     '                                                          ''''####''''         
             ,#######,   #######,   ,#######,      ##                                
            ,#'     '#,  ##    ##  ,#'     '#,    #''#        ,####,   ,####,        
            ##       ##  ##   ,#'  ##            #'  '#       #'       #'  '#        
            ##       ##  #######   ##           ,######,      #####,   #    #        
            '#,     ,#'  ##    ##  '#,     ,#' ,#      #,     #,   #   #,  ,#        
             '#######'   ##     ##  '#######'  #'      '#     '####' # '####'        



                #########################################################
                #                        -***-                          #
                #          Department of theory and spectroscopy        #
                #                                                       #
                #                      Frank Neese                      #
                #                                                       #
                #     Directorship, Architecture, Infrastructure        #
                #                    SHARK, DRIVERS                     #
                #        Core code/Algorithms in most modules           #
                #                                                       #
                #        Max Planck Institute fuer Kohlenforschung      #
                #                Kaiser Wilhelm Platz 1                 #
                #                 D-45470 Muelheim/Ruhr                 #
                #                      Germany                          #
                #                                                       #
                #                  All rights reserved                  #
                #                        -***-                          #
                #########################################################


                         Program Version 6.0.0  -   RELEASE  -


 With contributions from (in alphabetic order):
   Daniel Aravena         : Magnetic Suceptibility
   Michael Atanasov       : Ab Initio Ligand Field Theory (pilot matlab implementation)
   Alexander A. Auer      : GIAO ZORA, VPT2 properties, NMR spectrum
   Ute Becker             : All parallelization in ORCA, NUMFREQ, NUMCALC
   Giovanni Bistoni       : ED, misc. LED, open-shell LED, HFLD
   Martin Brehm           : Molecular dynamics
   Dmytro Bykov           : pre 5.0 version of the SCF Hessian
   Marcos Casanova-Páez   : Triplet and SCS-CIS(D). UHF-(DLPNO)-IP/EA/STEOM-CCSD. UHF-CVS-IP/STEOM-CCSD
   Vijay G. Chilkuri      : MRCI spin determinant printing, contributions to CSF-ICE
   Pauline Colinet        : FMM embedding
   Dipayan Datta          : RHF DLPNO-CCSD density
   Achintya Kumar Dutta   : EOM-CC, STEOM-CC
   Nicolas Foglia         : Exact transition moments, OPA infrastructure, MCD improvements
   Dmitry Ganyushin       : Spin-Orbit,Spin-Spin,Magnetic field MRCI
   Miquel Garcia          : C-PCM and meta-GGA Hessian, CCSD/C-PCM, Gaussian charge scheme
   Tiago L. C. Gouveia    : GS-ROHF, GS-ROCIS
   Yang Guo               : DLPNO-NEVPT2, F12-NEVPT2, CIM, IAO-localization
   Andreas Hansen         : Spin unrestricted coupled pair/coupled cluster methods
   Ingolf Harden          : AUTO-CI MPn and infrastructure 
   Benjamin Helmich-Paris : MC-RPA, TRAH-(SCF,CASSCF), AVAS, COSX integrals, SCF dyn. polar.
   Lee Huntington         : MR-EOM, pCC
   Robert Izsak           : Overlap fitted RIJCOSX, COSX-SCS-MP3, EOM
   Riya Kayal             : Wick's Theorem for AUTO-CI, AUTO-CI UHF-CCSDT
   Emily Kempfer          : AUTO-CI, RHF CISDT and CCSDT
   Christian Kollmar      : KDIIS, OOCD, Brueckner-CCSD(T), CCSD density, CASPT2, CASPT2-K, improved NEVPT2
   Axel Koslowski         : Symmetry handling
   Simone Kossmann        : Meta GGA functionals, TD-DFT gradient, OOMP2, (MP2 Hessian; deprecated post 5.0)
   Lucas Lang             : DCDCAS
   Marvin Lechner         : AUTO-CI (C++ implementation), FIC-MRCC
   Spencer Leger          : CASSCF response
   Dagmar Lenk            : GEPOL surface, SMD, ORCA-2-JSON
   Dimitrios Liakos       : Extrapolation schemes; Compound Job, initial MDCI parallelization
   Dimitrios Manganas     : Further ROCIS development; embedding schemes. LFT, Crystal Embedding
   Dimitrios Pantazis     : SARC Basis sets
   Anastasios Papadopoulos: AUTO-CI, single reference methods and gradients
   Taras Petrenko         : pre 6.0 DFT Hessian and TD-DFT gradient, (ASA, deprecated), ECA, 1-Electron XAS/XES, NRVS
   Peter Pinski           : DLPNO-MP2, DLPNO-MP2 Gradient
   Christoph Reimann      : Effective Core Potentials
   Marius Retegan         : Local ZFS, SOC
   Christoph Riplinger    : Optimizer, TS searches, QM/MM, DLPNO-CCSD(T), (RO)-DLPNO pert. Triples
   Michael Roemelt        : Original ROCIS implementation
   Masaaki Saitow         : Open-shell DLPNO-CCSD energy and density
   Barbara Sandhoefer     : DKH picture change effects
   Kantharuban Sivalingam : CASSCF convergence/infrastructure, NEVPT2 and variants, FIC-MRCI
   Bernardo de Souza      : ESD, SOC TD-DFT
   Georgi Stoychev        : AutoAux, RI-MP2 NMR, DLPNO-MP2 response, X2C
   Van Anh Tran           : RI-MP2 g-tensors
   Willem Van den Heuvel  : Paramagnetic NMR
   Zikuan Wang            : NOTCH, Electric field optimization 
   Frank Wennmohs         : Technical directorship and infrastructure
   Hang Xu                : AUTO-CI-Response properties 


 We gratefully acknowledge several colleagues who have allowed us to
 interface, adapt or use parts of their codes:
   Stefan Grimme, W. Hujo, H. Kruse, P. Pracht,  : VdW corrections, initial TS optimization,
                  C. Bannwarth, S. Ehlert,         DFT functionals, gCP, sTDA/sTD-DF
                  L. Wittmann, M. Mueller
   Ed Valeev, F. Pavosevic, A. Kumar             : LibInt (2-el integral package), F12 methods
   Garnet Chan, S. Sharma, J. Yang, R. Olivares  : DMRG
   Ulf Ekstrom                                   : XCFun DFT Library
   Mihaly Kallay                                 : mrcc  (arbitrary order and MRCC methods)
   Frank Weinhold                                : gennbo (NPA and NBO analysis)
   Simon Mueller                                 : openCOSMO-RS
   Christopher J. Cramer and Donald G. Truhlar   : smd solvation model
   Lars Goerigk                                  : TD-DFT with DH, B97 family of functionals
   V. Asgeirsson, H. Jonsson                     : NEB implementation
   FAccTs GmbH                                   : IRC, NEB, NEB-TS, DLPNO-Multilevel, CI-OPT
                                                   MM, QMMM, 2- and 3-layer-ONIOM, Crystal-QMMM,
                                                   LR-CPCM, SF, NACMEs, symmetry and pop. for TD-DFT,
                                                   nearIR, NL-DFT gradient (VV10), updates on ESD,
                                                   ML-optimized integration grids, MBIS, APM,
                                                   GOAT, DOCKER, SOLVATOR, interface openCOSMO-RS
   S Lehtola, MJT Oliveira, MAL Marques          : LibXC Library
   Liviu Ungur et al                             : ANISO software


 Your calculation uses the libint2 library for the computation of 2-el integrals
 For citations please refer to: http://libint.valeyev.net

 Your ORCA version has been built with support for libXC version: 6.2.2
 For citations please refer to: https://libxc.gitlab.io

 This ORCA versions uses:
   CBLAS   interface :  Fast vector & matrix operations
   LAPACKE interface :  Fast linear algebra routines
   SCALAPACK package :  Parallel linear algebra routines
   Shared memory     :  Shared parallel matrices
   BLAS/LAPACK       :  OpenBLAS 0.3.27  USE64BITINT DYNAMIC_ARCH NO_AFFINITY SkylakeX SINGLE_THREADED
        Core in use  :  SkylakeX
   Copyright (c) 2011-2014, The OpenBLAS Project




***************************************
The coordinates will be read from file: xtb_opt.xyz
***************************************


Your calculation utilizes the geometrical counterpoise correction gCP
Please cite in your paper:
H.Kruse, S. Grimme J.Chem.Phys., 136, (2012), 154101 
   

Your calculation utilizes the atom-pairwise dispersion correction
based on EEQ partial charges (D4)


Your calculation utilizes the SMD solvation module
Please cite in your paper:
A.V. Marenich, C.J. Cramer, D.G. Truhlar J. Phys. Chem. B, 113, (2009), 6378 

================================================================================

----- Orbital basis set information -----
Your calculation utilizes the basis: def2-mTZVPP
   Stefan Grimme, Andreas Hansen, Sebastian Ehlert, and Jan-Michael Mewes 
   J. Chem. Phys. 154, 064103 (2021). DOI: 10.1063/5.0040021

----- AuxJ basis set information -----
Your calculation utilizes the auxiliary basis: def2/J
   F. Weigend, Phys. Chem. Chem. Phys. 8, 1057 (2006).

================================================================================
                                        WARNINGS
                       Please study these warnings very carefully!
================================================================================

WARNING: Old DensityContainer found on disk!
         Will remove this file - 
         If you want to keep old densities, please start your calculation with a different basename. 

Using LibXC functional ID 497 : Re-regularized SCAN exchange by Furness et al
[ 1]  J. W. Furness, A. D. Kaplan, J. Ning, J. P. Perdew, and J. Sun.,  J. Phys. Chem. Lett. 11, 8208-8215 (2020)
[ 2]  J. W. Furness, A. D. Kaplan, J. Ning, J. P. Perdew, and J. Sun.,  J. Phys. Chem. Lett. 11, 9248-9248 (2020)
Using LibXC functional ID 498 : Re-regularized SCAN correlation by Furness et al
[ 1]  J. W. Furness, A. D. Kaplan, J. Ning, J. P. Perdew, and J. Sun.,  J. Phys. Chem. Lett. 11, 8208-8215 (2020)
[ 2]  J. W. Furness, A. D. Kaplan, J. Ning, J. P. Perdew, and J. Sun.,  J. Phys. Chem. Lett. 11, 9248-9248 (2020)
Using LibXC functional ID 497 : Re-regularized SCAN exchange by Furness et al
[ 1]  J. W. Furness, A. D. Kaplan, J. Ning, J. P. Perdew, and J. Sun.,  J. Phys. Chem. Lett. 11, 8208-8215 (2020)
[ 2]  J. W. Furness, A. D. Kaplan, J. Ning, J. P. Perdew, and J. Sun.,  J. Phys. Chem. Lett. 11, 9248-9248 (2020)
Using LibXC functional ID 498 : Re-regularized SCAN correlation by Furness et al
[ 1]  J. W. Furness, A. D. Kaplan, J. Ning, J. P. Perdew, and J. Sun.,  J. Phys. Chem. Lett. 11, 8208-8215 (2020)
[ 2]  J. W. Furness, A. D. Kaplan, J. Ning, J. P. Perdew, and J. Sun.,  J. Phys. Chem. Lett. 11, 9248-9248 (2020)

================================================================================
                                       INPUT FILE
================================================================================
NAME = xtb_opt.inp
|  1> ! r2scan-3c def2/J RI DEFGRID2 scfconv7 ENGRAD tightSCF miniprint
|  2> %cpcm
|  3>     smd true
|  4>     smdsolvent "water"
|  5> end
|  6> * xyzfile 0 1 xtb_opt.xyz
|  7> 
|  8>                          ****END OF INPUT****
================================================================================

                     *******************************
                     * Energy+Gradient Calculation *
                     *******************************

---------------------------------
CARTESIAN COORDINATES (ANGSTROEM)
---------------------------------
  C      2.352796    0.913097    0.472100
  C      1.160278   -0.036492    0.481396
  C      1.475455   -1.318601   -0.315989
  C     -0.079087    0.599018   -0.113600
  O      0.012125    1.565556   -0.867223
  C     -1.461894    0.020699    0.166072
  C     -1.576054   -0.859564    1.407919
  C     -1.961118   -0.714870   -1.091290
  H      3.205148    0.438335    0.967394
  H      2.125693    1.845155    0.998397
  H      2.650077    1.162562   -0.550873
  H      0.930022   -0.328841    1.511854
  H      1.660102   -1.074849   -1.367688
  H      2.378304   -1.782254    0.093053
  H      0.666238   -2.050647   -0.267176
  H     -2.100720    0.903742    0.298772
  H     -0.992716   -1.780431    1.309637
  H     -1.246251   -0.333972    2.309093
  H     -2.622755   -1.145282    1.552859
  H     -1.891968   -0.076621   -1.976591
  H     -1.382095   -1.625928   -1.271058
  H     -3.008598   -1.000287   -0.954232

----------------------------
CARTESIAN COORDINATES (A.U.)
----------------------------
  NO LB      ZA    FRAG     MASS         X           Y           Z
   0 C     6.0000    0    12.011    4.446140    1.725504    0.892140
   1 C     6.0000    0    12.011    2.192608   -0.068960    0.909707
   2 C     6.0000    0    12.011    2.788206   -2.491796   -0.597133
   3 C     6.0000    0    12.011   -0.149453    1.131981   -0.214673
   4 O     8.0000    0    15.999    0.022912    2.958471   -1.638814
   5 C     6.0000    0    12.011   -2.762579    0.039115    0.313831
   6 C     6.0000    0    12.011   -2.978310   -1.624341    2.660581
   7 C     6.0000    0    12.011   -3.705975   -1.350909   -2.062240
   8 H     1.0000    0     1.008    6.056852    0.828333    1.828109
   9 H     1.0000    0     1.008    4.016978    3.486838    1.886697
  10 H     1.0000    0     1.008    5.007919    2.196925   -1.041000
  11 H     1.0000    0     1.008    1.757486   -0.621419    2.856991
  12 H     1.0000    0     1.008    3.137138   -2.031169   -2.584556
  13 H     1.0000    0     1.008    4.494343   -3.367971    0.175845
  14 H     1.0000    0     1.008    1.259007   -3.875161   -0.504890
  15 H     1.0000    0     1.008   -3.969786    1.707825    0.564598
  16 H     1.0000    0     1.008   -1.875961   -3.364528    2.474854
  17 H     1.0000    0     1.008   -2.355074   -0.631115    4.363553
  18 H     1.0000    0     1.008   -4.956288   -2.164270    2.934478
  19 H     1.0000    0     1.008   -3.575301   -0.144793   -3.735216
  20 H     1.0000    0     1.008   -2.611782   -3.072559   -2.401951
  21 H     1.0000    0     1.008   -5.685427   -1.890269   -1.803237

------------------------------------------------------------------------------
                   ___                                                        
                  /   \      - P O W E R E D   B Y -                         
                 /     \                                                     
                 |  |  |   _    _      __       _____    __    __             
                 |  |  |  | |  | |    /  \     |  _  \  |  |  /  |          
                  \  \/   | |  | |   /    \    | | | |  |  | /  /          
                 / \  \   | |__| |  /  /\  \   | |_| |  |  |/  /          
                |  |  |   |  __  | /  /__\  \  |    /   |      \           
                |  |  |   | |  | | |   __   |  |    \   |  |\   \          
                \     /   | |  | | |  |  |  |  | |\  \  |  | \   \       
                 \___/    |_|  |_| |__|  |__|  |_| \__\ |__|  \__/        
                                                                              
                      - O R C A' S   B I G   F R I E N D -                    
                                      &                                       
                       - I N T E G R A L  F E E D E R -                       
                                                                              
 v1 FN, 2020, v2 2021, v3 2022-2024                                           
------------------------------------------------------------------------------


----------------------
SHARK INTEGRAL PACKAGE
----------------------

Number of atoms                             ...     22
Number of basis functions                   ...    227
Number of shells                            ...    115
Maximum angular momentum                    ...      2
Integral batch strategy                     ... SHARK/LIBINT Hybrid
RI-J (if used) integral strategy            ... SPLIT-RIJ (Revised 2003 algorithm where possible)
Printlevel                                  ...      1
Contraction scheme used                     ... SEGMENTED contraction
Prescreening option                         ... SCHWARTZ
   Thresh                                   ... 3.000e-11
   Tcut                                     ... 1.000e-12
   Tpresel                                  ... 1.000e-12 
Coulomb Range Separation                    ... NOT USED
Exchange Range Separation                   ... NOT USED
Multipole approximations                    ... NOT USED
Finite Nucleus Model                        ... NOT USED
CABS basis                                  ... NOT available
Auxiliary Coulomb fitting basis             ... AVAILABLE
   # of basis functions in Aux-J            ...    546
   # of shells in Aux-J                     ...    190
   Maximum angular momentum in Aux-J        ...      4
Auxiliary J/K fitting basis                 ... NOT available
Auxiliary Correlation fitting basis         ... NOT available
Auxiliary 'external' fitting basis          ... NOT available

Checking pre-screening integrals            ... done (  0.0 sec) Dimension = 115
Check shell pair data                       ... done (  0.0 sec)
Shell pair information
Shell pair cut-off parameter TPreSel        ...   1.0e-12
Total number of shell pairs                 ...      6670
Shell pairs after pre-screening             ...      6130
Total number of primitive shell pairs       ...     23438
Primitive shell pairs kept                  ...     15427
          la=0 lb=0:   2131 shell pairs
          la=1 lb=0:   2367 shell pairs
          la=1 lb=1:    684 shell pairs
          la=2 lb=0:    579 shell pairs
          la=2 lb=1:    325 shell pairs
          la=2 lb=2:     44 shell pairs

Calculating one electron integrals          ... done (  0.0 sec)
Calculating RI/J V-Matrix + Cholesky decomp.... done (  0.1 sec)
Calculating Nuclear repulsion               ... done (  0.0 sec) ENN=    401.607167581824 Eh

Diagonalization of the overlap matrix:
Smallest eigenvalue                        ... 1.304e-04
Time for diagonalization                   ...    0.005 sec
Threshold for overlap eigenvalues          ... 1.000e-07
Number of eigenvalues below threshold      ... 0
Time for construction of square roots      ...    0.015 sec
Total time needed                          ...    0.031 sec

-------------------
DFT GRID GENERATION
-------------------

General Integration Accuracy     IntAcc      ... 4.388
Radial Grid Type                 RadialGrid  ... OptM3 with GC (2021)
Angular Grid (max. ang.)         AngularGrid ... 4 (Lebedev-302)
Angular grid pruning method      GridPruning ... 4 (adaptive)
Weight generation scheme         WeightScheme... mBecke (2022)
Basis function cutoff            BFCut       ... 1.0000e-11
Integration weight cutoff        WCut        ... 1.0000e-14
Partially contracted basis set               ... off
Rotationally invariant grid construction     ... off
Angular grids for H and He will be reduced by one unit
Diffuse basis detected: some atoms will have their outermost
                        angular grid increased by 1.

Total number of grid points                  ...    92993
Total number of batches                      ...     1464
Average number of points per batch           ...       63
Average number of grid points per atom       ...     4227
Initializing property integral containers    ... done (  0.0 sec)

SHARK setup successfully completed in   1.4 seconds

Maximum memory used throughout the entire STARTUP-calculation: 42.5 MB
Occupation numbers will be reassigned to an Aufbau configuration
             **** ENERGY FILE WAS UPDATED (xtb_opt.en.tmp) ****
Finished Guess after   0.3 sec
Maximum memory used throughout the entire GUESS-calculation: 16.1 MB
--------------------
CPCM SOLVATION MODEL
--------------------
CPCM parameters:
  Epsilon                                         ...      78.3550
  Refrac                                          ...       1.3328
  Rsolv                                           ...       1.3000
  Surface type                                    ... GAUSSIAN VDW
  Discretization scheme                           ... Constant charge density
    Threshold for H atoms                         ...       5.0000 (charges/Ang^2)
    Threshold for non-H atoms                     ...       5.0000 (charges/Ang^2)
  Epsilon function type                           ...         CPCM
Solvent:                                          ... WATER
SMD-CDS solvent descriptors:
  Soln                                            ...       1.3328
  Soln25                                          ...       1.3323
  Sola                                            ...       0.0000
  Solb                                            ...       0.0000
  Solg                                            ...       0.0000
  Solc                                            ...       0.0000
  Solh                                            ...       0.0000
Radii:
  Scheme                                          ... Element-dependent radii
  Radius for C  used is    3.4960 Bohr (=   1.8500 Ang.)
  Radius for O  used is    2.8724 Bohr (=   1.5200 Ang.)
  Radius for H  used is    2.2677 Bohr (=   1.2000 Ang.)
Calculating surface                               ...        done! (  0.0s)
Cavity surface points                             ...         1629
Cavity Volume                                     ...     939.6061
Cavity Surface-area                               ...     604.9274
Calculating surface distance matrix               ...        done! (  0.0s)
Performing Cholesky decomposition & store         ...        done! (  0.1s)
Overall time for CPCM initialization              ...                 0.1s

----------------------------------------D-I-I-S--------------------------------------------
Iteration    Energy (Eh)           Delta-E    RMSDP     MaxDP     DIISErr   Damp  Time(sec)
-------------------------------------------------------------------------------------------
               ***  Starting incremental Fock matrix formation  ***
                              *** Initializing SOSCF ***
---------------------------------------S-O-S-C-F--------------------------------------
Iteration    Energy (Eh)           Delta-E    RMSDP     MaxDP     MaxGrad    Time(sec)
--------------------------------------------------------------------------------------
    1    -350.3194552843719407     0.00e+00  1.53e-05  4.14e-04  2.66e-05     4.0
               *** Restarting incremental Fock matrix formation ***
    2    -350.3194571082676134    -1.82e-06  8.04e-06  1.89e-04  3.83e-05     3.9
    3    -350.3194571226243283    -1.44e-08  6.12e-06  3.29e-04  6.54e-05     3.0
                 **** Energy Check signals convergence ****

               *****************************************************
               *                     SUCCESS                       *
               *           SCF CONVERGED AFTER   3 CYCLES          *
               *****************************************************


SMD CDS free energy correction energy :                 4.71934     Kcal/mol
Total Energy after SMD CDS correction =              -350.311936381 Eh
             **** ENERGY FILE WAS UPDATED (xtb_opt.en.tmp) ****

----------------
TOTAL SCF ENERGY
----------------

Total Energy       :       -350.31193638075314 Eh           -9532.47241 eV

Components:
Nuclear Repulsion  :        401.60716758182406 Eh           10928.28661 eV
Electronic Energy  :       -751.90902234616954 Eh          -20460.48469 eV
One Electron Energy:      -1269.26158339167500 Eh          -34538.36358 eV
Two Electron Energy:        517.35256104550547 Eh           14077.87889 eV
CPCM Dielectric    :         -0.01760235827888 Eh              -0.47898 eV
SMD CDS (Gcds)     :          0.00752074187121 Eh               0.20465 eV

Virial components:
Potential Energy   :       -698.88289170727739 Eh          -19017.57032 eV
Kinetic Energy     :        348.57095532652420 Eh            9485.09791 eV
Virial Ratio       :          2.00499462455958

DFT components:
N(Alpha)           :       31.999946210607 electrons
N(Beta)            :       31.999946210607 electrons
N(Total)           :       63.999892421214 electrons
E(X)               :      -49.655763319984 Eh       
E(C)               :       -2.006589027590 Eh       
E(XC)              :      -51.662352347574 Eh       

CPCM Solvation Model Properties:
Surface-charge          :         -0.04966400427485
Corrected charge        :          0.00000000000000
Outlying charge corr.   :          0.00018774898035 Eh               0.00511 eV
Free-energy (cav+disp)  :          0.00752074187121 Eh               0.20465 eV

---------------
SCF CONVERGENCE
---------------

  Last Energy change         ...    1.4357e-08  Tolerance :   1.0000e-07
  Last MAX-Density change    ...    3.2932e-04  Tolerance :   1.0000e-07
  Last RMS-Density change    ...    6.1228e-06  Tolerance :   5.0000e-09
  Last DIIS Error            ...    5.1792e-04  Tolerance :   1.0000e-07
  Last Orbital Gradient      ...    6.5415e-05  Tolerance :   1.0000e-04
  Last Orbital Rotation      ...    8.4865e-05  Tolerance :   1.0000e-04


----------------
ORBITAL ENERGIES
----------------

  NO   OCC          E(Eh)            E(eV) 
   0   2.0000     -18.943548      -515.4802 
   1   2.0000     -10.120360      -275.3890 
   2   2.0000     -10.041364      -273.2394 
   3   2.0000     -10.040406      -273.2133 
   4   2.0000     -10.023019      -272.7402 
   5   2.0000     -10.020923      -272.6832 
   6   2.0000     -10.016473      -272.5621 
   7   2.0000     -10.014784      -272.5161 
   8   2.0000      -1.006963       -27.4009 
   9   2.0000      -0.776278       -21.1236 
  10   2.0000      -0.750079       -20.4107 
  11   2.0000      -0.649086       -17.6625 
  12   2.0000      -0.647606       -17.6223 
  13   2.0000      -0.612378       -16.6636 
  14   2.0000      -0.560025       -15.2391 
  15   2.0000      -0.481226       -13.0948 
  16   2.0000      -0.447514       -12.1775 
  17   2.0000      -0.431501       -11.7417 
  18   2.0000      -0.416799       -11.3417 
  19   2.0000      -0.402568       -10.9544 
  20   2.0000      -0.379512       -10.3271 
  21   2.0000      -0.365859        -9.9555 
  22   2.0000      -0.354606        -9.6493 
  23   2.0000      -0.347815        -9.4645 
  24   2.0000      -0.344122        -9.3640 
  25   2.0000      -0.339899        -9.2491 
  26   2.0000      -0.326744        -8.8912 
  27   2.0000      -0.307945        -8.3796 
  28   2.0000      -0.303761        -8.2658 
  29   2.0000      -0.301729        -8.2105 
  30   2.0000      -0.291904        -7.9431 
  31   2.0000      -0.217724        -5.9246 
  32   0.0000      -0.053968        -1.4685 
  33   0.0000       0.077535         2.1098 
  34   0.0000       0.114922         3.1272 
  35   0.0000       0.122302         3.3280 
  36   0.0000       0.125725         3.4212 
  37   0.0000       0.134849         3.6694 
  38   0.0000       0.139997         3.8095 
  39   0.0000       0.147311         4.0085 
  40   0.0000       0.150791         4.1032 
  41   0.0000       0.156769         4.2659 
  42   0.0000       0.162483         4.4214 
*Only the first 10 virtual orbitals were printed.
Total SCF time: 0 days 0 hours 0 min 11 sec 
Finished LeanSCF after  11.7 sec

Maximum memory used throughout the entire LEANSCF-calculation: 34.6 MB


-------------------------------------------------------------------------------
                          DFT DISPERSION CORRECTION                            
                                                                               
[...]
  Last Orbital Rotation      ...    5.5637e-05  Tolerance :   1.0000e-04


----------------
ORBITAL ENERGIES
----------------

  NO   OCC          E(Eh)            E(eV) 
   0   2.0000     -18.944493      -515.5059 
   1   2.0000     -10.120028      -275.3800 
   2   2.0000     -10.041196      -273.2348 
   3   2.0000     -10.040235      -273.2087 
   4   2.0000     -10.022929      -272.7378 
   5   2.0000     -10.020855      -272.6813 
   6   2.0000     -10.016373      -272.5594 
   7   2.0000     -10.014806      -272.5167 
   8   2.0000      -1.007216       -27.4077 
   9   2.0000      -0.776204       -21.1216 
  10   2.0000      -0.750006       -20.4087 
  11   2.0000      -0.649039       -17.6613 
  12   2.0000      -0.647575       -17.6214 
  13   2.0000      -0.612318       -16.6620 
  14   2.0000      -0.559964       -15.2374 
  15   2.0000      -0.481235       -13.0951 
  16   2.0000      -0.447472       -12.1763 
  17   2.0000      -0.431590       -11.7442 
  18   2.0000      -0.416787       -11.3413 
  19   2.0000      -0.402596       -10.9552 
  20   2.0000      -0.379487       -10.3264 
  21   2.0000      -0.365824        -9.9546 
  22   2.0000      -0.354595        -9.6490 
  23   2.0000      -0.347828        -9.4649 
  24   2.0000      -0.344137        -9.3644 
  25   2.0000      -0.339866        -9.2482 
  26   2.0000      -0.326772        -8.8919 
  27   2.0000      -0.307897        -8.3783 
  28   2.0000      -0.303754        -8.2656 
  29   2.0000      -0.301730        -8.2105 
  30   2.0000      -0.291897        -7.9429 
  31   2.0000      -0.217897        -5.9293 
  32   0.0000      -0.053987        -1.4691 
  33   0.0000       0.077548         2.1102 
  34   0.0000       0.114934         3.1275 
  35   0.0000       0.122325         3.3286 
  36   0.0000       0.125747         3.4218 
  37   0.0000       0.134879         3.6702 
  38   0.0000       0.140025         3.8103 
  39   0.0000       0.147339         4.0093 
  40   0.0000       0.150809         4.1037 
  41   0.0000       0.156801         4.2668 
  42   0.0000       0.162505         4.4220 
*Only the first 10 virtual orbitals were printed.
Total SCF time: 0 days 0 hours 0 min 11 sec 
Finished LeanSCF after  11.9 sec

Maximum memory used throughout the entire LEANSCF-calculation: 34.6 MB


-------------------------------------------------------------------------------
                          DFT DISPERSION CORRECTION                            
                                                                               
                                DFTD4 V3.4.0                                   
-------------------------------------------------------------------------------
-------------------------   ----------------
Dispersion correction           -0.006551732
-------------------------   ----------------

------------------   -----------------
gCP correction             0.010414924
------------------   -----------------

-------------------------   --------------------
FINAL SINGLE POINT ENERGY      -350.308073215708
-------------------------   --------------------

------------------------------------------------------------------------------
                         ORCA SCF GRADIENT CALCULATION
------------------------------------------------------------------------------

Nuc. rep. gradient        (SHARK) ... done (  0.0 sec)
HCore & Overlap gradient  (SHARK) ... done (  0.4 sec)
Split-RIJ-J gradient      (SHARK) ... done (  2.0 sec)
XC gradient                       ... done (  7.8 sec)
CPCM gradient                     ... done (  1.2 sec)
SMD gradient                      ... done (  0.0 sec)
Dispersion correction             ... done (  0.0 sec)

-------------------
DISPERSION GRADIENT
-------------------

   1   C   :    0.000103350    0.000049655    0.000016676
   2   C   :    0.000071389    0.000007497    0.000021853
   3   C   :    0.000088388   -0.000070946   -0.000023696
   4   C   :   -0.000004236    0.000044038   -0.000013099
   5   O   :   -0.000003302    0.000107554   -0.000053647
   6   C   :   -0.000082938    0.000009332    0.000005207
   7   C   :   -0.000077588   -0.000035998    0.000078398
   8   C   :   -0.000094481   -0.000023147   -0.000061268
   9   H   :    0.000039473    0.000012510    0.000012607
  10   H   :    0.000034082    0.000031848    0.000011648
  11   H   :    0.000032955    0.000021418   -0.000001876
  12   H   :    0.000028214    0.000000560    0.000023288
  13   H   :    0.000040803   -0.000023751   -0.000023642
  14   H   :    0.000041286   -0.000032743   -0.000004527
  15   H   :    0.000030394   -0.000044167   -0.000010379
  16   H   :   -0.000035562    0.000017509    0.000000242
  17   H   :   -0.000030331   -0.000025710    0.000033222
  18   H   :   -0.000033744   -0.000005980    0.000049097
  19   H   :   -0.000035248   -0.000012503    0.000029734
  20   H   :   -0.000036325    0.000004272   -0.000037253
  21   H   :   -0.000036918   -0.000021494   -0.000031409
  22   H   :   -0.000039661   -0.000009755   -0.000021177

Difference to translation invariance:
           :   -0.0000000000   -0.0000000000   -0.0000000000

Difference to rotation invariance:
           :    0.0000000000    0.0000000000   -0.0000000000

Norm of the Dispersion gradient    ...    0.0003407872
RMS gradient                       ...    0.0000419480
MAX gradient                       ...    0.0001075536
gCP correction                   ... done

------------------
CARTESIAN GRADIENT
------------------

   1   C   :   -0.000040645    0.000033296   -0.000015623
   2   C   :    0.000012622   -0.000130326    0.000005128
   3   C   :    0.000019583    0.000021539   -0.000018182
   4   C   :   -0.000022006    0.000153626   -0.000017928
   5   O   :    0.000014158   -0.000045333    0.000005115
   6   C   :    0.000013013   -0.000031294    0.000019987
   7   C   :   -0.000012799    0.000004486    0.000014351
   8   C   :   -0.000013448   -0.000023006   -0.000005595
   9   H   :   -0.000008239   -0.000014536    0.000026897
  10   H   :   -0.000007674   -0.000002854   -0.000005688
  11   H   :    0.000019039   -0.000012996    0.000004689
  12   H   :    0.000014582   -0.000022835   -0.000007813
  13   H   :    0.000029683    0.000018137   -0.000003653
  14   H   :   -0.000011466   -0.000027697    0.000000166
  15   H   :   -0.000017073    0.000011464   -0.000044034
  16   H   :   -0.000001102    0.000007697   -0.000012111
  17   H   :    0.000000060    0.000020568    0.000000828
  18   H   :    0.000010245    0.000019200   -0.000001060
  19   H   :    0.000009066    0.000018186    0.000020131
  20   H   :    0.000005562   -0.000014159    0.000008159
  21   H   :   -0.000014185    0.000010236    0.000024530
  22   H   :    0.000001024    0.000006601    0.000001705

Difference to translation invariance:
           :   -0.0000000000   -0.0000000000   -0.0000000000

Difference to rotation invariance:
           :   -0.0000099251    0.0002006416   -0.0004122901

Norm of the Cartesian gradient     ...    0.0002466419
RMS gradient                       ...    0.0000303595
MAX gradient                       ...    0.0001536259

-------
TIMINGS
-------

Total SCF gradient time     ....       12.482 sec

Densities                   ....       0.001 sec  (  0.0%)
One electron gradient       ....       0.376 sec  (  3.0%)
RI-J Coulomb gradient       ....       2.050 sec  ( 16.4%)
XC gradient                 ....       7.834 sec  ( 62.8%)
CPCM gradient               ....       1.179 sec  (  9.4%)
   A-Matrix (El+Nuc)        ....       0.098 sec  (  0.8%)
   Potential                ....       1.081 sec  (  8.7%)
SMD gradient                ....       0.016 sec  (  0.1%)

Maximum memory used throughout the entire SCFGRAD-calculation: 36.4 MB

------------------------------------------------------------------------------
                              ORCA PROPERTY CALCULATIONS
------------------------------------------------------------------------------

GBWName                                 ... xtb_opt.gbw
Number of atoms                         ...     22
Number of basis functions               ...    227
Max core memory                         ...   1024 MB

Electric properties:
Dipole moment                           ... YES
Quadrupole moment                       ...  NO
Static polarizability (Dipole/Dipole)   ...  NO
Static polarizability (Dipole/Quad.)    ...  NO
Static polarizability (Quad./Quad.)     ...  NO
Static polarizability (Velocity)        ...  NO

Atomic electric properties:
Dipole moment                           ...  NO
Quadrupole moment                       ...  NO
Static polarizability                   ...  NO

Choice of electric origin               ... Center of mass
Position of electric origin             ...    -0.008424     0.022628     0.014734

General magnetic properties:
Magnetizability                         ...  NO

EPR properties:
g-Tensor (aka g-matrix)                 ...  NO
Zero-Field splitting spin-orbit         ...  NO
Zero-field splitting spin-spin          ...  NO
Hyperfine couplings                     ...  NO (   0 nuclei)
Quadrupole couplings                    ...  NO (   0 nuclei)
Contact density                         ...  NO (   0 nuclei)

NMR properties:
Chemical shifts                         ...  NO (   0 nuclei)
Spin-rotation constants                 ...  NO (   0 nuclei)
Spin-spin couplings                     ...  NO (   0 nuclei,    0 pairs)

Choice of magnetic origin               ... GIAO
Position of magnetic origin             ...     0.000000     0.000000     0.000000

Properties with geometric perturbations:
SCF Hessian                             ...  NO
IR spectrum                             ...  NO
VCD spectrum                            ...  NO
X-ray spectroscopy properties:
SCF XES/XAS/RIXS spectra                ...  NO


-------------
DIPOLE MOMENT
-------------

Method             : SCF
Type of density    : Electron Density
Multiplicity       :   1
Irrep              :   0
Energy             :  -350.3119364079925049 Eh
Relativity type    : 
Basis              : AO
                                X                 Y                 Z
Electronic contribution:     -0.561455800       5.112805426      -1.384435847
Nuclear contribution   :      0.406371679      -6.560163538       2.374043234
                        -----------------------------------------
Total Dipole Moment    :     -0.155084120      -1.447358112       0.989607387
                        -----------------------------------------
Magnitude (a.u.)       :      1.760175948
Magnitude (Debye)      :      4.474011705



--------------------
Rotational spectrum 
--------------------
 
Rotational constants in cm-1:             0.093397             0.047997             0.042722 
Rotational constants in MHz :          2799.961596          1438.903499          1280.772579 

Dipole components along the rotational axes: 
x,y,z [a.u.] :    -0.463451    -1.687856     0.185939 
x,y,z [Debye]:    -1.177998    -4.290190     0.472620 

 

Dipole moment calculation done in   0.0 sec 

Maximum memory used throughout the entire PROP-calculation: 14.9 MB

--------------------------------
SUGGESTED CITATIONS FOR THIS RUN
--------------------------------

Below you find a list of papers that are relevant to this ORCA run
We neither can nor want to force you to cite these papers, but we appreciate if you do
You receive ORCA, which is the product of decades of hard work by many enthusiastic individuals, for free
The only thing we kindly ask in return is that you cite our papers,
We deeply appreciate it, if you show your appreciation for ORCA by not just citing the generic ORCA reference.

Please note that relegating all ORCA citations to the supporting information does *not* help us.
SI sections are not indexed - citations you put there will not count into any citation statistics
But we need these citations in order to attract the funding resources that allow us to do what we are doing

Therefore, if you are a happy ORCA user, please consider citing a few of the papers listed below in the main body of your paper

In addition to the list printed below, the program has created the file xtb_opt.bibtex that contains the list in bibtex format
You can import this file easily into all common literature databanks and citation aid programs


List of essential papers. We consider these as the minimum necessary citations

  1. Neese,F.
     Software update: the ORCA program system, version 5.0
     WIRES Comput. Molec. Sci., 2022 12(1)e1606
     doi.org/10.1002/wcms.1606
  2. Grimme,S.; Hansen,A.; Ehlert,S.; Mewes,J.
     r2SCAN-3c: A 'Swiss army knife' composite electronic-structure method
     J. Chem. Phys., 2021 154 064103
     doi.org/10.1063/5.0040021

List of papers to cite with high priority. The work reported in these papers was absolutely
necessary for this run to complete.
Our perspective: the developers of density functionals and basis sets usually get cited in chemistry papers
Good! But without the algorithms to do something with them, the functionals or basis sets would not do anything.
Hence, in our opinion, the algorithm design and method developments papers are equally worthy of getting cited

  1. Neese,F.
     An improvement of the resolution of the identity approximation for the formation of the Coulomb matrix
     J. Comp. Chem., 2003 24(14)1740-1747
     doi.org/10.1002/jcc.10318
  2. Garcia-Rates,M.; Neese,F.
     Effect of the Solute Cavity on the Solvation Energy and its Derivatives within the Framework of the Gaussian Charge Scheme
     J. Comput. Chem., 2020 41 922-939
     doi.org/10.1002/jcc.26139
  3. Neese,F.
     The SHARK Integral Generation and Digestion System
     J. Comp. Chem., 2022  1-16
     doi.org/10.1002/jcc.26942
  4. Lehtola,S.; Steigemann,C.; Oliveira,M.; Marques,M.
     Recent developments in Libxc - A comprehensive library of functionals for density functional theory
     Software X, 2018 7 
     doi.org/10.1016/j.softx.2017.11.002
  5. Caldeweyher,E.; Bannwarth,C.; Grimme,S.
     Extension of the D3 dispersion coefficient model
     J. Chem. Phys., 2017 147 034112-XXXX
     doi.org/10.1063/1.4993215
  6. Caldeweyher,E.; Ehlert,S.; Hansen,A.; Neugebauer,H.; Spicher,S.; Bannwarth,C.; Grimme,S.
     A generally applicable atomic-charge dependent London dispersion correction
     J. Chem. Phys., 2019 150 154122-XXXX
     doi.org/10.1063/1.5090222
  7. Caldeweyher,E.; Mewes,J.; Ehlert,S.; Grimme,S.
     Extension and evaluation of the D4 London-dispersion model for periodic systems
     Phys. Chem. Chem. Phys., 2020 22(16)8499-8512
     doi.org/10.1039/D0CP00502A

List of suggested additional citations. These are papers that are important in the 'surrounding' of 
of this run, or papers that preceded the highly important papers. If you like your results we are grateful for a citation.

  1. Neese,F.
     The ORCA program system
     WIRES Comput. Molec. Sci., 2012 2(1)73-78
     doi.org/10.1002/wcms.81
  2. Neese,F.
     Software update: the ORCA program system, version 4.0
     WIRES Comput. Molec. Sci., 2018 8(1)1-6
     doi.org/10.1002/wcms.1327
  3. Neese,F.; Wennmohs,F.; Becker,U.; Riplinger,C.
     The ORCA quantum chemistry program package
     J. Chem. Phys., 2020 152 Art. No. L224108
     doi.org/10.1063/5.0004608

List of optional additional citations

  1. Neese,F.
     Approximate second-order SCF convergence for spin unrestricted wavefunctions
     Chem. Phys. Lett., 2000 325(1-3)93-98
     doi.org/10.1016/s0009-2614(00)00662-x

Timings for individual modules:

Sum of individual times          ...       26.307 sec (=   0.438 min)
Startup calculation              ...        1.382 sec (=   0.023 min)   5.3 %
SCF iterations                   ...       12.226 sec (=   0.204 min)  46.5 %
Property calculations            ...        0.112 sec (=   0.002 min)   0.4 %
SCF Gradient evaluation          ...       12.588 sec (=   0.210 min)  47.8 %
                             ****ORCA TERMINATED NORMALLY****
TOTAL RUN TIME: 0 days 0 hours 0 minutes 27 seconds 220 msec
  ------------------------------------------------------------------------
          * successful ORCA run, taking over control again...

         :::::::::::::::::::::::::::::::::::::::::::::::::::::
         ::                  ORCA SUMMARY                   ::
         :::::::::::::::::::::::::::::::::::::::::::::::::::::
         :: total energy            -350.308073215708 Eh    ::
         :: gradient norm              0.000246641874 Eh/a0 ::
         :: HOMO-LUMO gap              0.000000000000 eV    ::
         :::::::::::::::::::::::::::::::::::::::::::::::::::::

           -------------------------------------------------
          |                Property Printout                |
           -------------------------------------------------
           -------------------------------------------------
          |                Geometry Summary                 |
           -------------------------------------------------

      molecular mass/u    :      114.1857267
   center of mass at/Å    :       -0.0044579       0.0119866       0.0077905
  moments of inertia/u·Å² :        0.1804919E+03   0.3512147E+03   0.3945803E+03
rotational constants/cm⁻¹ :        0.9339826E-01   0.4799808E-01   0.4272294E-01

 * 17 selected distances

     #   Z          #   Z                                           value/Å
     1   6 C        2   6 C                                       1.5244360
     4   6 C        5   8 O                                       1.2290083
     6   6 C        7   6 C                                       1.5264595 (max)
     1   6 C        9   1 H                                       1.0941752
     1   6 C       10   1 H                                       1.0942102
     1   6 C       11   1 H                                       1.0941130
     2   6 C       12   1 H                                       1.0955957
     3   6 C       13   1 H                                       1.0952538
     3   6 C       14   1 H                                       1.0942694
     3   6 C       15   1 H                                       1.0922938 (min)
     6   6 C       16   1 H                                       1.0979412
     7   6 C       17   1 H                                       1.0945037
     7   6 C       18   1 H                                       1.0941353
     7   6 C       19   1 H                                       1.0946350
     8   6 C       20   1 H                                       1.0935725
     8   6 C       21   1 H                                       1.0943535
     8   6 C       22   1 H                                       1.0942870

 * 3 distinct bonds (by element types)

   Z      Z             #   av. dist./Å        max./Å        min./Å
   1 H    6 C          14     1.0945242     1.0979412     1.0922938
   6 C    6 C           2     1.5254478     1.5264595     1.5244360
   6 C    8 O           1     1.2290083     1.2290083     1.2290083


optimized geometry written to: xtbopt.coord


           -------------------------------------------------
          | TOTAL ENERGY             -350.308073215708 Eh   |
          | GRADIENT NORM               0.000246641874 Eh/α |
           -------------------------------------------------

------------------------------------------------------------------------
 * finished run on 2025/04/11 at 11:31:26.370     
------------------------------------------------------------------------
 total:
 * wall-time:     0 d,  0 h,  1 min, 18.916 sec
 *  cpu-time:     0 d,  0 h,  0 min,  2.688 sec
 * ratio c/w:     0.034 speedup
 SCF:
 * wall-time:     0 d,  0 h,  0 min, 24.307 sec
 *  cpu-time:     0 d,  0 h,  0 min,  0.909 sec
 * ratio c/w:     0.037 speedup
 ANC optimizer:
 * wall-time:     0 d,  0 h,  0 min, 54.473 sec
 *  cpu-time:     0 d,  0 h,  0 min,  1.524 sec
 * ratio c/w:     0.028 speedup

