
                                 *****************
                                 * O   R   C   A *
                                 *****************

                                            #,                                       
                                            ###                                      
                                            ####                                     
                                            #####                                    
                                            ######                                   
                                           ########,                                 
                                     ,,################,,,,,                         
                               ,,#################################,,                 
                          ,,##########################################,,             
                       ,#########################################, ''#####,          
                    ,#############################################,,   '####,        
                  ,##################################################,,,,####,       
                ,###########''''           ''''###############################       
              ,#####''   ,,,,##########,,,,          '''####'''          '####       
            ,##' ,,,,###########################,,,                        '##       
           ' ,,###''''                  '''############,,,                           
         ,,##''                                '''############,,,,        ,,,,,,###''
      ,#''                                            '''#######################'''  
     '                                                          ''''####''''         
             ,#######,   #######,   ,#######,      ##                                
            ,#'     '#,  ##    ##  ,#'     '#,    #''#        ,####,   ,####,        
            ##       ##  ##   ,#'  ##            #'  '#       #'       #'  '#        
            ##       ##  #######   ##           ,######,      #####,   #    #        
            '#,     ,#'  ##    ##  '#,     ,#' ,#      #,     #,   #   #,  ,#        
             '#######'   ##     ##  '#######'  #'      '#     '####' # '####'        



                #########################################################
                #                        -***-                          #
                #          Department of theory and spectroscopy        #
                #                                                       #
                #                      Frank Neese                      #
                #                                                       #
                #     Directorship, Architecture, Infrastructure        #
                #                    SHARK, DRIVERS                     #
                #        Core code/Algorithms in most modules           #
                #                                                       #
                #        Max Planck Institute fuer Kohlenforschung      #
                #                Kaiser Wilhelm Platz 1                 #
                #                 D-45470 Muelheim/Ruhr                 #
                #                      Germany                          #
                #                                                       #
                #                  All rights reserved                  #
                #                        -***-                          #
                #########################################################


                         Program Version 6.0.0  -   RELEASE  -


 With contributions from (in alphabetic order):
   Daniel Aravena         : Magnetic Suceptibility
   Michael Atanasov       : Ab Initio Ligand Field Theory (pilot matlab implementation)
   Alexander A. Auer      : GIAO ZORA, VPT2 properties, NMR spectrum
   Ute Becker             : All parallelization in ORCA, NUMFREQ, NUMCALC
   Giovanni Bistoni       : ED, misc. LED, open-shell LED, HFLD
   Martin Brehm           : Molecular dynamics
   Dmytro Bykov           : pre 5.0 version of the SCF Hessian
   Marcos Casanova-Páez   : Triplet and SCS-CIS(D). UHF-(DLPNO)-IP/EA/STEOM-CCSD. UHF-CVS-IP/STEOM-CCSD
   Vijay G. Chilkuri      : MRCI spin determinant printing, contributions to CSF-ICE
   Pauline Colinet        : FMM embedding
   Dipayan Datta          : RHF DLPNO-CCSD density
   Achintya Kumar Dutta   : EOM-CC, STEOM-CC
   Nicolas Foglia         : Exact transition moments, OPA infrastructure, MCD improvements
   Dmitry Ganyushin       : Spin-Orbit,Spin-Spin,Magnetic field MRCI
   Miquel Garcia          : C-PCM and meta-GGA Hessian, CCSD/C-PCM, Gaussian charge scheme
   Tiago L. C. Gouveia    : GS-ROHF, GS-ROCIS
   Yang Guo               : DLPNO-NEVPT2, F12-NEVPT2, CIM, IAO-localization
   Andreas Hansen         : Spin unrestricted coupled pair/coupled cluster methods
   Ingolf Harden          : AUTO-CI MPn and infrastructure 
   Benjamin Helmich-Paris : MC-RPA, TRAH-(SCF,CASSCF), AVAS, COSX integrals, SCF dyn. polar.
   Lee Huntington         : MR-EOM, pCC
   Robert Izsak           : Overlap fitted RIJCOSX, COSX-SCS-MP3, EOM
   Riya Kayal             : Wick's Theorem for AUTO-CI, AUTO-CI UHF-CCSDT
   Emily Kempfer          : AUTO-CI, RHF CISDT and CCSDT
   Christian Kollmar      : KDIIS, OOCD, Brueckner-CCSD(T), CCSD density, CASPT2, CASPT2-K, improved NEVPT2
   Axel Koslowski         : Symmetry handling
   Simone Kossmann        : Meta GGA functionals, TD-DFT gradient, OOMP2, (MP2 Hessian; deprecated post 5.0)
   Lucas Lang             : DCDCAS
   Marvin Lechner         : AUTO-CI (C++ implementation), FIC-MRCC
   Spencer Leger          : CASSCF response
   Dagmar Lenk            : GEPOL surface, SMD, ORCA-2-JSON
   Dimitrios Liakos       : Extrapolation schemes; Compound Job, initial MDCI parallelization
   Dimitrios Manganas     : Further ROCIS development; embedding schemes. LFT, Crystal Embedding
   Dimitrios Pantazis     : SARC Basis sets
   Anastasios Papadopoulos: AUTO-CI, single reference methods and gradients
   Taras Petrenko         : pre 6.0 DFT Hessian and TD-DFT gradient, (ASA, deprecated), ECA, 1-Electron XAS/XES, NRVS
   Peter Pinski           : DLPNO-MP2, DLPNO-MP2 Gradient
   Christoph Reimann      : Effective Core Potentials
   Marius Retegan         : Local ZFS, SOC
   Christoph Riplinger    : Optimizer, TS searches, QM/MM, DLPNO-CCSD(T), (RO)-DLPNO pert. Triples
   Michael Roemelt        : Original ROCIS implementation
   Masaaki Saitow         : Open-shell DLPNO-CCSD energy and density
   Barbara Sandhoefer     : DKH picture change effects
   Kantharuban Sivalingam : CASSCF convergence/infrastructure, NEVPT2 and variants, FIC-MRCI
   Bernardo de Souza      : ESD, SOC TD-DFT
   Georgi Stoychev        : AutoAux, RI-MP2 NMR, DLPNO-MP2 response, X2C
   Van Anh Tran           : RI-MP2 g-tensors
   Willem Van den Heuvel  : Paramagnetic NMR
   Zikuan Wang            : NOTCH, Electric field optimization 
   Frank Wennmohs         : Technical directorship and infrastructure
   Hang Xu                : AUTO-CI-Response properties 


 We gratefully acknowledge several colleagues who have allowed us to
 interface, adapt or use parts of their codes:
   Stefan Grimme, W. Hujo, H. Kruse, P. Pracht,  : VdW corrections, initial TS optimization,
                  C. Bannwarth, S. Ehlert,         DFT functionals, gCP, sTDA/sTD-DF
                  L. Wittmann, M. Mueller
   Ed Valeev, F. Pavosevic, A. Kumar             : LibInt (2-el integral package), F12 methods
   Garnet Chan, S. Sharma, J. Yang, R. Olivares  : DMRG
   Ulf Ekstrom                                   : XCFun DFT Library
   Mihaly Kallay                                 : mrcc  (arbitrary order and MRCC methods)
   Frank Weinhold                                : gennbo (NPA and NBO analysis)
   Simon Mueller                                 : openCOSMO-RS
   Christopher J. Cramer and Donald G. Truhlar   : smd solvation model
   Lars Goerigk                                  : TD-DFT with DH, B97 family of functionals
   V. Asgeirsson, H. Jonsson                     : NEB implementation
   FAccTs GmbH                                   : IRC, NEB, NEB-TS, DLPNO-Multilevel, CI-OPT
                                                   MM, QMMM, 2- and 3-layer-ONIOM, Crystal-QMMM,
                                                   LR-CPCM, SF, NACMEs, symmetry and pop. for TD-DFT,
                                                   nearIR, NL-DFT gradient (VV10), updates on ESD,
                                                   ML-optimized integration grids, MBIS, APM,
                                                   GOAT, DOCKER, SOLVATOR, interface openCOSMO-RS
   S Lehtola, MJT Oliveira, MAL Marques          : LibXC Library
   Liviu Ungur et al                             : ANISO software


 Your calculation uses the libint2 library for the computation of 2-el integrals
 For citations please refer to: http://libint.valeyev.net

 Your ORCA version has been built with support for libXC version: 6.2.2
 For citations please refer to: https://libxc.gitlab.io

 This ORCA versions uses:
   CBLAS   interface :  Fast vector & matrix operations
   LAPACKE interface :  Fast linear algebra routines
   SCALAPACK package :  Parallel linear algebra routines
   Shared memory     :  Shared parallel matrices
   BLAS/LAPACK       :  OpenBLAS 0.3.27  USE64BITINT DYNAMIC_ARCH NO_AFFINITY SkylakeX SINGLE_THREADED
        Core in use  :  SkylakeX
   Copyright (c) 2011-2014, The OpenBLAS Project


Your calculation utilizes the geometrical counterpoise correction gCP
Please cite in your paper:
H.Kruse, S. Grimme J.Chem.Phys., 136, (2012), 154101 
   

Your calculation utilizes the DFT-NL dispersion correction.
Cite in your paper:
Vydrov, O. A.; Van Voorhis, T. J. Chem. Phys. 2010, 133, 244103
Hujo, W.; Grimme, S. J. Chem. Theory Comput. 2011, 7, 3866 
   

================================================================================

----- Orbital basis set information -----
Your calculation utilizes the basis: def2-TZVP
   F. Weigend and R. Ahlrichs, Phys. Chem. Chem. Phys. 7, 3297 (2005).

----- AuxJ basis set information -----
Your calculation utilizes the auxiliary basis: def2/J
   F. Weigend, Phys. Chem. Chem. Phys. 8, 1057 (2006).

================================================================================
                                        WARNINGS
                       Please study these warnings very carefully!
================================================================================


================================================================================
                                       INPUT FILE
================================================================================
NAME = sp_gas.inp
|  1> ! wb97x-v def2-tzvp def2/J RIJCOSX DEFGRID2 scfconv7 GCP(DFT/TZ) printgap
|  2> %output
|  3>     printlevel normal
|  4> end
|  5> * xyz 0 1
|  6> C 1.892566567421017 -1.1685052659725204 -0.46670145829668885
|  7> C 1.192461665726232 -0.028672263459766176 0.2565054212153333
|  8> C 2.0649039602889805 1.2132739587902608 0.35442167516560413
|  9> O -0.013345339005957876 0.3217085603822632 -0.4675062616135301
| 10> C -1.2404400112936904 0.1334245868892745 0.2702193340120151
| 11> C -2.3196223225441472 0.877384925840573 -0.49468631095281
| 12> C -1.5739782352081724 -1.3448285575032255 0.42640986240564754
| 13> H 2.810542171284807 -1.4493237667072358 0.06025132415558114
| 14> H 1.2452520664764892 -2.04877144236226 -0.5276286140164976
| 15> H 2.1609181016844126 -0.8630785335885633 -1.4842662325854765
| 16> H 0.914497468135319 -0.3541527138159975 1.2677917504073979
| 17> H 2.985216967371721 0.9936380076208422 0.9055489038258833
| 18> H 1.535164700671378 2.018224669598305 0.87391290694611
| 19> H 2.339259649207491 1.5644859272628802 -0.6465988804603624
| 20> H -1.119787537116972 0.5888139340561291 1.2661150115917652
| 21> H -3.276717961538065 0.795383710862806 0.02885383656680933
| 22> H -2.0678794863658494 1.9377464823532222 -0.5920156250840627
| 23> H -2.439030132038479 0.4515307488909466 -1.4970771316038274
| 24> H -0.7943050280275269 -1.879197408629936 0.97769104491417
| 25> H -1.6911375150687986 -1.8116599958887591 -0.5581408327294662
| 26> H -2.5130990994703386 -1.460144095685974 0.9782304444936796
| 27> *
| 28> 
| 29>                          ****END OF INPUT****
================================================================================

                       ****************************
                       * Single Point Calculation *
                       ****************************

---------------------------------
CARTESIAN COORDINATES (ANGSTROEM)
---------------------------------
  C      1.892567   -1.168505   -0.466701
  C      1.192462   -0.028672    0.256505
  C      2.064904    1.213274    0.354422
  O     -0.013345    0.321709   -0.467506
  C     -1.240440    0.133425    0.270219
  C     -2.319622    0.877385   -0.494686
  C     -1.573978   -1.344829    0.426410
  H      2.810542   -1.449324    0.060251
  H      1.245252   -2.048771   -0.527629
  H      2.160918   -0.863079   -1.484266
  H      0.914497   -0.354153    1.267792
  H      2.985217    0.993638    0.905549
  H      1.535165    2.018225    0.873913
  H      2.339260    1.564486   -0.646599
  H     -1.119788    0.588814    1.266115
  H     -3.276718    0.795384    0.028854
  H     -2.067879    1.937746   -0.592016
  H     -2.439030    0.451531   -1.497077
  H     -0.794305   -1.879197    0.977691
  H     -1.691138   -1.811660   -0.558141
  H     -2.513099   -1.460144    0.978230

----------------------------
CARTESIAN COORDINATES (A.U.)
----------------------------
  NO LB      ZA    FRAG     MASS         X           Y           Z
   0 C     6.0000    0    12.011    3.576433   -2.208155   -0.881938
   1 C     6.0000    0    12.011    2.253426   -0.054183    0.484725
   2 C     6.0000    0    12.011    3.902103    2.292756    0.669760
   3 O     8.0000    0    15.999   -0.025219    0.607941   -0.883459
   4 C     6.0000    0    12.011   -2.344092    0.252136    0.510641
   5 C     6.0000    0    12.011   -4.383451    1.658017   -0.934822
   6 C     6.0000    0    12.011   -2.974388   -2.541358    0.805798
   7 H     1.0000    0     1.008    5.311155   -2.738825    0.113859
   8 H     1.0000    0     1.008    2.353185   -3.871617   -0.997074
   9 H     1.0000    0     1.008    4.083543   -1.630982   -2.804857
  10 H     1.0000    0     1.008    1.728150   -0.669252    2.395779
  11 H     1.0000    0     1.008    5.641243    1.877704    1.711239
  12 H     1.0000    0     1.008    2.901041    3.813892    1.651456
  13 H     1.0000    0     1.008    4.420560    2.956450   -1.221895
  14 H     1.0000    0     1.008   -2.116092    1.112697    2.392611
  15 H     1.0000    0     1.008   -6.192100    1.503057    0.054526
  16 H     1.0000    0     1.008   -3.907726    3.661810   -1.118747
  17 H     1.0000    0     1.008   -4.609099    0.853269   -2.829066
  18 H     1.0000    0     1.008   -1.501019   -3.551168    1.847568
  19 H     1.0000    0     1.008   -3.195787   -3.423541   -1.054733
  20 H     1.0000    0     1.008   -4.749069   -2.759272    1.848588

--------------------------------
INTERNAL COORDINATES (ANGSTROEM)
--------------------------------
 C      0   0   0     0.000000000000     0.00000000     0.00000000
 C      1   0   0     1.520655890584     0.00000000     0.00000000
 C      2   1   0     1.520912084603   112.24709424     0.00000000
 O      2   1   3     1.449458578660   109.06497758   119.86696375
 C      4   2   1     1.444109152340   114.84702145   117.73828374
 C      5   4   2     1.517627125663   106.43018707   165.58332380
 C      5   4   2     1.523442019533   111.40294084   287.70825343
 H      1   2   3     1.095087884408   110.44439834    59.91982649
 H      1   2   3     1.094347624264   110.92116666   180.18258166
 H      1   2   3     1.095781047778   110.21011884   300.36673857
 H      2   1   3     1.098135537316   109.41122815   238.68050793
 H      3   2   1     1.094969042586   110.53268739   299.79771114
 H      3   2   1     1.094733058744   110.69529675   179.70064361
 H      3   2   1     1.095747709843   110.27613710    59.49609572
 H      5   4   2     1.101700811319   108.35116462    48.11615232
 H      6   5   4     1.094006648748   110.13087216   181.44955720
 H      6   5   4     1.094172784110   110.87260853   301.48476051
 H      6   5   4     1.095626470253   110.37020733    61.97051677
 H      7   5   4     1.094235496243   111.68583533    61.01302024
 H      7   5   4     1.095900524689   110.15997029   300.10116066
 H      7   5   4     1.095331742375   109.96957092   180.65046150

---------------------------
INTERNAL COORDINATES (A.U.)
---------------------------
 C      0   0   0     0.000000000000     0.00000000     0.00000000
 C      1   0   0     2.873623177138     0.00000000     0.00000000
 C      2   1   0     2.874107313670   112.24709424     0.00000000
 O      2   1   3     2.739079756130   109.06497758   119.86696375
 C      4   2   1     2.728970805412   114.84702145   117.73828374
 C      5   4   2     2.867899640913   106.43018707   165.58332380
 C      5   4   2     2.878888197825   111.40294084   287.70825343
 H      1   2   3     2.069416194107   110.44439834    59.91982649
 H      1   2   3     2.068017305167   110.92116666   180.18258166
 H      1   2   3     2.070726083042   110.21011884   300.36673857
 H      2   1   3     2.075175423454   109.41122815   238.68050793
 H      3   2   1     2.069191615610   110.53268739   299.79771114
 H      3   2   1     2.068745670776   110.69529675   179.70064361
 H      3   2   1     2.070663083475   110.27613710    59.49609572
 H      5   4   2     2.081912814911   108.35116462    48.11615232
 H      6   5   4     2.067372954822   110.13087216   181.44955720
 H      6   5   4     2.067686905157   110.87260853   301.48476051
 H      6   5   4     2.070433973853   110.37020733    61.97051677
 H      7   5   4     2.067805413914   111.68583533    61.01302024
 H      7   5   4     2.070951861683   110.15997029   300.10116066
 H      7   5   4     2.069877018880   109.96957092   180.65046150

---------------------
BASIS SET INFORMATION
---------------------
There are 3 groups of distinct atoms

 Group   1 Type C   : 11s6p2d1f contracted to 5s3p2d1f pattern {62111/411/11/1}
 Group   2 Type O   : 11s6p2d1f contracted to 5s3p2d1f pattern {62111/411/11/1}
 Group   3 Type H   : 5s1p contracted to 3s1p pattern {311/1}

Atom   0C    basis set group =>   1
Atom   1C    basis set group =>   1
Atom   2C    basis set group =>   1
Atom   3O    basis set group =>   2
Atom   4C    basis set group =>   1
Atom   5C    basis set group =>   1
Atom   6C    basis set group =>   1
Atom   7H    basis set group =>   3
Atom   8H    basis set group =>   3
Atom   9H    basis set group =>   3
Atom  10H    basis set group =>   3
Atom  11H    basis set group =>   3
Atom  12H    basis set group =>   3
Atom  13H    basis set group =>   3
Atom  14H    basis set group =>   3
Atom  15H    basis set group =>   3
Atom  16H    basis set group =>   3
Atom  17H    basis set group =>   3
Atom  18H    basis set group =>   3
Atom  19H    basis set group =>   3
Atom  20H    basis set group =>   3
---------------------------------
AUXILIARY/J BASIS SET INFORMATION
---------------------------------
There are 3 groups of distinct atoms

 Group   1 Type C   : 12s5p4d2f1g contracted to 6s4p3d1f1g pattern {711111/2111/211/2/1}
 Group   2 Type O   : 12s5p4d2f1g contracted to 6s4p3d1f1g pattern {711111/2111/211/2/1}
 Group   3 Type H   : 5s2p1d contracted to 3s1p1d pattern {311/2/1}

Atom   0C    basis set group =>   1
Atom   1C    basis set group =>   1
Atom   2C    basis set group =>   1
Atom   3O    basis set group =>   2
Atom   4C    basis set group =>   1
Atom   5C    basis set group =>   1
Atom   6C    basis set group =>   1
Atom   7H    basis set group =>   3
Atom   8H    basis set group =>   3
Atom   9H    basis set group =>   3
Atom  10H    basis set group =>   3
Atom  11H    basis set group =>   3
Atom  12H    basis set group =>   3
Atom  13H    basis set group =>   3
Atom  14H    basis set group =>   3
Atom  15H    basis set group =>   3
Atom  16H    basis set group =>   3
Atom  17H    basis set group =>   3
Atom  18H    basis set group =>   3
Atom  19H    basis set group =>   3
Atom  20H    basis set group =>   3

Checking for AutoStart:
The File: sp_gas.gbw exists
Trying to determine its content:
     ... Fine, the file contains calculation information
     ... Fine, the calculation information was read
     ... Fine, the file contains a basis set
     ... Fine, the basis set was read
     ... Fine, the file contains a geometry
     ... Fine, the geometry was read
     ... Fine, the file contains a set of orbitals
     ... Fine, the orbitals can be read
     => possible old guess file was deleted
     => GBW file was renamed to GES file
     => GES file is set as startup file
     => Guess is set to MORead
     ... now leaving AutoStart

------------------------------------------------------------------------------
                             ORCA STARTUP CALCULATIONS
                           -- RI-GTO INTEGRALS CHOSEN --
------------------------------------------------------------------------------
------------------------------------------------------------------------------
                   ___                                                        
                  /   \      - P O W E R E D   B Y -                         
                 /     \                                                     
                 |  |  |   _    _      __       _____    __    __             
                 |  |  |  | |  | |    /  \     |  _  \  |  |  /  |          
                  \  \/   | |  | |   /    \    | | | |  |  | /  /          
                 / \  \   | |__| |  /  /\  \   | |_| |  |  |/  /          
                |  |  |   |  __  | /  /__\  \  |    /   |      \           
                |  |  |   | |  | | |   __   |  |    \   |  |\   \          
                \     /   | |  | | |  |  |  |  | |\  \  |  | \   \       
                 \___/    |_|  |_| |__|  |__|  |_| \__\ |__|  \__/        
                                                                              
                      - O R C A' S   B I G   F R I E N D -                    
                                      &                                       
                       - I N T E G R A L  F E E D E R -                       
                                                                              
 v1 FN, 2020, v2 2021, v3 2022-2024                                           
------------------------------------------------------------------------------


----------------------
SHARK INTEGRAL PACKAGE
----------------------

Number of atoms                             ...     21
Number of basis functions                   ...    301
Number of shells                            ...    133
Maximum angular momentum                    ...      3
Integral batch strategy                     ... SHARK/LIBINT Hybrid
RI-J (if used) integral strategy            ... SPLIT-RIJ (Revised 2003 algorithm where possible)
Printlevel                                  ...      1
Contraction scheme used                     ... SEGMENTED contraction
Prescreening option                         ... SCHWARTZ
   Thresh                                   ... 3.000e-11
   Tcut                                     ... 1.000e-12
   Tpresel                                  ... 1.000e-12 
Coulomb Range Separation                    ... NOT USED
Exchange Range Separation                   ... Long Range
   Mu parameter                             ... 3.000e-01
   Scaling (regular/separated)              ... 1.670e-01 8.330e-01
Multipole approximations                    ... NOT USED
Finite Nucleus Model                        ... NOT USED
CABS basis                                  ... NOT available
Auxiliary Coulomb fitting basis             ... AVAILABLE
   # of basis functions in Aux-J            ...    497
   # of shells in Aux-J                     ...    175
   Maximum angular momentum in Aux-J        ...      4
Auxiliary J/K fitting basis                 ... NOT available
Auxiliary Correlation fitting basis         ... NOT available
Auxiliary 'external' fitting basis          ... NOT available

Checking pre-screening integrals            ... done (  0.0 sec) Dimension = 133
Check shell pair data                       ... done (  0.0 sec)
Shell pair information
Shell pair cut-off parameter TPreSel        ...   1.0e-12
Total number of shell pairs                 ...      8911
Shell pairs after pre-screening             ...      8224
Total number of primitive shell pairs       ...     25396
Primitive shell pairs kept                  ...     17808
          la=0 lb=0:   2704 shell pairs
          la=1 lb=0:   2479 shell pairs
          la=1 lb=1:    591 shell pairs
          la=2 lb=0:   1012 shell pairs
          la=2 lb=1:    467 shell pairs
          la=2 lb=2:    102 shell pairs
          la=3 lb=0:    506 shell pairs
          la=3 lb=1:    237 shell pairs
          la=3 lb=2:     98 shell pairs
          la=3 lb=3:     28 shell pairs

Calculating one electron integrals          ... done (  0.0 sec)
Calculating RI/J V-Matrix + Cholesky decomp.... done (  0.1 sec)
Calculating Nuclear repulsion               ... done (  0.0 sec) ENN=    336.922922176700 Eh

Diagonalization of the overlap matrix:
Smallest eigenvalue                        ... 2.579e-04
Time for diagonalization                   ...    0.007 sec
Threshold for overlap eigenvalues          ... 1.000e-07
Number of eigenvalues below threshold      ... 0
Time for construction of square roots      ...    0.025 sec
Total time needed                          ...    0.042 sec

-------------------
DFT GRID GENERATION
-------------------

General Integration Accuracy     IntAcc      ... 4.388
Radial Grid Type                 RadialGrid  ... OptM3 with GC (2021)
Angular Grid (max. ang.)         AngularGrid ... 4 (Lebedev-302)
Angular grid pruning method      GridPruning ... 4 (adaptive)
Weight generation scheme         WeightScheme... mBecke (2022)
Basis function cutoff            BFCut       ... 1.0000e-11
Integration weight cutoff        WCut        ... 1.0000e-14
Partially contracted basis set               ... off
Rotationally invariant grid construction     ... off
Angular grids for H and He will be reduced by one unit

Total number of grid points                  ...    86937
Total number of batches                      ...     1367
Average number of points per batch           ...       63
Average number of grid points per atom       ...     4140

--------------------
COSX GRID GENERATION
--------------------

GRIDX 1
-------
General Integration Accuracy     IntAcc      ... 3.816
Radial Grid Type                 RadialGrid  ... OptM3 with GC (2021)
Angular Grid (max. ang.)         AngularGrid ... 1 (Lebedev-50)
Angular grid pruning method      GridPruning ... 4 (adaptive)
Weight generation scheme         WeightScheme... mBecke (2022)
Basis function cutoff            BFCut       ... 1.0000e-11
Integration weight cutoff        WCut        ... 1.0000e-14
Partially contracted basis set               ... on
Rotationally invariant grid construction     ... off
Angular grids for H and He will be reduced by one unit

Total number of grid points                  ...    11187
Total number of batches                      ...      102
Average number of points per batch           ...      109
Average number of grid points per atom       ...      533
UseSFitting                                  ... on

GRIDX 2
-------
General Integration Accuracy     IntAcc      ... 4.020
Radial Grid Type                 RadialGrid  ... OptM3 with GC (2021)
Angular Grid (max. ang.)         AngularGrid ... 2 (Lebedev-110)
Angular grid pruning method      GridPruning ... 4 (adaptive)
Weight generation scheme         WeightScheme... mBecke (2022)
Basis function cutoff            BFCut       ... 1.0000e-11
Integration weight cutoff        WCut        ... 1.0000e-14
Partially contracted basis set               ... on
Rotationally invariant grid construction     ... off
Angular grids for H and He will be reduced by one unit

Total number of grid points                  ...    23100
Total number of batches                      ...      191
Average number of points per batch           ...      120
Average number of grid points per atom       ...     1100
UseSFitting                                  ... on

GRIDX 3
-------
General Integration Accuracy     IntAcc      ... 4.338
Radial Grid Type                 RadialGrid  ... OptM3 with GC (2021)
Angular Grid (max. ang.)         AngularGrid ... 3 (Lebedev-194)
Angular grid pruning method      GridPruning ... 4 (adaptive)
Weight generation scheme         WeightScheme... mBecke (2022)
Basis function cutoff            BFCut       ... 1.0000e-11
Integration weight cutoff        WCut        ... 1.0000e-14
Partially contracted basis set               ... on
Rotationally invariant grid construction     ... off
Angular grids for H and He will be reduced by one unit

Total number of grid points                  ...    50282
Total number of batches                      ...      403
Average number of points per batch           ...      124
Average number of grid points per atom       ...     2394
UseSFitting                                  ... on
Initializing property integral containers    ... done (  0.0 sec)

SHARK setup successfully completed in   2.3 seconds

Maximum memory used throughout the entire STARTUP-calculation: 48.7 MB
-------------------------------------------------------------------------------
                                 ORCA GUESS
                   Start orbitals & Density for SCF / CASSCF
-------------------------------------------------------------------------------

------------
SCF SETTINGS
------------
Hamiltonian:
 Density Functional     Method          .... DFT(GTOs)
 Exchange Functional    Exchange        .... WB97X-V
 Correlation Functional Correlation     .... WB97X-V
 Gradients option       PostSCFGGA      .... off
 Hybrid DFT is turned on
   Fraction HF Exchange ScalHFX         ....  0.167000
   Scaling of DF-GGA-X  ScalDFX         ....  0.000000
   Scaling of DF-GGA-C  ScalDFC         ....  1.000000
   Scaling of DF-LDA-C  ScalLDAC        ....  1.000000
   Perturbative correction              ....  0.000000
 Long-range corrected/Screened/Range-Separated Hybrid DFT is turned on
   Amount of maximum screened exact exchange              ....  0.833000
   Range separation parameter mu (erf(mu*r12)/r12)        ....  0.300000
   NL short-range parameter             ....  6.000000
   NL long-range parameter              ....  0.010000
 RI-approximation to the Coulomb term is turned on
   Number of AuxJ basis functions       .... 497
   RIJ-COSX (HFX calculated with COS-X)).... on


General Settings:
 Integral files         IntName         .... sp_gas
 Hartree-Fock type      HFTyp           .... RHF
 Total Charge           Charge          ....    0
 Multiplicity           Mult            ....    1
 Number of Electrons    NEL             ....   58
 Basis Dimension        Dim             ....  301
 Nuclear Repulsion      ENuc            ....    336.9229221767 Eh

Convergence Acceleration:
 AO-DIIS                CNVDIIS         .... on
   Start iteration      DIISMaxIt       ....    12
   Startup error        DIISStart       ....  0.200000
   # of expansion vecs  DIISMaxEq       ....     5
   Bias factor          DIISBfac        ....   1.050
   Max. coefficient     DIISMaxC        ....  10.000
 MO-DIIS                CNVKDIIS        .... off
 Trust-Rad. Augm. Hess. CNVTRAH         .... auto
   Auto Start mean grad. ratio tolernc. ....  1.125000
   Auto Start start iteration           ....     1
   Auto Start num. interpolation iter.  ....    10
   Max. Number of Micro iterations      ....    24
   Max. Number of Macro iterations      .... Maxiter - #DIIS iter
   Number of Davidson start vectors     ....     2
   Converg. threshold    (grad. norm)   ....   1.000e-04
   Grad. Scal. Fac. for Micro threshold ....   0.100
   Minimum threshold for Micro iter.    ....   1.000e-02
   NR start threshold (gradient norm)   ....   1.000e-04
   Initial trust radius                 ....   0.400
   Minimum AH scaling param. (alpha)    ....   1.000
   Maximum AH scaling param. (alpha)    .... 1000.000
   Quad. conv. algorithm                .... NR
   White noise on init. David. guess    .... on
   Maximum white noise                  ....   0.010
   Pseudo random numbers                .... off
   Inactive MOs                         .... canonical
   Orbital update algorithm             .... Taylor
   Preconditioner                       .... Diag
   Full preconditioner red. dimension   ....   250
 SOSCF                  CNVSOSCF        .... on
   Start iteration      SOSCFMaxIt      ....   150
   Startup grad/error   SOSCFStart      ....  0.003300
   Hessian update       SOSCFHessUp     .... L-BFGS
 Level Shifting         CNVShift        .... on
   Level shift para.    LevelShift      ....    0.2500
   Turn off err/grad.   ShiftErr        ....    0.0010
 Zerner damping         CNVZerner       .... off
 Static damping         CNVDamp         .... on
   Fraction old density DampFac         ....    0.7000
   Max. Damping (<1)    DampMax         ....    0.9800
   Min. Damping (>=0)   DampMin         ....    0.0000
   Turn off err/grad.   DampErr         ....    0.1000

SCF Procedure:
 Maximum # iterations   MaxIter         ....   125
 SCF integral mode      SCFMode         .... Direct
   Integral package                     .... SHARK and LIBINT hybrid scheme
 Reset frequency        DirectResetFreq ....    20
 Integral Threshold     Thresh          ....  3.000e-11 Eh
 Primitive CutOff       TCut            ....  1.000e-12 Eh

Convergence Tolerance:
 Convergence Check Mode ConvCheckMode   .... Total+1el-Energy
 Convergence forced     ConvForced      .... 0
 Energy Change          TolE            ....  1.000e-07 Eh
 1-El. energy change                    ....  1.000e-04 Eh
 Orbital Gradient       TolG            ....  1.000e-04
 Orbital Rotation angle TolX            ....  1.000e-04
 DIIS Error             TolErr          ....  1.000e-07

---------------------
INITIAL GUESS: MOREAD
---------------------
Guess MOs are being read from file: sp_gas.ges
Input Geometry matches current geometry (good)
Atom 0: N(Shells)= 11 and 9 - projection required
Input basis set needs projection
NBasis(read)= 208
NBasis(calc)= 301
Basis set overlap was calculated
Using GuessMode=FMatrix for the initial guess
C*T matrix was formed
Effective Fockian was calculated
Effective Fockian was diagonalized
Initial density was built
                      ------------------
                      INITIAL GUESS DONE (   0.1 sec)
                      ------------------
             **** ENERGY FILE WAS UPDATED (sp_gas.en.tmp) ****
Finished Guess after   0.3 sec
Maximum memory used throughout the entire GUESS-calculation: 26.8 MB

-------------------------------------------------------------------------------------------
                                      ORCA LEAN-SCF
                              memory conserving SCF solver
-------------------------------------------------------------------------------------------

----------------------------------------D-I-I-S--------------------------------------------
Iteration    Energy (Eh)           Delta-E    RMSDP     MaxDP     DIISErr   Damp  Time(sec)
-------------------------------------------------------------------------------------------
               ***  Starting incremental Fock matrix formation  ***
    1    -312.5232198692614247     0.00e+00  8.42e-04  2.25e-02  6.00e-02  0.700  16.8
    2    -312.5279685860754171    -4.75e-03  7.50e-04  2.08e-02  4.38e-02  0.700   8.4
                               ***Turning on AO-DIIS***
    3    -312.5314763194389798    -3.51e-03  6.20e-04  1.75e-02  3.15e-02  0.700   8.3
    4    -312.5340180926007179    -2.54e-03  1.57e-03  4.43e-02  2.21e-02  0.000   8.2
                              *** Initializing SOSCF ***
---------------------------------------S-O-S-C-F--------------------------------------
Iteration    Energy (Eh)           Delta-E    RMSDP     MaxDP     MaxGrad    Time(sec)
--------------------------------------------------------------------------------------
    5    -312.5405112509246237    -6.49e-03  9.19e-05  2.55e-03  1.11e-03     8.6
               *** Restarting incremental Fock matrix formation ***
    6    -312.5405445761449528    -3.33e-05  4.20e-05  1.24e-03  2.26e-04    16.8
    7    -312.5405472372817712    -2.66e-06  2.11e-05  6.08e-04  1.73e-04    12.6
    8    -312.5405485076543073    -1.27e-06  5.69e-06  1.57e-04  2.32e-05    12.1
                  *** Gradient check signals convergence ***

               *****************************************************
               *                     SUCCESS                       *
               *           SCF CONVERGED AFTER   8 CYCLES          *
               *****************************************************


------------------
NL GRID GENERATION
------------------

General Integration Accuracy     IntAcc      ... 4.004
Radial Grid Type                 RadialGrid  ... OptM3 with GC (2021)
Angular Grid (max. ang.)         AngularGrid ... 2 (Lebedev-110)
Angular grid pruning method      GridPruning ... 4 (adaptive)
Weight generation scheme         WeightScheme... mBecke (2022)
Basis function cutoff            BFCut       ... 1.0000e-10
Integration weight cutoff        WCut        ... 1.0000e-14
Partially contracted basis set               ... off
Rotationally invariant grid construction     ... off
Angular grids for H and He will be reduced by one unit

Total number of grid points                  ...    25563
Total number of batches                      ...      412
Average number of points per batch           ...       62
Average number of grid points per atom       ...     1217
Final grid set up in    0.2 sec

-------------------------------------------------------------------------------
                    post-SCF DFT-NL dispersion correction                      
-------------------------------------------------------------------------------

SCF Energy:     -312.540548508 
NL    Energy:      0.220394865 
SC+NL Energy:   -312.320153643 
NL done in  :              2.5 sec
-------------------------------------------------------------------------------
Recomputing exchange energy using gridx3       ... done (   31.435 sec)
Old exchange energy                            :    -14.941366924 Eh
New exchange energy                            :    -14.941377170 Eh
Exchange energy change after final integration :     -0.000010246 Eh
Total energy after final integration           :   -312.320163889 Eh
             **** ENERGY FILE WAS UPDATED (sp_gas.en.tmp) ****

----------------
TOTAL SCF ENERGY
----------------

Total Energy       :       -312.32016388850826 Eh           -8498.66372 eV

Components:
Nuclear Repulsion  :        336.92292217670047 Eh            9168.13881 eV
Electronic Energy  :       -649.46347068435477 Eh          -17672.79951 eV
One Electron Energy:      -1089.33799201987063 Eh          -29642.39375 eV
Two Electron Energy:        439.87452133551585 Eh           11969.59425 eV

Virial components:
Potential Energy   :       -623.21587735534888 Eh          -16958.56618 eV
Kinetic Energy     :        310.89571346684062 Eh            8459.90246 eV
Virial Ratio       :          2.00458176282260

DFT components:
N(Alpha)           :       29.000018476383 electrons
N(Beta)            :       29.000018476383 electrons
N(Total)           :       58.000036952767 electrons
E(X)               :      -29.319255394156 Eh       
E(C)               :       -2.327155706808 Eh       
NL Energy, E(C,NL) :        0.220394865005 Eh       
E(XC)              :      -31.426016235958 Eh       

---------------
SCF CONVERGENCE
---------------

  Last Energy change         ...    1.2704e-06  Tolerance :   1.0000e-07
  Last MAX-Density change    ...    1.5658e-04  Tolerance :   1.0000e-05
  Last RMS-Density change    ...    5.6884e-06  Tolerance :   1.0000e-06
  Last DIIS Error            ...    1.1069e-03  Tolerance :   1.0000e-07
  Last Orbital Gradient      ...    2.3153e-05  Tolerance :   1.0000e-04
  Last Orbital Rotation      ...    2.7758e-05  Tolerance :   1.0000e-04


----------------
ORBITAL ENERGIES
----------------

  NO   OCC          E(Eh)            E(eV) 
   0   2.0000     -21.659034      -589.3723 
   1   2.0000     -12.094992      -329.1215 
   2   2.0000     -12.093501      -329.0809 
   3   2.0000     -12.034275      -327.4693 
   4   2.0000     -12.031340      -327.3894 
   5   2.0000     -12.030991      -327.3799 
   6   2.0000     -12.030898      -327.3774 
   7   2.0000      -1.660413       -45.1821 
   8   2.0000      -1.315430       -35.7947 
   9   2.0000      -1.266932       -34.4750 
  10   2.0000      -1.183502       -32.2047 
  11   2.0000      -1.179104       -32.0850 
  12   2.0000      -1.112271       -30.2664 
  13   2.0000      -1.058531       -28.8041 
  14   2.0000      -0.973687       -26.4954 
  15   2.0000      -0.942103       -25.6359 
  16   2.0000      -0.933944       -25.4139 
  17   2.0000      -0.869455       -23.6591 
  18   2.0000      -0.866887       -23.5892 
  19   2.0000      -0.842897       -22.9364 
  20   2.0000      -0.825500       -22.4630 
  21   2.0000      -0.817244       -22.2383 
  22   2.0000      -0.811044       -22.0696 
  23   2.0000      -0.807187       -21.9647 
  24   2.0000      -0.804973       -21.9044 
  25   2.0000      -0.785225       -21.3671 
  26   2.0000      -0.779719       -21.2172 
  27   2.0000      -0.764580       -20.8053 
  28   2.0000      -0.757830       -20.6216 
  29   0.0000      -0.167500        -4.5579 
  30   0.0000      -0.103296        -2.8108 
  31   0.0000      -0.033533        -0.9125 
  32   0.0000      -0.012956        -0.3525 
  33   0.0000      -0.002611        -0.0710 
  34   0.0000      -0.000148        -0.0040 
  35   0.0000       0.006558         0.1784 
  36   0.0000       0.009649         0.2626 
  37   0.0000       0.016933         0.4608 
  38   0.0000       0.032281         0.8784 
  39   0.0000       0.045527         1.2388 
*Only the first 10 virtual orbitals were printed.

                    ********************************
                    * MULLIKEN POPULATION ANALYSIS *
                    ********************************

-----------------------
MULLIKEN ATOMIC CHARGES
-----------------------
   0 C :   -0.320372
   1 C :    0.084785
   2 C :   -0.318288
   3 O :   -0.305767
   4 C :    0.074985
   5 C :   -0.318210
   6 C :   -0.333392
   7 H :    0.102555
   8 H :    0.111461
   9 H :    0.110713
  10 H :    0.066208
  11 H :    0.102508
  12 H :    0.108627
  13 H :    0.110913
  14 H :    0.063211
  15 H :    0.100418
  16 H :    0.115415
  17 H :    0.109977
  18 H :    0.109904
  19 H :    0.113444
  20 H :    0.110906
Sum of atomic charges:    0.0000000

--------------------------------
MULLIKEN REDUCED ORBITAL CHARGES
--------------------------------
  0 C s       :     3.226125  s :     3.226125
      pz      :     1.029231  p :     3.037705
      px      :     1.016589
      py      :     0.991885
      dz2     :     0.014034  d :     0.053235
      dxz     :     0.010586
      dyz     :     0.005709
      dx2y2   :     0.010994
      dxy     :     0.011911
      f0      :     0.000376  f :     0.003307
      f+1     :     0.000333
      f-1     :     0.000619
      f+2     :     0.000275
      f-2     :     0.000569
      f+3     :     0.000602
      f-3     :     0.000533

  1 C s       :     3.143322  s :     3.143322
      pz      :     0.886066  p :     2.578447
      px      :     0.762550
      py      :     0.929831
      dz2     :     0.034246  d :     0.181001
      dxz     :     0.030909
      dyz     :     0.029306
      dx2y2   :     0.040191
      dxy     :     0.046350
      f0      :     0.000942  f :     0.012444
      f+1     :     0.002013
      f-1     :     0.000984
      f+2     :     0.001551
      f-2     :     0.002278
      f+3     :     0.002035
      f-3     :     0.002641

  2 C s       :     3.227541  s :     3.227541
      pz      :     1.061573  p :     3.033591
      px      :     0.999285
      py      :     0.972732
      dz2     :     0.005341  d :     0.053830
      dxz     :     0.011851
      dyz     :     0.014094
      dx2y2   :     0.012677
      dxy     :     0.009868
      f0      :     0.000622  f :     0.003326
      f+1     :     0.000223
      f-1     :     0.000275
      f+2     :     0.000055
      f-2     :     0.000792
      f+3     :     0.000671
      f-3     :     0.000688

  3 O s       :     3.762476  s :     3.762476
      pz      :     1.548523  p :     4.506679
      px      :     1.162673
      py      :     1.795484
      dz2     :     0.004784  d :     0.034796
      dxz     :     0.014518
      dyz     :     0.003539
      dx2y2   :     0.005381
      dxy     :     0.006574
      f0      :     0.000138  f :     0.001815
      f+1     :     0.000292
      f-1     :     0.000042
      f+2     :     0.000417
      f-2     :     0.000252
      f+3     :     0.000396
      f-3     :     0.000279

  4 C s       :     3.166356  s :     3.166356
      pz      :     0.896088  p :     2.563447
      px      :     0.745906
      py      :     0.921454
      dz2     :     0.034745  d :     0.182784
      dxz     :     0.029779
      dyz     :     0.032507
      dx2y2   :     0.039368
      dxy     :     0.046384
      f0      :     0.000882  f :     0.012428
      f+1     :     0.002353
      f-1     :     0.000777
      f+2     :     0.002139
      f-2     :     0.001856
      f+3     :     0.002032
      f-3     :     0.002389

  5 C s       :     3.219562  s :     3.219562
      pz      :     1.020971  p :     3.041478
      px      :     0.980688
      py      :     1.039819
      dz2     :     0.014074  d :     0.053806
      dxz     :     0.010892
      dyz     :     0.006110
      dx2y2   :     0.017083
      dxy     :     0.005647
      f0      :     0.000333  f :     0.003364
      f+1     :     0.000480
      f-1     :     0.000494
      f+2     :     0.000689
      f-2     :     0.000276
      f+3     :     0.000642
      f-3     :     0.000451

  6 C s       :     3.222212  s :     3.222212
      pz      :     1.062871  p :     3.053800
      px      :     1.043134
      py      :     0.947796
      dz2     :     0.004850  d :     0.054122
      dxz     :     0.010189
      dyz     :     0.017362
      dx2y2   :     0.010470
      dxy     :     0.011251
      f0      :     0.000534  f :     0.003258
      f+1     :     0.000079
      f-1     :     0.000453
      f+2     :     0.000753
      f-2     :     0.000175
      f+3     :     0.000659
      f-3     :     0.000606

  7 H s       :     0.876574  s :     0.876574
      pz      :     0.005801  p :     0.020870
      px      :     0.010202
      py      :     0.004868

  8 H s       :     0.867380  s :     0.867380
      pz      :     0.004275  p :     0.021158
      px      :     0.006927
      py      :     0.009956

  9 H s       :     0.868388  s :     0.868388
      pz      :     0.011709  p :     0.020899
      px      :     0.004609
      py      :     0.004582

 10 H s       :     0.913156  s :     0.913156
      pz      :     0.012008  p :     0.020636
      px      :     0.003782
      py      :     0.004846

 11 H s       :     0.876622  s :     0.876622
      pz      :     0.006206  p :     0.020871
      px      :     0.010310
      py      :     0.004354

 12 H s       :     0.870357  s :     0.870357
      pz      :     0.005964  p :     0.021016
      px      :     0.005848
      py      :     0.009205

 13 H s       :     0.868200  s :     0.868200
      pz      :     0.011103  p :     0.020887
      px      :     0.004619
      py      :     0.005165

 14 H s       :     0.916614  s :     0.916614
      pz      :     0.011584  p :     0.020175
      px      :     0.003080
      py      :     0.005511

 15 H s       :     0.878711  s :     0.878711
      pz      :     0.005793  p :     0.020871
      px      :     0.010898
      py      :     0.004180

 16 H s       :     0.863550  s :     0.863550
      pz      :     0.004254  p :     0.021035
      px      :     0.004418
      py      :     0.012363

 17 H s       :     0.869167  s :     0.869167
      pz      :     0.011522  p :     0.020856
      px      :     0.004157
      py      :     0.005177

 18 H s       :     0.868796  s :     0.868796
      pz      :     0.006294  p :     0.021300
      px      :     0.008386
      py      :     0.006619

 19 H s       :     0.865668  s :     0.865668
      pz      :     0.010869  p :     0.020888
      px      :     0.004191
      py      :     0.005829

 20 H s       :     0.868077  s :     0.868077
      pz      :     0.006230  p :     0.021017
      px      :     0.010336
      py      :     0.004450


------------------------
MULLIKEN OVERLAP CHARGES
------------------------
B(  0-C ,  1-C ) :   0.6745 B(  0-C ,  2-C ) :  -0.0806 B(  0-C ,  3-O ) :  -0.0668 
B(  0-C ,  7-H ) :   0.8197 B(  0-C ,  8-H ) :   0.8252 B(  0-C ,  9-H ) :   0.7983 
B(  0-C , 10-H ) :  -0.1278 B(  1-C ,  2-C ) :   0.6855 B(  1-C ,  3-O ) :   0.4446 
B(  1-C ,  4-C ) :  -0.0561 B(  1-C ,  7-H ) :  -0.0845 B(  1-C ,  8-H ) :  -0.0702 
B(  1-C ,  9-H ) :  -0.0543 B(  1-C , 10-H ) :   0.8413 B(  1-C , 11-H ) :  -0.0868 
B(  1-C , 12-H ) :  -0.0682 B(  1-C , 13-H ) :  -0.0609 B(  2-C ,  3-O ) :  -0.0682 
B(  2-C , 10-H ) :  -0.0909 B(  2-C , 11-H ) :   0.8269 B(  2-C , 12-H ) :   0.8151 
B(  2-C , 13-H ) :   0.8147 B(  3-O ,  4-C ) :   0.6235 B(  3-O ,  5-C ) :  -0.1273 
B(  3-O ,  6-C ) :  -0.1172 B(  3-O , 10-H ) :  -0.0904 B(  3-O , 14-H ) :  -0.1004 
B(  4-C ,  5-C ) :   0.6626 B(  4-C ,  6-C ) :   0.6225 B(  4-C , 14-H ) :   0.8725 
B(  4-C , 15-H ) :  -0.0694 B(  4-C , 16-H ) :  -0.0745 B(  4-C , 17-H ) :  -0.0571 
B(  4-C , 18-H ) :  -0.0777 B(  4-C , 19-H ) :  -0.0569 B(  4-C , 20-H ) :  -0.0566 
B(  5-C ,  6-C ) :  -0.0836 B(  5-C , 14-H ) :  -0.0708 B(  5-C , 15-H ) :   0.8010 
B(  5-C , 16-H ) :   0.8196 B(  5-C , 17-H ) :   0.8175 B(  6-C , 14-H ) :  -0.1931 
B(  6-C , 18-H ) :   0.8176 B(  6-C , 19-H ) :   0.7882 B(  6-C , 20-H ) :   0.7917 
B(  7-H ,  9-H ) :  -0.0517 B( 11-H , 13-H ) :  -0.0535 B( 15-H , 17-H ) :  -0.0531 



                     *******************************
                     * LOEWDIN POPULATION ANALYSIS *
                     *******************************

----------------------
LOEWDIN ATOMIC CHARGES
----------------------
   0 C :   -0.284772
   1 C :   -0.362709
   2 C :   -0.284132
   3 O :    0.167910
   4 C :   -0.372525
   5 C :   -0.281076
   6 C :   -0.286922
   7 H :    0.119472
   8 H :    0.117446
   9 H :    0.122368
  10 H :    0.132935
  11 H :    0.118996
  12 H :    0.118534
  13 H :    0.122065
  14 H :    0.129667
  15 H :    0.120130
  16 H :    0.120604
  17 H :    0.122086
  18 H :    0.116187
  19 H :    0.122177
  20 H :    0.121559

-------------------------------
LOEWDIN REDUCED ORBITAL CHARGES
-------------------------------
  0 C s       :     2.830440  s :     2.830440
      pz      :     1.067223  p :     3.173336
      px      :     1.058367
      py      :     1.047746
      dz2     :     0.062155  d :     0.256577
      dxz     :     0.046132
      dyz     :     0.035760
      dx2y2   :     0.050227
      dxy     :     0.062304
      f0      :     0.002412  f :     0.024419
      f+1     :     0.002132
      f-1     :     0.004756
      f+2     :     0.004157
      f-2     :     0.003262
      f+3     :     0.003997
      f-3     :     0.003703

  1 C s       :     2.757606  s :     2.757606
      pz      :     0.964144  p :     2.876148
      px      :     0.876683
      py      :     1.035320
      dz2     :     0.119351  d :     0.645542
      dxz     :     0.127858
      dyz     :     0.104121
      dx2y2   :     0.129362
      dxy     :     0.164849
      f0      :     0.006677  f :     0.083414
      f+1     :     0.013333
      f-1     :     0.006776
      f+2     :     0.013579
      f-2     :     0.014327
      f+3     :     0.012139
      f-3     :     0.016582

  2 C s       :     2.831376  s :     2.831376
      pz      :     1.069678  p :     3.171663
      px      :     1.055051
      py      :     1.046935
      dz2     :     0.031577  d :     0.256678
      dxz     :     0.049682
      dyz     :     0.059941
      dx2y2   :     0.059305
      dxy     :     0.056173
      f0      :     0.003829  f :     0.024414
      f+1     :     0.001716
      f-1     :     0.002660
      f+2     :     0.002367
      f-2     :     0.004453
      f+3     :     0.004376
      f-3     :     0.005014

  3 O s       :     3.286596  s :     3.286596
      pz      :     1.554282  p :     4.446843
      px      :     1.213781
      py      :     1.678780
      dz2     :     0.013866  d :     0.092975
      dxz     :     0.033441
      dyz     :     0.006958
      dx2y2   :     0.020497
      dxy     :     0.018212
      f0      :     0.000443  f :     0.005675
      f+1     :     0.001550
      f-1     :     0.000090
      f+2     :     0.000993
      f-2     :     0.000955
      f+3     :     0.000830
      f-3     :     0.000815

  4 C s       :     2.758289  s :     2.758289
      pz      :     0.967250  p :     2.869384
      px      :     0.866353
      py      :     1.035781
      dz2     :     0.123941  d :     0.661193
      dxz     :     0.131294
      dyz     :     0.114346
      dx2y2   :     0.143505
      dxy     :     0.148108
      f0      :     0.006478  f :     0.083659
      f+1     :     0.015040
      f-1     :     0.006123
      f+2     :     0.015340
      f-2     :     0.012537
      f+3     :     0.013370
      f-3     :     0.014772

  5 C s       :     2.829320  s :     2.829320
      pz      :     1.063004  p :     3.171295
      px      :     1.049259
      py      :     1.059031
      dz2     :     0.060137  d :     0.255832
      dxz     :     0.054570
      dyz     :     0.031836
      dx2y2   :     0.078927
      dxy     :     0.030362
      f0      :     0.002383  f :     0.024629
      f+1     :     0.003019
      f-1     :     0.004113
      f+2     :     0.004132
      f-2     :     0.003446
      f+3     :     0.004454
      f-3     :     0.003083

  6 C s       :     2.830319  s :     2.830319
      pz      :     1.069491  p :     3.176610
      px      :     1.060110
      py      :     1.047009
      dz2     :     0.027931  d :     0.255708
      dxz     :     0.041783
      dyz     :     0.073457
      dx2y2   :     0.056498
      dxy     :     0.056039
      f0      :     0.003636  f :     0.024285
      f+1     :     0.000714
      f-1     :     0.004021
      f+2     :     0.004179
      f-2     :     0.002487
      f+3     :     0.004811
      f-3     :     0.004438

  7 H s       :     0.820465  s :     0.820465
      pz      :     0.018023  p :     0.060063
      px      :     0.027972
      py      :     0.014068

  8 H s       :     0.822185  s :     0.822185
      pz      :     0.013026  p :     0.060369
      px      :     0.020802
      py      :     0.026541

  9 H s       :     0.817479  s :     0.817479
      pz      :     0.031863  p :     0.060153
      px      :     0.013891
      py      :     0.014399

 10 H s       :     0.811196  s :     0.811196
      pz      :     0.030920  p :     0.055869
      px      :     0.010352
      py      :     0.014596

 11 H s       :     0.820932  s :     0.820932
      pz      :     0.018490  p :     0.060072
      px      :     0.027958
      py      :     0.013623

 12 H s       :     0.821421  s :     0.821421
      pz      :     0.017667  p :     0.060045
      px      :     0.018034
      py      :     0.024345

 13 H s       :     0.817776  s :     0.817776
      pz      :     0.031703  p :     0.060159
      px      :     0.013846
      py      :     0.014611

 14 H s       :     0.815498  s :     0.815498
      pz      :     0.029705  p :     0.054834
      px      :     0.009247
      py      :     0.015882

 15 H s       :     0.819779  s :     0.819779
      pz      :     0.018028  p :     0.060092
      px      :     0.028831
      py      :     0.013232

 16 H s       :     0.819118  s :     0.819118
      pz      :     0.012948  p :     0.060277
      px      :     0.013843
      py      :     0.033486

 17 H s       :     0.817702  s :     0.817702
      pz      :     0.031285  p :     0.060212
      px      :     0.012769
      py      :     0.016158

 18 H s       :     0.823114  s :     0.823114
      pz      :     0.018562  p :     0.060699
      px      :     0.024430
      py      :     0.017707

 19 H s       :     0.817572  s :     0.817572
      pz      :     0.031143  p :     0.060252
      px      :     0.012969
      py      :     0.016139

 20 H s       :     0.818264  s :     0.818264
      pz      :     0.018416  p :     0.060177
      px      :     0.028839
      py      :     0.012922


---------------------------------
LOEWDIN BOND ORDERS (THRESH 0.050000)
---------------------------------
B(  0-C ,  1-C ) :   1.2501 B(  0-C ,  2-C ) :   0.1480 B(  0-C ,  3-O ) :   0.1161 
B(  0-C ,  7-H ) :   0.9001 B(  0-C ,  8-H ) :   0.9022 B(  0-C ,  9-H ) :   0.8998 
B(  0-C , 10-H ) :   0.0728 B(  1-C ,  2-C ) :   1.2510 B(  1-C ,  3-O ) :   1.3574 
B(  1-C ,  4-C ) :   0.1646 B(  1-C ,  7-H ) :   0.0813 B(  1-C ,  8-H ) :   0.0814 
B(  1-C ,  9-H ) :   0.0803 B(  1-C , 10-H ) :   0.8137 B(  1-C , 11-H ) :   0.0813 
B(  1-C , 12-H ) :   0.0819 B(  1-C , 13-H ) :   0.0805 B(  2-C ,  3-O ) :   0.1189 
B(  2-C , 10-H ) :   0.0737 B(  2-C , 11-H ) :   0.9008 B(  2-C , 12-H ) :   0.9041 
B(  2-C , 13-H ) :   0.9002 B(  3-O ,  4-C ) :   1.3857 B(  3-O ,  5-C ) :   0.1209 
B(  3-O ,  6-C ) :   0.1048 B(  4-C ,  5-C ) :   1.2501 B(  4-C ,  6-C ) :   1.2446 
B(  4-C , 14-H ) :   0.8223 B(  4-C , 15-H ) :   0.0825 B(  4-C , 16-H ) :   0.0815 
B(  4-C , 17-H ) :   0.0807 B(  4-C , 18-H ) :   0.0788 B(  4-C , 19-H ) :   0.0790 
B(  4-C , 20-H ) :   0.0820 B(  5-C ,  6-C ) :   0.1495 B(  5-C , 14-H ) :   0.0738 
B(  5-C , 15-H ) :   0.8992 B(  5-C , 16-H ) :   0.9035 B(  5-C , 17-H ) :   0.8997 
B(  6-C , 14-H ) :   0.0721 B(  6-C , 18-H ) :   0.8996 B(  6-C , 19-H ) :   0.9006 
B(  6-C , 20-H ) :   0.8977 

------------------------------------------
LOEWDIN REDUCED ORBITAL POPULATIONS PER MO
-------------------------------------------
THRESHOLD FOR PRINTING IS 0.1%%
                      0         1         2         3         4         5   
                 -21.65903 -12.09499 -12.09350 -12.03428 -12.03134 -12.03099
                   2.00000   2.00000   2.00000   2.00000   2.00000   2.00000
                  --------  --------  --------  --------  --------  --------
 0 C  s               0.0       0.0       0.0       0.0      69.1      26.8
 1 C  s               0.0       0.6      98.8       0.0       0.0       0.0
 1 C  dxy             0.0       0.0       0.0       0.0       0.1       0.0
 2 C  s               0.0       0.0       0.0       0.0      30.1      65.3
 3 O  s              99.8       0.0       0.0       0.0       0.0       0.0
 4 C  s               0.0      98.8       0.6       0.0       0.0       0.0
 5 C  s               0.0       0.0       0.0       0.2       0.3       7.5
 6 C  s               0.0       0.0       0.0      99.3       0.0       0.0

                      6         7         8         9        10        11   
                 -12.03090  -1.66041  -1.31543  -1.26693  -1.18350  -1.17910
                   2.00000   2.00000   2.00000   2.00000   2.00000   2.00000
                  --------  --------  --------  --------  --------  --------
 0 C  s               3.7       0.3       5.7       8.1       3.1      16.7
 0 C  pz              0.0       0.0       0.5       0.5       0.0       0.0
 0 C  px              0.0       0.5       0.4       0.1       0.0       0.0
 0 C  py              0.0       0.5       1.5       1.0       0.1       0.4
 0 C  dyz             0.0       0.0       0.2       0.2       0.0       0.0
 0 C  dx2y2           0.0       0.0       0.1       0.1       0.0       0.1
 0 C  dxy             0.0       0.2       0.2       0.0       0.0       0.0
 1 C  s               0.0       5.1      13.6       8.9       0.0       0.0
 1 C  pz              0.0       2.0       0.4       0.1       0.5       1.6
 1 C  px              0.0       6.2       1.3       3.9       0.5       0.0
 1 C  py              0.0       0.5       0.0       0.1       4.7      12.8
 1 C  dz2             0.0       0.1       0.0       0.1       0.0       0.1
 1 C  dxz             0.0       1.7       0.0       0.5       0.0       0.2
 1 C  dyz             0.0       0.1       0.0       0.3       0.0       0.3
 1 C  dx2y2           0.0       1.2       0.1       0.4       0.0       0.0
 1 C  dxy             0.0       0.4       0.0       0.1       0.4       1.6
 1 C  f0              0.0       0.1       0.0       0.0       0.0       0.0
 1 C  f+2             0.0       0.2       0.0       0.0       0.0       0.0
 2 C  s               4.1       0.3       5.8       7.7       6.6      13.4
 2 C  px              0.0       0.6       0.7       0.2       0.0       0.0
 2 C  py              0.0       0.3       1.7       1.4       0.1       0.4
 2 C  dz2             0.0       0.0       0.1       0.1       0.0       0.0
 2 C  dx2y2           0.0       0.0       0.0       0.2       0.0       0.1
 2 C  dxy             0.0       0.1       0.3       0.1       0.0       0.0
 3 O  s               0.0      54.2       0.0       3.7       0.0       0.0
 3 O  pz              0.0       0.9       0.0       1.7       0.0       0.2
 3 O  px              0.0       0.0      14.8       0.0       0.2       0.1
 3 O  py              0.0       0.1       0.0       0.3       1.1       0.1
 3 O  dxz             0.0       0.0       0.5       0.0       0.0       0.0
 3 O  dx2y2           0.0       0.1       0.0       0.1       0.0       0.0
 4 C  s               0.0       5.3      13.8       8.4       0.0       0.0
 4 C  pz              0.0       2.2       0.5       0.1       2.0       0.8
 4 C  px              0.0       6.5       1.2       3.7       1.1       0.3
 4 C  py              0.0       0.1       0.0       0.8      11.8       3.4
 4 C  dz2             0.0       0.1       0.0       0.1       0.1       0.0
 4 C  dxz             0.1       1.9       0.0       0.8       0.3       0.1
 4 C  dx2y2           0.0       1.5       0.1       0.4       0.8       0.3
 4 C  dxy             0.0       0.1       0.0       0.1       0.6       0.3
 4 C  f0              0.0       0.1       0.0       0.0       0.0       0.0
 4 C  f+2             0.0       0.3       0.0       0.0       0.0       0.0
 4 C  f+3             0.0       0.1       0.0       0.0       0.0       0.0
 5 C  s              91.6       0.3       6.3       7.2      13.9       4.4
 5 C  pz              0.0       0.0       0.6       0.5       0.0       0.0
 5 C  px              0.0       0.9       1.2       0.3       0.0       0.0
 5 C  py              0.0       0.1       0.8       0.6       0.3       0.1
 5 C  dxz             0.0       0.0       0.2       0.1       0.0       0.0
 5 C  dyz             0.0       0.0       0.1       0.1       0.0       0.0
 5 C  dx2y2           0.0       0.1       0.0       0.0       0.1       0.0
 5 C  dxy             0.0       0.1       0.3       0.1       0.0       0.0
 6 C  s               0.2       0.3       5.4       8.9      15.2       5.2
 6 C  px              0.0       0.3       0.1       0.0       0.1       0.0
 6 C  py              0.0       0.7       2.1       1.5       0.3       0.1
 6 C  dz2             0.0       0.0       0.1       0.1       0.0       0.0
 6 C  dx2y2           0.0       0.0       0.3       0.3       0.0       0.0
 6 C  dxy             0.0       0.1       0.0       0.0       0.0       0.0
 7 H  s               0.0       0.0       1.0       1.7       0.8       4.5
 7 H  px              0.0       0.0       0.1       0.1       0.1       0.3
 8 H  s               0.0       0.0       1.0       1.6       1.0       4.8
 8 H  px              0.0       0.0       0.0       0.0       0.0       0.2
 8 H  py              0.0       0.0       0.1       0.1       0.1       0.3
 9 H  s               0.0       0.0       1.0       1.5       0.8       4.5
 9 H  pz              0.0       0.0       0.1       0.1       0.1       0.4
10 H  s               0.0       0.5       2.0       2.1       0.0       0.0
10 H  pz              0.0       0.0       0.2       0.1       0.0       0.0
11 H  s               0.0       0.0       1.0       1.6       1.8       3.6
11 H  px              0.0       0.0       0.1       0.1       0.1       0.3
12 H  s               0.0       0.0       1.0       1.5       1.8       3.9
12 H  py              0.0       0.0       0.1       0.1       0.1       0.2
13 H  s               0.0       0.1       1.0       1.5       1.7       3.5
13 H  pz              0.0       0.0       0.1       0.1       0.1       0.3
14 H  s               0.0       0.5       2.1       1.8       0.0       0.0
14 H  pz              0.0       0.0       0.2       0.1       0.0       0.0
15 H  s               0.0       0.0       1.1       1.5       3.6       1.2
15 H  px              0.0       0.0       0.1       0.1       0.3       0.1
16 H  s               0.0       0.1       1.1       1.3       3.9       1.3
16 H  py              0.0       0.0       0.1       0.1       0.4       0.1
17 H  s               0.0       0.1       1.1       1.4       3.6       1.2
17 H  pz              0.0       0.0       0.1       0.1       0.3       0.1
18 H  s               0.0       0.0       0.9       1.8       4.5       1.5
18 H  pz              0.0       0.0       0.0       0.0       0.1       0.0
18 H  px              0.0       0.0       0.0       0.1       0.2       0.1
18 H  py              0.0       0.0       0.0       0.1       0.1       0.0
19 H  s               0.0       0.0       0.9       1.7       4.0       1.4
19 H  pz              0.0       0.0       0.1       0.1       0.3       0.1
20 H  s               0.0       0.0       0.9       1.9       4.1       1.4
20 H  px              0.0       0.0       0.1       0.1       0.3       0.1

                     12        13        14        15        16        17   
                  -1.11227  -1.05853  -0.97369  -0.94210  -0.93394  -0.86945
                   2.00000   2.00000   2.00000   2.00000   2.00000   2.00000
                  --------  --------  --------  --------  --------  --------
 0 C  s               4.2       1.9       0.5       0.1       0.5       0.1
 0 C  pz              0.1       1.5       3.8       0.1       1.8       0.6
 0 C  px              1.0       0.7       0.4       2.0       0.2       1.0
 0 C  py              0.5       0.7       0.9       0.3       7.0       6.0
 0 C  dxz             0.1       0.2       0.1       0.0       0.0       0.0
 0 C  dyz             0.0       0.2       0.4       0.0       0.2       0.0
 0 C  dx2y2           0.0       0.0       0.0       0.1       0.2       0.0
 0 C  dxy             0.4       0.1       0.0       0.1       0.1       0.1
 1 C  s               2.1       4.7       1.7       0.1       1.2       0.0
 1 C  pz              0.5       5.7       8.8       2.6       0.3       2.5
 1 C  px              6.5       1.7       1.7       0.8       9.0       2.0
 1 C  py              0.2       0.4       2.9       2.9       0.1       3.1
 1 C  dz2             0.5       0.0       0.0       0.1       0.5       0.0
 1 C  dxz             0.4       0.5       0.1       0.3       0.1       0.0
 1 C  dyz             0.4       0.0       0.0       0.3       0.1       0.0
 1 C  dx2y2           0.0       0.1       0.0       0.2       0.1       0.2
 1 C  dxy             0.1       0.0       0.3       1.5       0.0       0.1
 1 C  f+1             0.0       0.0       0.0       0.0       0.1       0.0
 2 C  s               4.2       2.3       0.1       0.5       0.5       0.0
 2 C  pz              0.0       0.3       1.2       0.0       0.3       1.6
 2 C  px              1.1       1.2       0.0       2.8       0.4       4.7
 2 C  py              0.4       1.9       2.1       2.1       7.3       0.5
 2 C  dz2             0.1       0.1       0.1       0.1       0.0       0.1
 2 C  dxz             0.0       0.0       0.1       0.0       0.0       0.1
 2 C  dyz             0.0       0.0       0.1       0.0       0.0       0.0
 2 C  dx2y2           0.1       0.0       0.3       0.0       0.3       0.1
 2 C  dxy             0.3       0.3       0.0       0.1       0.1       0.0
 3 O  s               0.0       3.7       0.0       0.1       1.1       0.1
 3 O  pz              0.0      19.6       0.1       2.0      27.6       1.9
 3 O  px             26.1       0.0      13.5       0.3       0.0       0.5
 3 O  py              0.2       1.1       3.2      48.3       1.8       1.3
 3 O  dxz             0.8       0.0       0.0       0.0       0.0       0.2
 3 O  dx2y2           0.0       0.1       0.0       0.0       0.0       0.0
 4 C  s               2.5       4.0       2.5       0.4       0.7       0.1
 4 C  pz              0.3       4.6      11.6       0.3       0.6       7.4
 4 C  px              6.6       1.0       4.0       0.5       6.8       2.7
 4 C  py              0.4       0.6       0.8       6.8       0.0       2.6
 4 C  dz2             0.4       0.0       0.0       0.1       0.5       0.3
 4 C  dxz             0.7       0.4       0.2       0.0       0.2       0.4
 4 C  dyz             0.1       0.2       0.1       0.5       0.0       0.0
 4 C  dx2y2           0.0       0.1       0.1       0.1       0.2       0.2
 4 C  dxy             0.2       0.0       0.1       1.6       0.1       0.5
 4 C  f+1             0.1       0.1       0.0       0.0       0.1       0.1
 4 C  f-2             0.0       0.0       0.0       0.2       0.0       0.0
 4 C  f-3             0.0       0.0       0.0       0.1       0.0       0.0
 5 C  s               6.8       1.1       0.4       0.0       0.7       0.1
 5 C  pz              0.2       1.2       4.8       0.0       1.9       0.7
 5 C  px              2.0       0.7       0.4       0.3       3.9       0.4
 5 C  py              0.1       0.1       0.4       1.2       3.5      13.2
 5 C  dz2             0.1       0.0       0.2       0.0       0.0       0.0
 5 C  dxz             0.1       0.3       0.3       0.0       0.1       0.0
 5 C  dyz             0.0       0.0       0.3       0.0       0.2       0.0
 5 C  dx2y2           0.3       0.0       0.0       0.1       0.0       0.0
 5 C  dxy             0.1       0.0       0.0       0.1       0.2       0.2
 6 C  s               2.3       2.8       0.3       0.7       0.1       0.1
 6 C  pz              0.0       0.2       1.0       1.0       0.2      10.7
 6 C  px              0.4       0.5       0.2       0.9       1.0       2.1
 6 C  py              0.6       3.3       4.4       6.5       2.6       3.2
 6 C  dz2             0.0       0.2       0.1       0.1       0.0       0.0
 6 C  dyz             0.0       0.0       0.2       0.1       0.0       0.0
 6 C  dx2y2           0.0       0.2       0.4       0.2       0.2       0.2
 6 C  dxy             0.3       0.1       0.0       0.1       0.1       0.0
 7 H  s               2.0       1.1       0.2       0.8       0.5       0.9
 7 H  px              0.1       0.0       0.0       0.0       0.0       0.0
 8 H  s               1.5       1.0       0.5       0.0       2.7       1.3
 8 H  px              0.1       0.1       0.0       0.0       0.1       0.1
 9 H  s               1.5       1.7       1.7       0.1       0.7       0.2
 9 H  pz              0.1       0.1       0.1       0.0       0.0       0.0
 9 H  py              0.0       0.0       0.0       0.0       0.1       0.1
10 H  s               0.4       6.1       6.3       0.5       0.1       0.5
10 H  pz              0.1       0.5       0.3       0.0       0.0       0.0
10 H  px              0.0       0.0       0.1       0.0       0.2       0.0
10 H  py              0.0       0.1       0.0       0.1       0.0       0.1
11 H  s               2.0       1.3       0.0       0.8       0.4       0.8
11 H  px              0.1       0.0       0.0       0.0       0.0       0.0
11 H  py              0.0       0.0       0.0       0.0       0.1       0.0
12 H  s               1.5       1.1       0.3       0.3       2.5       1.7
13 H  s               1.5       1.9       0.9       1.1       0.6       1.0
13 H  pz              0.1       0.2       0.0       0.1       0.1       0.0
14 H  s               0.7       4.7       7.9       0.3       0.0       4.9
14 H  pz              0.1       0.4       0.3       0.0       0.0       0.1
14 H  px              0.0       0.0       0.1       0.0       0.1       0.0
14 H  py              0.0       0.1       0.1       0.0       0.0       0.0
15 H  s               3.2       0.7       0.1       0.0       1.0       0.4
15 H  pz              0.1       0.0       0.0       0.0       0.1       0.0
15 H  px              0.2       0.0       0.0       0.0       0.0       0.0
15 H  py              0.0       0.0       0.0       0.0       0.0       0.2
16 H  s               2.3       0.6       0.6       0.5       2.0       5.1
16 H  py              0.2       0.0       0.0       0.0       0.1       0.1
17 H  s               2.6       1.1       1.7       0.1       0.9       1.2
17 H  pz              0.2       0.1       0.1       0.0       0.0       0.1
18 H  s               0.9       1.2       0.8       1.4       1.5       5.8
18 H  px              0.1       0.1       0.0       0.1       0.0       0.2
19 H  s               0.9       2.2       1.5       0.6       0.1       1.7
19 H  pz              0.1       0.2       0.1       0.1       0.0       0.0
19 H  py              0.0       0.0       0.0       0.0       0.0       0.2
20 H  s               1.2       1.7       0.0       1.9       0.0       0.4

                     18        19        20        21        22        23   
                  -0.86689  -0.84290  -0.82550  -0.81724  -0.81104  -0.80719
                   2.00000   2.00000   2.00000   2.00000   2.00000   2.00000
                  --------  --------  --------  --------  --------  --------
 0 C  pz              4.1       0.0       3.2       8.5       6.9       0.1
 0 C  px              1.7      11.5       3.2       5.8       4.4       2.2
 0 C  py              9.7       0.1       0.5       0.8       0.8       0.1
 0 C  dz2             0.0       0.0       0.0       0.3       0.2       0.0
 0 C  dxz             0.0       0.2       0.0       0.0       0.3       0.0
 0 C  dx2y2           0.2       0.0       0.1       0.1       0.1       0.1
 0 C  dxy             0.1       0.0       0.2       0.1       0.1       0.1
 1 C  s               0.3       0.1       0.1       0.0       0.1       0.0
 1 C  pz              8.7       1.4       0.1       0.4       0.1       0.1
 1 C  px              2.3       1.0       0.9       0.1       0.2       0.8
 1 C  py              3.6       4.0       1.4       3.2       0.1       0.0
 1 C  dz2             0.5       0.0       0.3       0.3       0.2       0.0
 1 C  dxz             0.7       0.0       0.0       0.1       0.1       0.2
 1 C  dyz             0.0       0.0       0.1       0.8       0.4       0.0
 1 C  dx2y2           0.4       0.3       1.3       0.4       0.2       0.9
 1 C  dxy             0.0       0.0       0.2       0.4       0.1       0.0
 1 C  f+1             0.2       0.0       0.0       0.0       0.0       0.0
 1 C  f+2             0.0       0.0       0.0       0.1       0.0       0.0
 2 C  s               0.1       0.0       0.0       0.0       0.0       0.0
 2 C  pz             11.4       1.2       0.0      10.5       0.0       6.2
 2 C  px              0.6       1.1      14.2       2.4       3.1       8.4
 2 C  py              4.4       3.6       0.9       1.2       0.5       1.8
 2 C  dz2             0.0       0.1       0.0       0.2       0.0       0.1
 2 C  dxz             0.0       0.0       0.2       0.0       0.1       0.6
 2 C  dyz             0.0       0.0       0.1       0.2       0.0       0.0
 2 C  dx2y2           0.0       0.0       0.2       0.0       0.1       0.5
 2 C  dxy             0.3       0.0       0.0       0.0       0.0       0.0
 3 O  s               0.9       0.4       0.1       0.0       0.0       0.0
 3 O  pz             10.9       2.0       4.0       0.3       0.0       0.2
 3 O  px              0.3       0.0       0.0       0.0       1.9       2.6
 3 O  py              0.1       0.0       0.0      10.9       0.3       0.0
 3 O  dz2             0.1       0.1       0.0       0.0       0.0       0.0
 3 O  dx2y2           0.3       0.1       0.0       0.0       0.0       0.0
 3 O  dxy             0.0       0.3       0.0       0.0       0.0       0.0
 4 C  s               0.2       0.0       0.1       0.0       0.1       0.1
 4 C  pz              1.6       3.1       0.1       0.2       0.1       0.1
 4 C  px              1.6       1.1       0.9       0.1       0.4       0.4
 4 C  py              0.3      10.3       0.2       1.4       0.0       0.0
 4 C  dz2             0.2       0.1       0.4       0.0       0.2       0.4
 4 C  dxz             0.2       0.2       0.1       0.2       0.1       0.4
 4 C  dyz             0.0       0.0       0.1       0.3       0.6       0.4
 4 C  dx2y2           0.0       0.0       1.4       0.0       0.4       0.3
 4 C  dxy             0.0       0.0       0.7       0.7       0.6       0.0
 4 C  f+1             0.1       0.0       0.0       0.1       0.0       0.2
 5 C  s               0.0       0.1       0.0       0.0       0.0       0.0
 5 C  pz              2.3       1.8       2.1       8.2       3.3      14.9
 5 C  px              0.0      14.6       5.8       0.6       0.1      14.6
 5 C  py              0.1       0.1       2.1       4.8       1.4       0.0
 5 C  dz2             0.0       0.0       0.0       0.3       0.1       0.4
 5 C  dxz             0.0       0.3       0.1       0.0       0.0       0.7
 5 C  dx2y2           0.0       0.0       0.3       0.0       0.0       1.0
 6 C  pz              2.4       3.7       0.0       0.7      17.6       1.3
 6 C  px              0.4       4.8      18.1       2.4      11.7       0.0
 6 C  py              0.1       7.7       0.0       1.5       0.7       0.3
 6 C  dz2             0.0       0.2       0.0       0.0       0.2       0.0
 6 C  dxz             0.0       0.0       0.5       0.1       0.7       0.0
 6 C  dyz             0.0       0.0       0.0       0.0       0.4       0.0
 6 C  dx2y2           0.0       0.0       0.2       0.0       0.5       0.0
 6 C  dxy             0.1       0.0       0.2       0.0       0.1       0.0
 7 H  s               0.4       4.5       2.3       0.2       6.0       0.8
 7 H  pz              0.0       0.1       0.0       0.1       0.0       0.0
 7 H  px              0.1       0.0       0.0       0.0       0.1       0.0
 8 H  s               4.3       1.3       1.7       2.1       0.3       0.6
 8 H  pz              0.1       0.0       0.0       0.1       0.1       0.0
 8 H  py              0.0       0.1       0.0       0.1       0.1       0.0
 9 H  s               3.3       0.4       0.7       6.4       2.8       0.2
 9 H  pz              0.2       0.0       0.0       0.1       0.0       0.0
 9 H  px              0.0       0.1       0.1       0.0       0.1       0.0
[...]
14 H  s               0.3       0.1       0.1       0.2       0.1       0.1
14 H  pz              0.0       0.1       0.0       0.1       0.0       0.0

                    288       289       290       291       292       293   
                   5.78510   6.24998   6.32520   6.56560   6.82056   6.93144
                   0.00000   0.00000   0.00000   0.00000   0.00000   0.00000
                  --------  --------  --------  --------  --------  --------
 0 C  s               0.1       0.0       0.0       0.0       0.0       0.1
 1 C  s               0.5       0.0       0.7       0.0       0.4       1.0
 1 C  pz              0.1       0.0       0.1       0.0       0.1       0.8
 1 C  px              0.5       0.0       0.7       0.0       0.8       1.7
 1 C  py              0.0       0.1       0.0       0.7       0.0       0.1
 1 C  dz2             0.2       0.0       0.1       0.2       0.4       0.2
 1 C  dxz             1.6       0.1       0.4       0.1       0.1       1.0
 1 C  dyz             0.4       0.0       0.0       0.4       0.1       0.1
 1 C  dx2y2           0.7       0.0       0.3       0.2       0.3       0.3
 1 C  dxy             0.3       0.4       0.1       0.4       0.0       0.2
 1 C  f+1             1.8       0.1       0.1       0.1       0.3       0.0
 1 C  f-1             0.1       0.0       0.0       0.0       0.0       0.0
 1 C  f+2             0.3       0.1       0.0       0.1       0.0       0.0
 1 C  f-2             0.6       0.1       0.0       0.2       0.1       0.0
 1 C  f+3             0.3       0.1       0.1       0.1       0.0       0.1
 1 C  f-3             0.1       0.2       0.0       0.1       0.0       0.0
 2 C  s               0.1       0.0       0.0       0.0       0.0       0.1
 2 C  py              0.0       0.0       0.0       0.0       0.0       0.1
 3 O  s               4.7       0.1       1.1       0.0       0.5       5.3
 3 O  pz              1.5       0.0       2.0       0.0       0.0       0.2
 3 O  px              1.2       0.0       0.0       0.0       3.1       0.4
 3 O  py              0.3       1.5       0.1       0.0       0.0       0.0
 3 O  dz2             0.1      20.3      50.7       0.2       2.7      16.2
 3 O  dxz             1.6       0.0       0.1      15.3      58.8       6.0
 3 O  dyz             2.2      58.0      26.6       0.0       0.2       0.0
 3 O  dx2y2          10.7       7.6       8.7       1.5       7.8      47.0
 3 O  dxy             0.1       0.2       0.0      66.4      10.0       6.2
 3 O  f0              7.1       0.9       0.0       0.1       0.4       2.9
 3 O  f+1            22.7       0.0       0.0       3.1       3.5       0.3
 3 O  f-1             0.4       0.2       1.3       0.0       0.1       0.1
 3 O  f+2            14.4       1.5       3.2       0.2       0.7       3.9
 3 O  f-2             1.0       0.1       0.0       4.6       2.8       0.8
 3 O  f+3             8.5       0.0       0.0       2.0       0.2       0.0
 3 O  f-3             5.2       5.3       0.6       0.0       0.1       0.7
 4 C  s               0.6       0.0       0.2       0.0       1.2       0.2
 4 C  pz              0.0       0.0       0.1       0.0       0.5       0.5
 4 C  px              0.2       0.0       0.6       0.0       1.8       0.2
 4 C  py              0.0       0.3       0.0       0.2       0.0       0.3
 4 C  dz2             1.0       0.0       0.1       0.2       0.1       0.5
 4 C  dxz             0.5       0.1       0.2       0.1       0.6       0.5
 4 C  dyz             0.1       0.0       0.0       0.5       0.0       0.2
 4 C  dx2y2           1.2       0.0       0.3       0.0       0.5       0.1
 4 C  dxy             0.1       0.8       0.0       0.5       0.1       0.1
 4 C  f0              1.0       0.0       0.0       0.0       0.0       0.0
 4 C  f+1             0.8       0.0       0.1       0.1       0.1       0.2
 4 C  f-1             0.5       0.0       0.0       0.0       0.1       0.0
 4 C  f+2             0.8       0.0       0.0       0.0       0.1       0.0
 4 C  f-2             0.2       0.1       0.0       0.2       0.1       0.1
 4 C  f+3             0.9       0.0       0.1       0.0       0.0       0.0
 4 C  f-3             0.1       0.3       0.0       0.2       0.0       0.0
 5 C  s               0.2       0.0       0.1       0.0       0.0       0.0
 5 C  pz              0.1       0.0       0.0       0.0       0.0       0.1
 5 C  dxz             0.1       0.0       0.0       0.0       0.0       0.0
 5 C  f+1             0.1       0.0       0.0       0.0       0.0       0.0
 6 C  s               0.0       0.0       0.1       0.0       0.0       0.1
 6 C  pz              0.0       0.0       0.0       0.1       0.0       0.0
10 H  s               0.1       0.0       0.0       0.0       0.1       0.0

                    294       295       296       297       298       299   
                  20.72783  20.74517  20.76843  20.79110  20.97826  21.02794
                   0.00000   0.00000   0.00000   0.00000   0.00000   0.00000
                  --------  --------  --------  --------  --------  --------
 0 C  s              27.4      21.4      27.8      20.3       0.1       1.5
 1 C  s               0.9       1.5       0.3       0.3      24.8      70.4
 2 C  s               0.6      61.3      21.5      14.1       0.2       0.8
 3 O  s               0.0       0.0       0.0       0.0       0.3       0.0
 3 O  px              0.1       0.0       0.0       0.0       0.0       0.3
 3 O  dxz             0.0       0.0       0.0       0.0       0.0       0.1
 4 C  s               4.0       0.4       0.0       0.4      70.4      23.2
 5 C  s              35.0       7.4      42.2      12.1       1.6       0.1
 6 C  s              30.5       6.5       6.6      51.2       1.2       2.5
10 H  s               0.0       0.0       0.0       0.0       0.1       0.2
11 H  s               0.0       0.1       0.1       0.0       0.0       0.0
12 H  s               0.0       0.2       0.0       0.0       0.0       0.0
13 H  s               0.0       0.1       0.1       0.0       0.0       0.0
14 H  s               0.0       0.0       0.0       0.0       0.2       0.1
15 H  s               0.1       0.0       0.1       0.0       0.0       0.0
16 H  s               0.1       0.0       0.1       0.0       0.0       0.0
18 H  s               0.1       0.0       0.0       0.1       0.0       0.0
19 H  s               0.1       0.0       0.0       0.1       0.0       0.0
20 H  s               0.1       0.0       0.0       0.1       0.0       0.0

                    300   
                  41.97512
                   0.00000
                  --------
 3 O  s              99.7


                      *****************************
                      * MAYER POPULATION ANALYSIS *
                      *****************************

  NA   - Mulliken gross atomic population
  ZA   - Total nuclear charge
  QA   - Mulliken gross atomic charge
  VA   - Mayer's total valence
  BVA  - Mayer's bonded valence
  FA   - Mayer's free valence

  ATOM       NA         ZA         QA         VA         BVA        FA
  0 C      6.3204     6.0000    -0.3204     3.9143     3.9143     0.0000
  1 C      5.9152     6.0000     0.0848     3.9133     3.9133    -0.0000
  2 C      6.3183     6.0000    -0.3183     3.9364     3.9364    -0.0000
  3 O      8.3058     8.0000    -0.3058     1.9468     1.9468     0.0000
  4 C      5.9250     6.0000     0.0750     3.9899     3.9899     0.0000
  5 C      6.3182     6.0000    -0.3182     3.9071     3.9071     0.0000
  6 C      6.3334     6.0000    -0.3334     3.8546     3.8546     0.0000
  7 H      0.8974     1.0000     0.1026     0.9759     0.9759     0.0000
  8 H      0.8885     1.0000     0.1115     0.9787     0.9787     0.0000
  9 H      0.8893     1.0000     0.1107     0.9838     0.9838    -0.0000
 10 H      0.9338     1.0000     0.0662     0.9635     0.9635    -0.0000
 11 H      0.8975     1.0000     0.1025     0.9755     0.9755    -0.0000
 12 H      0.8914     1.0000     0.1086     0.9790     0.9790     0.0000
 13 H      0.8891     1.0000     0.1109     0.9841     0.9841    -0.0000
 14 H      0.9368     1.0000     0.0632     0.9605     0.9605     0.0000
 15 H      0.8996     1.0000     0.1004     0.9751     0.9751    -0.0000
 16 H      0.8846     1.0000     0.1154     0.9831     0.9831     0.0000
 17 H      0.8900     1.0000     0.1100     0.9862     0.9862     0.0000
 18 H      0.8901     1.0000     0.1099     0.9732     0.9732    -0.0000
 19 H      0.8866     1.0000     0.1134     0.9857     0.9857     0.0000
 20 H      0.8891     1.0000     0.1109     0.9785     0.9785     0.0000

  Mayer bond orders larger than 0.100000
B(  0-C ,  1-C ) :   0.9878 B(  0-C ,  7-H ) :   0.9764 B(  0-C ,  8-H ) :   0.9785 
B(  0-C ,  9-H ) :   0.9742 B(  1-C ,  2-C ) :   0.9943 B(  1-C ,  3-O ) :   0.9061 
B(  1-C , 10-H ) :   0.9679 B(  2-C , 11-H ) :   0.9773 B(  2-C , 12-H ) :   0.9781 
B(  2-C , 13-H ) :   0.9771 B(  3-O ,  4-C ) :   1.0121 B(  4-C ,  5-C ) :   0.9922 
B(  4-C ,  6-C ) :   0.9682 B(  4-C , 14-H ) :   0.9757 B(  5-C , 15-H ) :   0.9734 
B(  5-C , 16-H ) :   0.9801 B(  5-C , 17-H ) :   0.9776 B(  6-C , 18-H ) :   0.9741 
B(  6-C , 19-H ) :   0.9761 B(  6-C , 20-H ) :   0.9730 

-------
TIMINGS
-------

Total SCF time: 0 days 0 hours 2 min 6 sec 

Total time                  ....     126.483 sec
Sum of individual times     ....     123.570 sec  ( 97.7%)

SCF preparation             ....       0.233 sec  (  0.2%)
Fock matrix formation       ....     122.110 sec  ( 96.5%)
  Startup                   ....       0.063 sec  (  0.1% of F)
  Split-RI-J                ....       4.602 sec  (  3.8% of F)
  Chain of spheres X        ....     105.904 sec  ( 86.7% of F)
  XC integration            ....      13.451 sec  ( 11.0% of F)
    Basis function eval.    ....       3.025 sec  ( 22.5% of XC)
    Density eval.           ....       2.582 sec  ( 19.2% of XC)
    XC-Functional eval.     ....       3.207 sec  ( 23.8% of XC)
    XC-Potential eval.      ....       3.964 sec  ( 29.5% of XC)
Diagonalization             ....       0.000 sec  (  0.0%)
Density matrix formation    ....       0.197 sec  (  0.2%)
Total Energy calculation    ....       0.045 sec  (  0.0%)
Population analysis         ....       0.187 sec  (  0.1%)
Orbital Transformation      ....       0.076 sec  (  0.1%)
Orbital Orthonormalization  ....       0.000 sec  (  0.0%)
DIIS solution               ....       0.363 sec  (  0.3%)
  MO trafo                  ....       0.000 sec  (  0.0 % of DIIS)
  Orb grad                  ....       0.000 sec  (  0.0 % of DIIS)
  Energy W gradient         ....       0.000 sec  (  0.0 % of DIIS)
  DIIS error                ....       0.012 sec  (  3.3 % of DIIS)
  DIIS work                 ....       0.301 sec  ( 82.8 % of DIIS)
  Form Q                    ....       0.000 sec  (  0.0 % of DIIS)
  Form QpQm                 ....       0.000 sec  (  0.0 % of DIIS)
  Exp/Cayley                ....       0.000 sec  (  0.0 % of DIIS)
  Orb update                ....       0.000 sec  (  0.0 % of DIIS)
  Wake-sleep                ....       0.014 sec  (  3.7 % of DIIS)
SOSCF solution              ....       0.156 sec  (  0.1%)
  MO trafo                  ....       0.072 sec  ( 46.5 % of SOSCF)
  Orb grad                  ....       0.004 sec  (  2.7 % of SOSCF)
  Rot update                ....       0.031 sec  ( 20.2 % of SOSCF)
  Step                      ....       0.048 sec  ( 30.6 % of SOSCF)
Grid generation             ....       0.203 sec  (  0.2%)
Finished LeanSCF after 126.6 sec

Maximum memory used throughout the entire LEANSCF-calculation: 40.8 MB
------------------   -----------------
gCP correction             0.015276599
------------------   -----------------

-------------------------   --------------------
FINAL SINGLE POINT ENERGY      -312.304887289608
-------------------------   --------------------


------------------------------------------------------------------------------
                              ORCA PROPERTY CALCULATIONS
------------------------------------------------------------------------------

GBWName                                 ... sp_gas.gbw
Number of atoms                         ...     21
Number of basis functions               ...    301
Max core memory                         ...   1024 MB

Electric properties:
Dipole moment                           ... YES
Quadrupole moment                       ...  NO
Static polarizability (Dipole/Dipole)   ...  NO
Static polarizability (Dipole/Quad.)    ...  NO
Static polarizability (Quad./Quad.)     ...  NO
Static polarizability (Velocity)        ...  NO

Atomic electric properties:
Dipole moment                           ...  NO
Quadrupole moment                       ...  NO
Static polarizability                   ...  NO

Choice of electric origin               ... Center of mass
Position of electric origin             ...     0.001239    -0.003702    -0.041811

General magnetic properties:
Magnetizability                         ...  NO

EPR properties:
g-Tensor (aka g-matrix)                 ...  NO
Zero-Field splitting spin-orbit         ...  NO
Zero-field splitting spin-spin          ...  NO
Hyperfine couplings                     ...  NO (   0 nuclei)
Quadrupole couplings                    ...  NO (   0 nuclei)
Contact density                         ...  NO (   0 nuclei)

NMR properties:
Chemical shifts                         ...  NO (   0 nuclei)
Spin-rotation constants                 ...  NO (   0 nuclei)
Spin-spin couplings                     ...  NO (   0 nuclei,    0 pairs)

Choice of magnetic origin               ... GIAO
Position of magnetic origin             ...     0.000000     0.000000     0.000000

Properties with geometric perturbations:
SCF Hessian                             ...  NO
IR spectrum                             ...  NO
VCD spectrum                            ...  NO
X-ray spectroscopy properties:
SCF XES/XAS/RIXS spectra                ...  NO


-------------
DIPOLE MOMENT
-------------

Method             : SCF
Type of density    : Electron Density
Multiplicity       :   1
Irrep              :   0
Energy             :  -312.3201638885082616 Eh
Relativity type    : 
Basis              : AO
                                X                 Y                 Z
Electronic contribution:     -0.100996725       1.213122152      -0.789802278
Nuclear contribution   :      0.074583084      -1.392228269       1.271607543
                        -----------------------------------------
Total Dipole Moment    :     -0.026413641      -0.179106118       0.481805265
                        -----------------------------------------
Magnitude (a.u.)       :      0.514696993
Magnitude (Debye)      :      1.308255788



--------------------
Rotational spectrum 
--------------------
 
Rotational constants in cm-1:             0.137537             0.053458             0.043867 
Rotational constants in MHz :          4123.256604          1602.621334          1315.099586 

Dipole components along the rotational axes: 
x,y,z [a.u.] :     0.020330    -0.195052     0.475872 
x,y,z [Debye]:     0.051674    -0.495783     1.209571 

 

Dipole moment calculation done in   0.0 sec 

Maximum memory used throughout the entire PROP-calculation: 24.3 MB

--------------------------------
SUGGESTED CITATIONS FOR THIS RUN
--------------------------------

Below you find a list of papers that are relevant to this ORCA run
We neither can nor want to force you to cite these papers, but we appreciate if you do
You receive ORCA, which is the product of decades of hard work by many enthusiastic individuals, for free
The only thing we kindly ask in return is that you cite our papers,
We deeply appreciate it, if you show your appreciation for ORCA by not just citing the generic ORCA reference.

Please note that relegating all ORCA citations to the supporting information does *not* help us.
SI sections are not indexed - citations you put there will not count into any citation statistics
But we need these citations in order to attract the funding resources that allow us to do what we are doing

Therefore, if you are a happy ORCA user, please consider citing a few of the papers listed below in the main body of your paper

In addition to the list printed below, the program has created the file sp_gas.bibtex that contains the list in bibtex format
You can import this file easily into all common literature databanks and citation aid programs


List of essential papers. We consider these as the minimum necessary citations

  1. Neese,F.
     Software update: the ORCA program system, version 5.0
     WIRES Comput. Molec. Sci., 2022 12(1)e1606
     doi.org/10.1002/wcms.1606

List of papers to cite with high priority. The work reported in these papers was absolutely
necessary for this run to complete.
Our perspective: the developers of density functionals and basis sets usually get cited in chemistry papers
Good! But without the algorithms to do something with them, the functionals or basis sets would not do anything.
Hence, in our opinion, the algorithm design and method developments papers are equally worthy of getting cited

  1. Neese,F.
     An improvement of the resolution of the identity approximation for the formation of the Coulomb matrix
     J. Comp. Chem., 2003 24(14)1740-1747
     doi.org/10.1002/jcc.10318
  2. Neese,F.; Wennmohs,F.; Hansen,A.; Becker,U.
     Efficient, approximate and parallel Hartree-Fock and hybrid DFT calculations. A 'chain-of-spheres' algorithm for the Hartree-Fock exchange
     Chem. Phys., 2009 356(1-3)98-109
     doi.org/10.1016/j.chemphys.2008.10.036
  3. Helmich-Paris,B.; de Souza,B.; Neese,F.; Izsák,R.
     An improved chain of spheres for exchange algorithm
     J. Chem. Phys., 2021 155 104109
     doi.org/doi: 10.1063/5.0058766.
  4. Neese,F.
     The SHARK Integral Generation and Digestion System
     J. Comp. Chem., 2022  1-16
     doi.org/10.1002/jcc.26942

List of suggested additional citations. These are papers that are important in the 'surrounding' of 
of this run, or papers that preceded the highly important papers. If you like your results we are grateful for a citation.

  1. Izsak,R.; Neese,F.
     An overlap fitted chain of spheres exchange method
     J. Chem. Phys., 2011 135 144105
     doi.org/10.1063/1.3646921
  2. Izsak,R.; Hansen,A.; Neese,F.
     The resolution of identity and chain of spheres approximations for the LPNO-CCSD singles Fock term
     Molec. Phys., 2012 110 2413-2417
     doi.org/10.1080/00268976.2012.687466
  3. Neese,F.
     The ORCA program system
     WIRES Comput. Molec. Sci., 2012 2(1)73-78
     doi.org/10.1002/wcms.81
  4. Izsak,R.; Neese,F.; Klopper,W.
     Robust fitting techniques in the chain of spheres approximation to the Fock exchange: The role of the complementary space
     J. Chem. Phys., 2013 139 
     doi.org/10.1063/1.4819264
  5. Neese,F.
     Software update: the ORCA program system, version 4.0
     WIRES Comput. Molec. Sci., 2018 8(1)1-6
     doi.org/10.1002/wcms.1327
  6. Neese,F.; Wennmohs,F.; Becker,U.; Riplinger,C.
     The ORCA quantum chemistry program package
     J. Chem. Phys., 2020 152 Art. No. L224108
     doi.org/10.1063/5.0004608

List of optional additional citations

  1. Neese,F.
     Approximate second-order SCF convergence for spin unrestricted wavefunctions
     Chem. Phys. Lett., 2000 325(1-3)93-98
     doi.org/10.1016/s0009-2614(00)00662-x

Timings for individual modules:

Sum of individual times          ...      129.292 sec (=   2.155 min)
Startup calculation              ...        2.298 sec (=   0.038 min)   1.8 %
SCF iterations                   ...      126.877 sec (=   2.115 min)  98.1 %
Property calculations            ...        0.116 sec (=   0.002 min)   0.1 %
                             ****ORCA TERMINATED NORMALLY****
TOTAL RUN TIME: 0 days 0 hours 2 minutes 10 seconds 52 msec
