
                                 *****************
                                 * O   R   C   A *
                                 *****************

                                            #,                                       
                                            ###                                      
                                            ####                                     
                                            #####                                    
                                            ######                                   
                                           ########,                                 
                                     ,,################,,,,,                         
                               ,,#################################,,                 
                          ,,##########################################,,             
                       ,#########################################, ''#####,          
                    ,#############################################,,   '####,        
                  ,##################################################,,,,####,       
                ,###########''''           ''''###############################       
              ,#####''   ,,,,##########,,,,          '''####'''          '####       
            ,##' ,,,,###########################,,,                        '##       
           ' ,,###''''                  '''############,,,                           
         ,,##''                                '''############,,,,        ,,,,,,###''
      ,#''                                            '''#######################'''  
     '                                                          ''''####''''         
             ,#######,   #######,   ,#######,      ##                                
            ,#'     '#,  ##    ##  ,#'     '#,    #''#        ,####,   ,####,        
            ##       ##  ##   ,#'  ##            #'  '#       #'       #'  '#        
            ##       ##  #######   ##           ,######,      #####,   #    #        
            '#,     ,#'  ##    ##  '#,     ,#' ,#      #,     #,   #   #,  ,#        
             '#######'   ##     ##  '#######'  #'      '#     '####' # '####'        



                #########################################################
                #                        -***-                          #
                #          Department of theory and spectroscopy        #
                #                                                       #
                #                      Frank Neese                      #
                #                                                       #
                #     Directorship, Architecture, Infrastructure        #
                #                    SHARK, DRIVERS                     #
                #        Core code/Algorithms in most modules           #
                #                                                       #
                #        Max Planck Institute fuer Kohlenforschung      #
                #                Kaiser Wilhelm Platz 1                 #
                #                 D-45470 Muelheim/Ruhr                 #
                #                      Germany                          #
                #                                                       #
                #                  All rights reserved                  #
                #                        -***-                          #
                #########################################################


                         Program Version 6.0.0  -   RELEASE  -


 With contributions from (in alphabetic order):
   Daniel Aravena         : Magnetic Suceptibility
   Michael Atanasov       : Ab Initio Ligand Field Theory (pilot matlab implementation)
   Alexander A. Auer      : GIAO ZORA, VPT2 properties, NMR spectrum
   Ute Becker             : All parallelization in ORCA, NUMFREQ, NUMCALC
   Giovanni Bistoni       : ED, misc. LED, open-shell LED, HFLD
   Martin Brehm           : Molecular dynamics
   Dmytro Bykov           : pre 5.0 version of the SCF Hessian
   Marcos Casanova-Páez   : Triplet and SCS-CIS(D). UHF-(DLPNO)-IP/EA/STEOM-CCSD. UHF-CVS-IP/STEOM-CCSD
   Vijay G. Chilkuri      : MRCI spin determinant printing, contributions to CSF-ICE
   Pauline Colinet        : FMM embedding
   Dipayan Datta          : RHF DLPNO-CCSD density
   Achintya Kumar Dutta   : EOM-CC, STEOM-CC
   Nicolas Foglia         : Exact transition moments, OPA infrastructure, MCD improvements
   Dmitry Ganyushin       : Spin-Orbit,Spin-Spin,Magnetic field MRCI
   Miquel Garcia          : C-PCM and meta-GGA Hessian, CCSD/C-PCM, Gaussian charge scheme
   Tiago L. C. Gouveia    : GS-ROHF, GS-ROCIS
   Yang Guo               : DLPNO-NEVPT2, F12-NEVPT2, CIM, IAO-localization
   Andreas Hansen         : Spin unrestricted coupled pair/coupled cluster methods
   Ingolf Harden          : AUTO-CI MPn and infrastructure 
   Benjamin Helmich-Paris : MC-RPA, TRAH-(SCF,CASSCF), AVAS, COSX integrals, SCF dyn. polar.
   Lee Huntington         : MR-EOM, pCC
   Robert Izsak           : Overlap fitted RIJCOSX, COSX-SCS-MP3, EOM
   Riya Kayal             : Wick's Theorem for AUTO-CI, AUTO-CI UHF-CCSDT
   Emily Kempfer          : AUTO-CI, RHF CISDT and CCSDT
   Christian Kollmar      : KDIIS, OOCD, Brueckner-CCSD(T), CCSD density, CASPT2, CASPT2-K, improved NEVPT2
   Axel Koslowski         : Symmetry handling
   Simone Kossmann        : Meta GGA functionals, TD-DFT gradient, OOMP2, (MP2 Hessian; deprecated post 5.0)
   Lucas Lang             : DCDCAS
   Marvin Lechner         : AUTO-CI (C++ implementation), FIC-MRCC
   Spencer Leger          : CASSCF response
   Dagmar Lenk            : GEPOL surface, SMD, ORCA-2-JSON
   Dimitrios Liakos       : Extrapolation schemes; Compound Job, initial MDCI parallelization
   Dimitrios Manganas     : Further ROCIS development; embedding schemes. LFT, Crystal Embedding
   Dimitrios Pantazis     : SARC Basis sets
   Anastasios Papadopoulos: AUTO-CI, single reference methods and gradients
   Taras Petrenko         : pre 6.0 DFT Hessian and TD-DFT gradient, (ASA, deprecated), ECA, 1-Electron XAS/XES, NRVS
   Peter Pinski           : DLPNO-MP2, DLPNO-MP2 Gradient
   Christoph Reimann      : Effective Core Potentials
   Marius Retegan         : Local ZFS, SOC
   Christoph Riplinger    : Optimizer, TS searches, QM/MM, DLPNO-CCSD(T), (RO)-DLPNO pert. Triples
   Michael Roemelt        : Original ROCIS implementation
   Masaaki Saitow         : Open-shell DLPNO-CCSD energy and density
   Barbara Sandhoefer     : DKH picture change effects
   Kantharuban Sivalingam : CASSCF convergence/infrastructure, NEVPT2 and variants, FIC-MRCI
   Bernardo de Souza      : ESD, SOC TD-DFT
   Georgi Stoychev        : AutoAux, RI-MP2 NMR, DLPNO-MP2 response, X2C
   Van Anh Tran           : RI-MP2 g-tensors
   Willem Van den Heuvel  : Paramagnetic NMR
   Zikuan Wang            : NOTCH, Electric field optimization 
   Frank Wennmohs         : Technical directorship and infrastructure
   Hang Xu                : AUTO-CI-Response properties 


 We gratefully acknowledge several colleagues who have allowed us to
 interface, adapt or use parts of their codes:
   Stefan Grimme, W. Hujo, H. Kruse, P. Pracht,  : VdW corrections, initial TS optimization,
                  C. Bannwarth, S. Ehlert,         DFT functionals, gCP, sTDA/sTD-DF
                  L. Wittmann, M. Mueller
   Ed Valeev, F. Pavosevic, A. Kumar             : LibInt (2-el integral package), F12 methods
   Garnet Chan, S. Sharma, J. Yang, R. Olivares  : DMRG
   Ulf Ekstrom                                   : XCFun DFT Library
   Mihaly Kallay                                 : mrcc  (arbitrary order and MRCC methods)
   Frank Weinhold                                : gennbo (NPA and NBO analysis)
   Simon Mueller                                 : openCOSMO-RS
   Christopher J. Cramer and Donald G. Truhlar   : smd solvation model
   Lars Goerigk                                  : TD-DFT with DH, B97 family of functionals
   V. Asgeirsson, H. Jonsson                     : NEB implementation
   FAccTs GmbH                                   : IRC, NEB, NEB-TS, DLPNO-Multilevel, CI-OPT
                                                   MM, QMMM, 2- and 3-layer-ONIOM, Crystal-QMMM,
                                                   LR-CPCM, SF, NACMEs, symmetry and pop. for TD-DFT,
                                                   nearIR, NL-DFT gradient (VV10), updates on ESD,
                                                   ML-optimized integration grids, MBIS, APM,
                                                   GOAT, DOCKER, SOLVATOR, interface openCOSMO-RS
   S Lehtola, MJT Oliveira, MAL Marques          : LibXC Library
   Liviu Ungur et al                             : ANISO software


 Your calculation uses the libint2 library for the computation of 2-el integrals
 For citations please refer to: http://libint.valeyev.net

 Your ORCA version has been built with support for libXC version: 6.2.2
 For citations please refer to: https://libxc.gitlab.io

 This ORCA versions uses:
   CBLAS   interface :  Fast vector & matrix operations
   LAPACKE interface :  Fast linear algebra routines
   SCALAPACK package :  Parallel linear algebra routines
   Shared memory     :  Shared parallel matrices
   BLAS/LAPACK       :  OpenBLAS 0.3.27  USE64BITINT DYNAMIC_ARCH NO_AFFINITY SkylakeX SINGLE_THREADED
        Core in use  :  SkylakeX
   Copyright (c) 2011-2014, The OpenBLAS Project


Your calculation utilizes the geometrical counterpoise correction gCP
Please cite in your paper:
H.Kruse, S. Grimme J.Chem.Phys., 136, (2012), 154101 
   

Your calculation utilizes the atom-pairwise dispersion correction
based on EEQ partial charges (D4)


================================================================================

----- Orbital basis set information -----
Your calculation utilizes the basis: def2-mTZVPP
   Stefan Grimme, Andreas Hansen, Sebastian Ehlert, and Jan-Michael Mewes 
   J. Chem. Phys. 154, 064103 (2021). DOI: 10.1063/5.0040021

----- AuxJ basis set information -----
Your calculation utilizes the auxiliary basis: def2/J
   F. Weigend, Phys. Chem. Chem. Phys. 8, 1057 (2006).

================================================================================
                                        WARNINGS
                       Please study these warnings very carefully!
================================================================================

Using LibXC functional ID 497 : Re-regularized SCAN exchange by Furness et al
[ 1]  J. W. Furness, A. D. Kaplan, J. Ning, J. P. Perdew, and J. Sun.,  J. Phys. Chem. Lett. 11, 8208-8215 (2020)
[ 2]  J. W. Furness, A. D. Kaplan, J. Ning, J. P. Perdew, and J. Sun.,  J. Phys. Chem. Lett. 11, 9248-9248 (2020)
Using LibXC functional ID 498 : Re-regularized SCAN correlation by Furness et al
[ 1]  J. W. Furness, A. D. Kaplan, J. Ning, J. P. Perdew, and J. Sun.,  J. Phys. Chem. Lett. 11, 8208-8215 (2020)
[ 2]  J. W. Furness, A. D. Kaplan, J. Ning, J. P. Perdew, and J. Sun.,  J. Phys. Chem. Lett. 11, 9248-9248 (2020)
Using LibXC functional ID 497 : Re-regularized SCAN exchange by Furness et al
[ 1]  J. W. Furness, A. D. Kaplan, J. Ning, J. P. Perdew, and J. Sun.,  J. Phys. Chem. Lett. 11, 8208-8215 (2020)
[ 2]  J. W. Furness, A. D. Kaplan, J. Ning, J. P. Perdew, and J. Sun.,  J. Phys. Chem. Lett. 11, 9248-9248 (2020)
Using LibXC functional ID 498 : Re-regularized SCAN correlation by Furness et al
[ 1]  J. W. Furness, A. D. Kaplan, J. Ning, J. P. Perdew, and J. Sun.,  J. Phys. Chem. Lett. 11, 8208-8215 (2020)
[ 2]  J. W. Furness, A. D. Kaplan, J. Ning, J. P. Perdew, and J. Sun.,  J. Phys. Chem. Lett. 11, 9248-9248 (2020)

================================================================================
                                       INPUT FILE
================================================================================
NAME = sp_gas.inp
|  1> ! r2scan-3c def2/J RI DEFGRID2 scfconv6 printgap
|  2> %output
|  3>     printlevel normal
|  4> end
|  5> * xyz 0 1
|  6> C 2.0885795469 -1.068716901 -0.4654438201
|  7> C 0.8700241128 -0.4464238681 0.2152827941
|  8> C 1.194264618 0.9736708088 0.671929302
|  9> C -0.3318002031 -0.4696910595 -0.7373321644
| 10> C -1.6831852314 -0.2655951654 -0.0531104305
| 11> O -1.8626887411 1.0924745264 0.3029130998
| 12> H 2.9481777473 -1.040840738 0.1998060152
| 13> H 2.336706913 -0.5179752209 -1.3701529249
| 14> H 1.8952566512 -2.1046374096 -0.7344328063
| 15> H 0.6209952174 -1.0491834229 1.0965355948
| 16> H 0.3140279857 1.4482011821 1.0949655364
| 17> H 1.5287603658 1.5713073607 -0.1734810043
| 18> H 1.9830389697 0.9628720093 1.4206952324
| 19> H -0.3662586458 -1.4382126066 -1.2395261538
| 20> H -0.2100018497 0.3057188509 -1.4954002833
| 21> H -2.4783890562 -0.5707179468 -0.7475271561
| 22> H -1.7415142884 -0.9012469754 0.8416341383
| 23> H -2.7393311992 1.2076999379 0.6918817231
| 24> *
| 25> 
| 26>                          ****END OF INPUT****
================================================================================

                       ****************************
                       * Single Point Calculation *
                       ****************************

---------------------------------
CARTESIAN COORDINATES (ANGSTROEM)
---------------------------------
  C      2.088580   -1.068717   -0.465444
  C      0.870024   -0.446424    0.215283
  C      1.194265    0.973671    0.671929
  C     -0.331800   -0.469691   -0.737332
  C     -1.683185   -0.265595   -0.053110
  O     -1.862689    1.092475    0.302913
  H      2.948178   -1.040841    0.199806
  H      2.336707   -0.517975   -1.370153
  H      1.895257   -2.104637   -0.734433
  H      0.620995   -1.049183    1.096536
  H      0.314028    1.448201    1.094966
  H      1.528760    1.571307   -0.173481
  H      1.983039    0.962872    1.420695
  H     -0.366259   -1.438213   -1.239526
  H     -0.210002    0.305719   -1.495400
  H     -2.478389   -0.570718   -0.747527
  H     -1.741514   -0.901247    0.841634
  H     -2.739331    1.207700    0.691882

----------------------------
CARTESIAN COORDINATES (A.U.)
----------------------------
  NO LB      ZA    FRAG     MASS         X           Y           Z
   0 C     6.0000    0    12.011    3.946843   -2.019582   -0.879561
   1 C     6.0000    0    12.011    1.644107   -0.843619    0.406826
   2 C     6.0000    0    12.011    2.256833    1.839971    1.269762
   3 C     6.0000    0    12.011   -0.627012   -0.887587   -1.393356
   4 C     6.0000    0    12.011   -3.180759   -0.501902   -0.100364
   5 O     8.0000    0    15.999   -3.519972    2.064478    0.572423
   6 H     1.0000    0     1.008    5.571249   -1.966904    0.377579
   7 H     1.0000    0     1.008    4.415736   -0.978831   -2.589214
   8 H     1.0000    0     1.008    3.581516   -3.977188   -1.387877
   9 H     1.0000    0     1.008    1.173511   -1.982669    2.072152
  10 H     1.0000    0     1.008    0.593427    2.736704    2.069185
  11 H     1.0000    0     1.008    2.888938    2.969341   -0.327832
  12 H     1.0000    0     1.008    3.747401    1.819564    2.684725
  13 H     1.0000    0     1.008   -0.692129   -2.717828   -2.342365
  14 H     1.0000    0     1.008   -0.396846    0.577725   -2.825897
  15 H     1.0000    0     1.008   -4.683477   -1.078501   -1.412622
  16 H     1.0000    0     1.008   -3.290985   -1.703110    1.590458
  17 H     1.0000    0     1.008   -5.176586    2.282222    1.307467

--------------------------------
INTERNAL COORDINATES (ANGSTROEM)
--------------------------------
 C      0   0   0     0.000000000000     0.00000000     0.00000000
 C      1   0   0     1.528239080789     0.00000000     0.00000000
 C      2   1   0     1.526540805137   110.04067336     0.00000000
 C      2   1   3     1.533753013898   109.99648950   123.21023854
 C      4   2   1     1.528416176911   114.37783468   162.79654269
 O      5   4   2     1.415389540695   110.66263704    75.24512959
 H      1   2   3     1.087310208708   110.32849865    55.90362810
 H      1   2   3     1.087833696994   110.25310751   296.20986818
 H      1   2   3     1.087593727840   110.87210745   176.05098228
 H      2   1   3     1.096330684779   108.37833415   241.36125197
 H      3   2   1     1.085797061905   110.54334060   176.08435008
 H      3   2   1     1.088014448186   110.11175676    56.61577166
 H      3   2   1     1.087626779046   110.53268175   296.74028933
 H      4   2   1     1.091521953265   108.90242377    42.84321244
 H      4   2   1     1.091220711373   109.46532071   284.58061357
 H      5   4   2     1.098937497540   108.65336174   195.48294325
 H      5   4   2     1.099101153600   109.51946633   313.70490915
 H      6   5   4     0.965958324521   109.31975260   177.12438557

---------------------------
INTERNAL COORDINATES (A.U.)
---------------------------
 C      0   0   0     0.000000000000     0.00000000     0.00000000
 C      1   0   0     2.887953329847     0.00000000     0.00000000
 C      2   1   0     2.884744053965   110.04067336     0.00000000
 C      2   1   3     2.898373153344   109.99648950   123.21023854
 C      4   2   1     2.888287993017   114.37783468   162.79654269
 O      5   4   2     2.674698604729   110.66263704    75.24512959
 H      1   2   3     2.054718517075   110.32849865    55.90362810
 H      1   2   3     2.055707766569   110.25310751   296.20986818
 H      1   2   3     2.055254290588   110.87210745   176.05098228
 H      2   1   3     2.071764746447   108.37833415   241.36125197
 H      3   2   1     2.051859084018   110.54334060   176.08435008
 H      3   2   1     2.056049336821   110.11175676    56.61577166
 H      3   2   1     2.055316748316   110.53268175   296.74028933
 H      4   2   1     2.062677560834   108.90242377    42.84321244
 H      4   2   1     2.062108296158   109.46532071   284.58061357
 H      5   4   2     2.076690908647   108.65336174   195.48294325
 H      5   4   2     2.077000173780   109.51946633   313.70490915
 H      6   5   4     1.825396690126   109.31975260   177.12438557

---------------------
BASIS SET INFORMATION
---------------------
There are 3 groups of distinct atoms

 Group   1 Type C   : 11s6p1d contracted to 5s3p1d pattern {62111/411/1}
 Group   2 Type O   : 11s6p2d contracted to 5s3p2d pattern {62111/411/11}
 Group   3 Type H   : 4s1p contracted to 2s1p pattern {31/1}

Atom   0C    basis set group =>   1
Atom   1C    basis set group =>   1
Atom   2C    basis set group =>   1
Atom   3C    basis set group =>   1
Atom   4C    basis set group =>   1
Atom   5O    basis set group =>   2
Atom   6H    basis set group =>   3
Atom   7H    basis set group =>   3
Atom   8H    basis set group =>   3
Atom   9H    basis set group =>   3
Atom  10H    basis set group =>   3
Atom  11H    basis set group =>   3
Atom  12H    basis set group =>   3
Atom  13H    basis set group =>   3
Atom  14H    basis set group =>   3
Atom  15H    basis set group =>   3
Atom  16H    basis set group =>   3
Atom  17H    basis set group =>   3
---------------------------------
AUXILIARY/J BASIS SET INFORMATION
---------------------------------
There are 3 groups of distinct atoms

 Group   1 Type C   : 12s5p4d2f1g contracted to 6s4p3d1f1g pattern {711111/2111/211/2/1}
 Group   2 Type O   : 12s5p4d2f1g contracted to 6s4p3d1f1g pattern {711111/2111/211/2/1}
 Group   3 Type H   : 5s2p1d contracted to 3s1p1d pattern {311/2/1}

Atom   0C    basis set group =>   1
Atom   1C    basis set group =>   1
Atom   2C    basis set group =>   1
Atom   3C    basis set group =>   1
Atom   4C    basis set group =>   1
Atom   5O    basis set group =>   2
Atom   6H    basis set group =>   3
Atom   7H    basis set group =>   3
Atom   8H    basis set group =>   3
Atom   9H    basis set group =>   3
Atom  10H    basis set group =>   3
Atom  11H    basis set group =>   3
Atom  12H    basis set group =>   3
Atom  13H    basis set group =>   3
Atom  14H    basis set group =>   3
Atom  15H    basis set group =>   3
Atom  16H    basis set group =>   3
Atom  17H    basis set group =>   3

Checking for AutoStart:
The File: sp_gas.gbw exists
Trying to determine its content:
     ... Fine, the file contains calculation information
     ... Fine, the calculation information was read
     ... Fine, the file contains a basis set
     ... Fine, the basis set was read
     ... Fine, the file contains a geometry
     ... Fine, the geometry was read
     ... Fine, the file contains a set of orbitals
     ... Fine, the orbitals can be read
     => possible old guess file was deleted
     => GBW file was renamed to GES file
     => GES file is set as startup file
     => Guess is set to MORead
     ... now leaving AutoStart

------------------------------------------------------------------------------
                             ORCA STARTUP CALCULATIONS
                           -- RI-GTO INTEGRALS CHOSEN --
------------------------------------------------------------------------------
------------------------------------------------------------------------------
                   ___                                                        
                  /   \      - P O W E R E D   B Y -                         
                 /     \                                                     
                 |  |  |   _    _      __       _____    __    __             
                 |  |  |  | |  | |    /  \     |  _  \  |  |  /  |          
                  \  \/   | |  | |   /    \    | | | |  |  | /  /          
                 / \  \   | |__| |  /  /\  \   | |_| |  |  |/  /          
                |  |  |   |  __  | /  /__\  \  |    /   |      \           
                |  |  |   | |  | | |   __   |  |    \   |  |\   \          
                \     /   | |  | | |  |  |  |  | |\  \  |  | \   \       
                 \___/    |_|  |_| |__|  |__|  |_| \__\ |__|  \__/        
                                                                              
                      - O R C A' S   B I G   F R I E N D -                    
                                      &                                       
                       - I N T E G R A L  F E E D E R -                       
                                                                              
 v1 FN, 2020, v2 2021, v3 2022-2024                                           
------------------------------------------------------------------------------


----------------------
SHARK INTEGRAL PACKAGE
----------------------

Number of atoms                             ...     18
Number of basis functions                   ...    179
Number of shells                            ...     91
Maximum angular momentum                    ...      2
Integral batch strategy                     ... SHARK/LIBINT Hybrid
RI-J (if used) integral strategy            ... SPLIT-RIJ (Revised 2003 algorithm where possible)
Printlevel                                  ...      1
Contraction scheme used                     ... SEGMENTED contraction
Prescreening option                         ... SCHWARTZ
   Thresh                                   ... 1.000e-10
   Tcut                                     ... 1.000e-11
   Tpresel                                  ... 1.000e-11 
Coulomb Range Separation                    ... NOT USED
Exchange Range Separation                   ... NOT USED
Multipole approximations                    ... NOT USED
Finite Nucleus Model                        ... NOT USED
CABS basis                                  ... NOT available
Auxiliary Coulomb fitting basis             ... AVAILABLE
   # of basis functions in Aux-J            ...    426
   # of shells in Aux-J                     ...    150
   Maximum angular momentum in Aux-J        ...      4
Auxiliary J/K fitting basis                 ... NOT available
Auxiliary Correlation fitting basis         ... NOT available
Auxiliary 'external' fitting basis          ... NOT available

Checking pre-screening integrals            ... done (  0.0 sec) Dimension = 91
Check shell pair data                       ... done (  0.0 sec)
Shell pair information
Shell pair cut-off parameter TPreSel        ...   1.0e-11
Total number of shell pairs                 ...      4186
Shell pairs after pre-screening             ...      3899
Total number of primitive shell pairs       ...     14533
Primitive shell pairs kept                  ...      9985
          la=0 lb=0:   1370 shell pairs
          la=1 lb=0:   1506 shell pairs
          la=1 lb=1:    436 shell pairs
          la=2 lb=0:    359 shell pairs
          la=2 lb=1:    201 shell pairs
          la=2 lb=2:     27 shell pairs

Calculating one electron integrals          ... done (  0.0 sec)
Calculating RI/J V-Matrix + Cholesky decomp.... done (  0.1 sec)
Calculating Nuclear repulsion               ... done (  0.0 sec) ENN=    259.563823341695 Eh

Diagonalization of the overlap matrix:
Smallest eigenvalue                        ... 1.868e-04
Time for diagonalization                   ...    0.003 sec
Threshold for overlap eigenvalues          ... 1.000e-07
Number of eigenvalues below threshold      ... 0
Time for construction of square roots      ...    0.017 sec
Total time needed                          ...    0.032 sec

-------------------
DFT GRID GENERATION
-------------------

General Integration Accuracy     IntAcc      ... 4.388
Radial Grid Type                 RadialGrid  ... OptM3 with GC (2021)
Angular Grid (max. ang.)         AngularGrid ... 4 (Lebedev-302)
Angular grid pruning method      GridPruning ... 4 (adaptive)
Weight generation scheme         WeightScheme... mBecke (2022)
Basis function cutoff            BFCut       ... 1.0000e-10
Integration weight cutoff        WCut        ... 1.0000e-14
Partially contracted basis set               ... off
Rotationally invariant grid construction     ... off
Angular grids for H and He will be reduced by one unit
Diffuse basis detected: some atoms will have their outermost
                        angular grid increased by 1.

Total number of grid points                  ...    74861
Total number of batches                      ...     1180
Average number of points per batch           ...       63
Average number of grid points per atom       ...     4159
Initializing property integral containers    ... done (  0.0 sec)

SHARK setup successfully completed in   1.0 seconds

Maximum memory used throughout the entire STARTUP-calculation: 32.3 MB
-------------------------------------------------------------------------------
                                 ORCA GUESS
                   Start orbitals & Density for SCF / CASSCF
-------------------------------------------------------------------------------

------------
SCF SETTINGS
------------
Hamiltonian:
 Density Functional     Method          .... DFT(GTOs)
  Functional kind                       .... Exchange
  Functional name                       .... Re-regularized SCAN exchange by Furness et al
  Functional family                     .... MGGA
  Functional refs                              
    [ 0] J. W. Furness, A. D. Kaplan, J. Ning, J. P. Perdew, and J. Sun.,  J. Phys. Chem. Lett. 11, 8208-8215 (2020), doi: 10.1021/acs.jpclett.0c02405
    [ 1] J. W. Furness, A. D. Kaplan, J. Ning, J. P. Perdew, and J. Sun.,  J. Phys. Chem. Lett. 11, 9248-9248 (2020), doi: 10.1021/acs.jpclett.0c03077
  Functional external parameters        .... 6
    Parameter  0 _c1        =  6.670000e-01 : c1 parameter        
    Parameter  1 _c2        =  8.000000e-01 : c2 parameter        
    Parameter  2 _d         =  1.240000e+00 : d parameter         
    Parameter  3 _k1        =  6.500000e-02 : k1 parameter        
    Parameter  4 _eta       =  1.000000e-03 : eta parameter       
    Parameter  5 _dp2       =  3.610000e-01 : dp2 parameter       
  Functional kind                       .... Correlation
  Functional name                       .... Re-regularized SCAN correlation by Furness et al
  Functional family                     .... MGGA
  Functional refs                              
    [ 0] J. W. Furness, A. D. Kaplan, J. Ning, J. P. Perdew, and J. Sun.,  J. Phys. Chem. Lett. 11, 8208-8215 (2020), doi: 10.1021/acs.jpclett.0c02405
    [ 1] J. W. Furness, A. D. Kaplan, J. Ning, J. P. Perdew, and J. Sun.,  J. Phys. Chem. Lett. 11, 9248-9248 (2020), doi: 10.1021/acs.jpclett.0c03077
  Functional external parameters        .... 1
    Parameter  0 _eta       =  1.000000e-03 : Regularization parameter
 Gradients option       PostSCFGGA      .... off
 RI-approximation to the Coulomb term is turned on
   Number of AuxJ basis functions       .... 426


General Settings:
 Integral files         IntName         .... sp_gas
 Hartree-Fock type      HFTyp           .... RHF
 Total Charge           Charge          ....    0
 Multiplicity           Mult            ....    1
 Number of Electrons    NEL             ....   50
 Basis Dimension        Dim             ....  179
 Nuclear Repulsion      ENuc            ....    259.5638233417 Eh

Convergence Acceleration:
 AO-DIIS                CNVDIIS         .... on
   Start iteration      DIISMaxIt       ....    12
   Startup error        DIISStart       ....  0.200000
   # of expansion vecs  DIISMaxEq       ....     5
   Bias factor          DIISBfac        ....   1.050
   Max. coefficient     DIISMaxC        ....  10.000
 MO-DIIS                CNVKDIIS        .... off
 Trust-Rad. Augm. Hess. CNVTRAH         .... auto
   Auto Start mean grad. ratio tolernc. ....  1.125000
   Auto Start start iteration           ....     1
   Auto Start num. interpolation iter.  ....    10
   Max. Number of Micro iterations      ....    24
   Max. Number of Macro iterations      .... Maxiter - #DIIS iter
   Number of Davidson start vectors     ....     2
   Converg. threshold    (grad. norm)   ....   3.330e-04
   Grad. Scal. Fac. for Micro threshold ....   0.100
   Minimum threshold for Micro iter.    ....   1.000e-02
   NR start threshold (gradient norm)   ....   1.000e-04
   Initial trust radius                 ....   0.400
   Minimum AH scaling param. (alpha)    ....   1.000
   Maximum AH scaling param. (alpha)    .... 1000.000
   Quad. conv. algorithm                .... NR
   White noise on init. David. guess    .... on
   Maximum white noise                  ....   0.010
   Pseudo random numbers                .... off
   Inactive MOs                         .... canonical
   Orbital update algorithm             .... Taylor
   Preconditioner                       .... Diag
   Full preconditioner red. dimension   ....   250
   COSX micro iterations for RIJONX calc.... off
 SOSCF                  CNVSOSCF        .... on
   Start iteration      SOSCFMaxIt      ....   150
   Startup grad/error   SOSCFStart      ....  0.003300
   Hessian update       SOSCFHessUp     .... L-BFGS
 Level Shifting         CNVShift        .... on
   Level shift para.    LevelShift      ....    0.2500
   Turn off err/grad.   ShiftErr        ....    0.0010
 Zerner damping         CNVZerner       .... off
 Static damping         CNVDamp         .... on
   Fraction old density DampFac         ....    0.7000
   Max. Damping (<1)    DampMax         ....    0.9800
   Min. Damping (>=0)   DampMin         ....    0.0000
   Turn off err/grad.   DampErr         ....    0.1000

SCF Procedure:
 Maximum # iterations   MaxIter         ....   125
 SCF integral mode      SCFMode         .... Direct
   Integral package                     .... SHARK and LIBINT hybrid scheme
 Reset frequency        DirectResetFreq ....    20
 Integral Threshold     Thresh          ....  1.000e-10 Eh
 Primitive CutOff       TCut            ....  1.000e-11 Eh

Convergence Tolerance:
 Convergence Check Mode ConvCheckMode   .... Total+1el-Energy
 Convergence forced     ConvForced      .... 0
 Energy Change          TolE            ....  1.000e-06 Eh
 1-El. energy change                    ....  1.000e-03 Eh
 Orbital Gradient       TolG            ....  3.330e-04
 Orbital Rotation angle TolX            ....  3.330e-04
 DIIS Error             TolErr          ....  1.000e-06

---------------------
INITIAL GUESS: MOREAD
---------------------
Guess MOs are being read from file: sp_gas.ges
Input Geometry matches current geometry (good)
Atom 0: N(Shells)= 9 and 6 - projection required
Input basis set needs projection
NBasis(read)= 108
NBasis(calc)= 179
Basis set overlap was calculated
Using GuessMode=FMatrix for the initial guess
C*T matrix was formed
Effective Fockian was calculated
Effective Fockian was diagonalized
Initial density was built
                      ------------------
                      INITIAL GUESS DONE (   0.1 sec)
                      ------------------
             **** ENERGY FILE WAS UPDATED (sp_gas.en.tmp) ****
Finished Guess after   0.3 sec
Maximum memory used throughout the entire GUESS-calculation: 12.2 MB

-------------------------------------------------------------------------------------------
                                      ORCA LEAN-SCF
                              memory conserving SCF solver
-------------------------------------------------------------------------------------------

----------------------------------------D-I-I-S--------------------------------------------
Iteration    Energy (Eh)           Delta-E    RMSDP     MaxDP     DIISErr   Damp  Time(sec)
-------------------------------------------------------------------------------------------
               ***  Starting incremental Fock matrix formation  ***
    1    -272.7452822322841257     0.00e+00  3.59e-03  9.44e-02  6.28e-01  0.700   2.2
    2    -272.7916983484753928    -4.64e-02  2.96e-03  7.68e-02  4.41e-01  0.700   2.1
    3    -272.8246173562635022    -3.29e-02  2.19e-03  5.61e-02  3.09e-01  0.700   2.2
    4    -272.8477425470306343    -2.31e-02  1.57e-03  4.00e-02  2.17e-01  0.700   1.9
                               ***Turning on AO-DIIS***
    5    -272.8639715838944539    -1.62e-02  1.14e-03  2.86e-02  1.52e-01  0.700   2.0
    6    -272.8753543298325894    -1.14e-02  8.14e-04  2.02e-02  1.06e-01  0.700   2.0
    7    -272.8833366046646915    -7.98e-03  5.75e-04  1.42e-02  7.43e-02  0.700   1.9
    8    -272.8889316616556471    -5.60e-03  1.35e-03  3.32e-02  5.20e-02  0.000   2.3
                              *** Initializing SOSCF ***
---------------------------------------S-O-S-C-F--------------------------------------
Iteration    Energy (Eh)           Delta-E    RMSDP     MaxDP     MaxGrad    Time(sec)
--------------------------------------------------------------------------------------
    9    -272.9020108263698603    -1.31e-02  9.98e-06  2.12e-04  1.59e-04     2.1
               *** Restarting incremental Fock matrix formation ***
   10    -272.9020109525243925    -1.26e-07  7.93e-06  2.31e-04  2.64e-05     2.4
                  *** Gradient check signals convergence ***

               *****************************************************
               *                     SUCCESS                       *
               *           SCF CONVERGED AFTER  10 CYCLES          *
               *****************************************************

             **** ENERGY FILE WAS UPDATED (sp_gas.en.tmp) ****

----------------
TOTAL SCF ENERGY
----------------

Total Energy       :       -272.90201095252439 Eh           -7426.04125 eV

Components:
Nuclear Repulsion  :        259.56382334169530 Eh            7063.09071 eV
Electronic Energy  :       -532.46583429421969 Eh          -14489.13196 eV
One Electron Energy:       -883.09959286036838 Eh          -24030.36160 eV
Two Electron Energy:        350.63375856614869 Eh            9541.22964 eV

Virial components:
Potential Energy   :       -544.59735193178744 Eh          -14819.24734 eV
Kinetic Energy     :        271.69534097926299 Eh            7393.20609 eV
Virial Ratio       :          2.00444126118951

DFT components:
N(Alpha)           :       25.000045859930 electrons
N(Beta)            :       25.000045859930 electrons
N(Total)           :       50.000091719859 electrons
E(X)               :      -38.582233253340 Eh       
E(C)               :       -1.562116930982 Eh       
E(XC)              :      -40.144350184322 Eh       

---------------
SCF CONVERGENCE
---------------

  Last Energy change         ...    1.2615e-07  Tolerance :   1.0000e-06
  Last MAX-Density change    ...    2.3114e-04  Tolerance :   1.0000e-05
  Last RMS-Density change    ...    7.9299e-06  Tolerance :   1.0000e-06
  Last DIIS Error            ...    1.5942e-04  Tolerance :   1.0000e-06
  Last Orbital Gradient      ...    2.6359e-05  Tolerance :   3.3300e-04
  Last Orbital Rotation      ...    4.5930e-05  Tolerance :   3.3300e-04


----------------
ORBITAL ENERGIES
----------------

  NO   OCC          E(Eh)            E(eV) 
   0   2.0000     -18.947673      -515.5924 
   1   2.0000     -10.074857      -274.1508 
   2   2.0000     -10.027829      -272.8711 
   3   2.0000     -10.022291      -272.7204 
   4   2.0000     -10.010587      -272.4019 
   5   2.0000     -10.000527      -272.1282 
   6   2.0000      -0.984237       -26.7824 
   7   2.0000      -0.771616       -20.9967 
   8   2.0000      -0.692157       -18.8345 
   9   2.0000      -0.640887       -17.4394 
  10   2.0000      -0.582996       -15.8641 
  11   2.0000      -0.521725       -14.1969 
  12   2.0000      -0.486442       -13.2368 
  13   2.0000      -0.427777       -11.6404 
  14   2.0000      -0.419872       -11.4253 
  15   2.0000      -0.391173       -10.6444 
  16   2.0000      -0.376328       -10.2404 
  17   2.0000      -0.353474        -9.6185 
  18   2.0000      -0.345803        -9.4098 
  19   2.0000      -0.325481        -8.8568 
  20   2.0000      -0.317666        -8.6441 
  21   2.0000      -0.289733        -7.8840 
  22   2.0000      -0.286665        -7.8005 
  23   2.0000      -0.274944        -7.4816 
  24   2.0000      -0.233332        -6.3493 
  25   0.0000       0.059721         1.6251 
  26   0.0000       0.099339         2.7031 
  27   0.0000       0.113833         3.0976 
  28   0.0000       0.125325         3.4103 
  29   0.0000       0.132062         3.5936 
  30   0.0000       0.145519         3.9598 
  31   0.0000       0.148802         4.0491 
  32   0.0000       0.153787         4.1848 
  33   0.0000       0.163400         4.4463 
  34   0.0000       0.174859         4.7582 
  35   0.0000       0.180882         4.9220 
*Only the first 10 virtual orbitals were printed.

                    ********************************
                    * MULLIKEN POPULATION ANALYSIS *
                    ********************************

-----------------------
MULLIKEN ATOMIC CHARGES
-----------------------
   0 C :   -0.474787
   1 C :   -0.035902
   2 C :   -0.516025
   3 C :   -0.239086
   4 C :   -0.164395
   5 O :   -0.426813
   6 H :    0.146403
   7 H :    0.145723
   8 H :    0.142472
   9 H :    0.136757
  10 H :    0.181757
  11 H :    0.143150
  12 H :    0.139635
  13 H :    0.139256
  14 H :    0.150217
  15 H :    0.120731
  16 H :    0.119903
  17 H :    0.291005
Sum of atomic charges:    0.0000000

--------------------------------
MULLIKEN REDUCED ORBITAL CHARGES
--------------------------------
  0 C s       :     3.328526  s :     3.328526
      pz      :     1.055302  p :     3.119134
      px      :     0.999270
      py      :     1.064563
      dz2     :     0.003863  d :     0.027127
      dxz     :     0.007478
      dyz     :     0.004804
      dx2y2   :     0.007571
      dxy     :     0.003411

  1 C s       :     3.102077  s :     3.102077
      pz      :     1.005525  p :     2.887493
      px      :     0.922423
      py      :     0.959545
      dz2     :     0.006322  d :     0.046332
      dxz     :     0.010723
      dyz     :     0.010198
      dx2y2   :     0.010586
      dxy     :     0.008503

  2 C s       :     3.343483  s :     3.343483
      pz      :     1.082267  p :     3.145718
      px      :     1.112997
      py      :     0.950455
      dz2     :     0.002468  d :     0.026825
      dxz     :     0.006745
      dyz     :     0.006740
      dx2y2   :     0.005671
      dxy     :     0.005200

  3 C s       :     3.174792  s :     3.174792
      pz      :     1.005532  p :     3.028846
      px      :     0.922500
      py      :     1.100814
      dz2     :     0.004039  d :     0.035448
      dxz     :     0.009386
      dyz     :     0.008472
      dx2y2   :     0.010208
      dxy     :     0.003343

  4 C s       :     3.295867  s :     3.295867
      pz      :     1.029350  p :     2.809518
      px      :     1.028183
      py      :     0.751985
      dz2     :     0.006582  d :     0.059011
      dxz     :     0.009003
      dyz     :     0.017353
      dx2y2   :     0.015636
      dxy     :     0.010438

  5 O s       :     3.766684  s :     3.766684
      pz      :     1.789350  p :     4.644886
      px      :     1.474727
      py      :     1.380809
      dz2     :     0.003152  d :     0.015244
      dxz     :     0.003997
      dyz     :     0.000795
      dx2y2   :     0.006416
      dxy     :     0.000883

  6 H s       :     0.835305  s :     0.835305
      pz      :     0.006248  p :     0.018292
      px      :     0.008379
      py      :     0.003665

  7 H s       :     0.836041  s :     0.836041
      pz      :     0.008736  p :     0.018237
      px      :     0.004063
      py      :     0.005437

  8 H s       :     0.839252  s :     0.839252
      pz      :     0.004228  p :     0.018275
      px      :     0.003772
      py      :     0.010275

  9 H s       :     0.845759  s :     0.845759
      pz      :     0.008299  p :     0.017484
      px      :     0.003606
      py      :     0.005579

 10 H s       :     0.799278  s :     0.799278
      pz      :     0.004553  p :     0.018965
      px      :     0.009372
      py      :     0.005040

 11 H s       :     0.838583  s :     0.838583
      pz      :     0.007868  p :     0.018267
      px      :     0.004458
      py      :     0.005942

 12 H s       :     0.842097  s :     0.842097
      pz      :     0.007157  p :     0.018268
      px      :     0.007513
      py      :     0.003598

 13 H s       :     0.842757  s :     0.842757
      pz      :     0.005343  p :     0.017987
      px      :     0.003360
      py      :     0.009284

 14 H s       :     0.831915  s :     0.831915
      pz      :     0.007113  p :     0.017869
      px      :     0.003409
      py      :     0.007347

 15 H s       :     0.862163  s :     0.862163
      pz      :     0.006576  p :     0.017106
      px      :     0.007411
      py      :     0.003118

 16 H s       :     0.862972  s :     0.862972
      pz      :     0.008340  p :     0.017125
      px      :     0.003434
      py      :     0.005351

 17 H s       :     0.665671  s :     0.665671
      pz      :     0.014357  p :     0.043324
      px      :     0.020508
      py      :     0.008459


------------------------
MULLIKEN OVERLAP CHARGES
------------------------
B(  0-C ,  1-C ) :   0.5370 B(  0-C ,  2-C ) :  -0.2344 B(  0-C ,  3-C ) :  -0.1771 
B(  0-C ,  6-H ) :   0.8254 B(  0-C ,  7-H ) :   0.8513 B(  0-C ,  8-H ) :   0.8188 
B(  0-C ,  9-H ) :  -0.0786 B(  1-C ,  2-C ) :   0.4239 B(  1-C ,  3-C ) :   0.3525 
B(  1-C ,  4-C ) :  -0.1046 B(  1-C ,  6-H ) :  -0.1003 B(  1-C ,  7-H ) :  -0.0926 
B(  1-C ,  8-H ) :  -0.0829 B(  1-C ,  9-H ) :   0.8765 B(  1-C , 10-H ) :  -0.0690 
B(  1-C , 11-H ) :  -0.0871 B(  1-C , 12-H ) :  -0.0885 B(  1-C , 13-H ) :  -0.0968 
B(  1-C , 14-H ) :  -0.0909 B(  2-C ,  3-C ) :  -0.2334 B(  2-C ,  9-H ) :  -0.0505 
B(  2-C , 10-H ) :   0.8064 B(  2-C , 11-H ) :   0.8492 B(  2-C , 12-H ) :   0.8092 
B(  3-C ,  4-C ) :   0.5005 B(  3-C ,  5-O ) :  -0.1882 B(  3-C ,  9-H ) :  -0.1290 
B(  3-C , 13-H ) :   0.8086 B(  3-C , 14-H ) :   0.8050 B(  3-C , 15-H ) :  -0.0828 
B(  3-C , 16-H ) :  -0.0965 B(  4-C ,  5-O ) :   0.4478 B(  4-C , 13-H ) :  -0.0518 
B(  4-C , 15-H ) :   0.8244 B(  4-C , 16-H ) :   0.9025 B(  4-C , 17-H ) :  -0.0926 
B(  5-O , 15-H ) :  -0.1047 B(  5-O , 16-H ) :  -0.1161 B(  5-O , 17-H ) :   0.5860 
B( 15-H , 16-H ) :  -0.0949 


                     *******************************
                     * LOEWDIN POPULATION ANALYSIS *
                     *******************************

----------------------
LOEWDIN ATOMIC CHARGES
----------------------
   0 C :   -0.418860
   1 C :   -0.245587
   2 C :   -0.416855
   3 C :   -0.280706
   4 C :    0.005987
   5 O :   -0.637709
   6 H :    0.153159
   7 H :    0.153845
   8 H :    0.150080
   9 H :    0.153836
  10 H :    0.173382
  11 H :    0.152706
  12 H :    0.148459
  13 H :    0.162925
  14 H :    0.169756
  15 H :    0.155258
  16 H :    0.154656
  17 H :    0.265669

-------------------------------
LOEWDIN REDUCED ORBITAL CHARGES
-------------------------------
  0 C s       :     2.972774  s :     2.972774
      pz      :     1.140984  p :     3.382278
      px      :     1.103510
      py      :     1.137783
      dz2     :     0.008829  d :     0.063809
      dxz     :     0.017892
      dyz     :     0.011678
      dx2y2   :     0.017896
      dxy     :     0.007515

  1 C s       :     2.909145  s :     2.909145
      pz      :     1.096250  p :     3.241151
      px      :     1.058306
      py      :     1.086594
      dz2     :     0.012325  d :     0.095292
      dxz     :     0.023371
      dyz     :     0.021439
      dx2y2   :     0.021864
      dxy     :     0.016294

  2 C s       :     2.969757  s :     2.969757
      pz      :     1.149140  p :     3.383924
      px      :     1.152608
      py      :     1.082176
      dz2     :     0.005762  d :     0.063174
      dxz     :     0.017017
      dyz     :     0.015538
      dx2y2   :     0.013355
      dxy     :     0.011501

  3 C s       :     2.936294  s :     2.936294
      pz      :     1.098522  p :     3.267901
      px      :     1.042925
      py      :     1.126455
      dz2     :     0.007178  d :     0.076511
      dxz     :     0.020283
      dyz     :     0.019803
      dx2y2   :     0.023633
      dxy     :     0.005614

  4 C s       :     2.874052  s :     2.874052
      pz      :     1.066638  p :     2.987826
      px      :     1.052563
      py      :     0.868625
      dz2     :     0.013281  d :     0.132135
      dxz     :     0.020837
      dyz     :     0.039815
      dx2y2   :     0.036897
      dxy     :     0.021307

  5 O s       :     3.523518  s :     3.523518
      pz      :     1.799107  p :     4.829975
      px      :     1.530460
      py      :     1.500409
      dz2     :     0.024864  d :     0.284215
      dxz     :     0.033325
      dyz     :     0.073718
      dx2y2   :     0.086165
      dxy     :     0.066143

  6 H s       :     0.803303  s :     0.803303
      pz      :     0.015171  p :     0.043539
      px      :     0.020402
      py      :     0.007965

  7 H s       :     0.802596  s :     0.802596
      pz      :     0.021442  p :     0.043559
      px      :     0.009212
      py      :     0.012905

  8 H s       :     0.806514  s :     0.806514
      pz      :     0.009388  p :     0.043407
      px      :     0.008619
      py      :     0.025400

  9 H s       :     0.803360  s :     0.803360
      pz      :     0.020348  p :     0.042804
      px      :     0.008765
      py      :     0.013691

 10 H s       :     0.779886  s :     0.779886
      pz      :     0.010773  p :     0.046732
      px      :     0.023897
      py      :     0.012062

 11 H s       :     0.803817  s :     0.803817
      pz      :     0.019333  p :     0.043477
      px      :     0.010102
      py      :     0.014042

 12 H s       :     0.807944  s :     0.807944
      pz      :     0.017143  p :     0.043597
      px      :     0.018276
      py      :     0.008177

 13 H s       :     0.793468  s :     0.793468
      pz      :     0.012618  p :     0.043607
      px      :     0.008060
      py      :     0.022929

 14 H s       :     0.786716  s :     0.786716
      pz      :     0.017317  p :     0.043528
      px      :     0.008042
      py      :     0.018168

 15 H s       :     0.804571  s :     0.804571
      pz      :     0.015531  p :     0.040171
      px      :     0.017583
      py      :     0.007057

 16 H s       :     0.805200  s :     0.805200
      pz      :     0.020349  p :     0.040143
      px      :     0.007773
      py      :     0.012021

 17 H s       :     0.611298  s :     0.611298
      pz      :     0.038570  p :     0.123033
      px      :     0.061894
      py      :     0.022570


---------------------------------
LOEWDIN BOND ORDERS (THRESH 0.050000)
---------------------------------
B(  0-C ,  1-C ) :   1.1130 B(  0-C ,  2-C ) :   0.0723 B(  0-C ,  3-C ) :   0.0776 
B(  0-C ,  6-H ) :   0.9233 B(  0-C ,  7-H ) :   0.9227 B(  0-C ,  8-H ) :   0.9269 
B(  1-C ,  2-C ) :   1.1116 B(  1-C ,  3-C ) :   1.0676 B(  1-C ,  4-C ) :   0.0654 
B(  1-C ,  9-H ) :   0.8621 B(  2-C ,  3-C ) :   0.0652 B(  2-C , 10-H ) :   0.9021 
B(  2-C , 11-H ) :   0.9227 B(  2-C , 12-H ) :   0.9254 B(  3-C ,  4-C ) :   1.0475 
B(  3-C ,  5-O ) :   0.1648 B(  3-C , 13-H ) :   0.8753 B(  3-C , 14-H ) :   0.8775 
B(  4-C ,  5-O ) :   1.4211 B(  4-C , 15-H ) :   0.8356 B(  4-C , 16-H ) :   0.8353 
B(  5-O , 15-H ) :   0.1080 B(  5-O , 16-H ) :   0.1043 B(  5-O , 17-H ) :   0.9756 


------------------------------------------
LOEWDIN REDUCED ORBITAL POPULATIONS PER MO
-------------------------------------------
THRESHOLD FOR PRINTING IS 0.1%%
                      0         1         2         3         4         5   
                 -18.94767 -10.07486 -10.02783 -10.02229 -10.01059 -10.00053
                   2.00000   2.00000   2.00000   2.00000   2.00000   2.00000
                  --------  --------  --------  --------  --------  --------
 0 C  s               0.0       0.0       0.0       0.0      99.7       0.0
 1 C  s               0.0       0.0      99.6       0.0       0.0       0.0
 2 C  s               0.0       0.0       0.0       0.0       0.0      99.7
 3 C  s               0.0       0.0       0.0      99.7       0.0       0.0
 4 C  s               0.0      99.4       0.0       0.0       0.0       0.0
 5 O  s              99.9       0.0       0.0       0.0       0.0       0.0
 5 O  py              0.0       0.1       0.0       0.0       0.0       0.0
 5 O  dx2y2           0.0       0.2       0.0       0.0       0.0       0.0

                      6         7         8         9        10        11   
                  -0.98424  -0.77162  -0.69216  -0.64089  -0.58300  -0.52172
                   2.00000   2.00000   2.00000   2.00000   2.00000   2.00000
                  --------  --------  --------  --------  --------  --------
 0 C  s               0.0      10.6       8.9      20.4       4.8       2.1
 0 C  pz              0.0       0.4       0.2       0.3       0.0       3.6
 0 C  px              0.0       2.2       0.0       0.2       2.5       3.5
 0 C  py              0.0       0.6       0.1       0.8       0.0       0.1
 1 C  s               0.1      25.9       2.9       0.1       2.2      11.7
 1 C  pz              0.0       0.8       0.5       3.7       1.3       6.4
 1 C  px              0.2       0.0       7.6       1.4       5.4       0.5
 1 C  py              0.0       0.1       0.2      10.8       0.4       2.9
 1 C  dxz             0.0       0.0       0.1       0.1       0.1       0.0
 1 C  dx2y2           0.0       0.0       0.0       0.2       0.0       0.0
 1 C  dxy             0.0       0.0       0.0       0.1       0.0       0.0
 2 C  s               0.0       9.3       5.8      24.7       2.9       3.4
 2 C  pz              0.0       0.5       0.0       0.1       0.2       0.1
 2 C  px              0.1       0.1       0.2       0.1       0.6       0.6
 2 C  py              0.0       2.7       0.3       0.5       0.5       7.0
 2 C  dx2y2           0.0       0.1       0.0       0.0       0.0       0.1
 3 C  s               0.8      16.6      12.9       0.1       9.1       4.2
 3 C  pz              0.3       1.3       0.0       0.3       0.9      10.3
 3 C  px              0.9       1.2       5.9       0.0       5.9       0.9
 3 C  py              0.3       0.0       0.0       0.7       0.2       0.4
 3 C  dxz             0.0       0.0       0.1       0.0       0.2       0.1
 4 C  s               9.6       3.2      15.3       0.0      12.4       0.6
 4 C  pz              0.6       0.5       1.1       0.0       0.4       4.0
 4 C  px              0.2       2.7       1.5       0.0       3.4       0.6
 4 C  py              7.7       0.5       1.7       0.0       0.5       0.3
 4 C  dz2             0.1       0.0       0.0       0.0       0.0       0.0
 4 C  dyz             0.2       0.0       0.0       0.0       0.0       0.0
 4 C  dx2y2           0.4       0.1       0.1       0.0       0.0       0.0
 5 O  s              60.8       1.0       2.5       0.0       1.6       0.2
 5 O  pz              0.0       0.1       1.0       0.0       1.4       0.1
 5 O  px              0.8       0.4       1.6       0.1       1.9       0.0
 5 O  py              1.8       0.5       4.1       0.0       9.2       1.4
 5 O  dz2             0.1       0.1       0.1       0.0       0.1       0.1
 5 O  dxz             0.0       0.0       0.0       0.0       0.2       0.1
 5 O  dyz             0.1       0.1       0.3       0.0       0.1       0.1
 5 O  dx2y2           0.1       0.1       1.0       0.0       1.4       0.2
 5 O  dxy             0.0       0.1       0.1       0.0       0.1       0.0
 6 H  s               0.0       1.3       1.8       4.6       2.4       1.0
 6 H  pz              0.0       0.0       0.1       0.2       0.1       0.1
 6 H  px              0.0       0.1       0.1       0.2       0.1       0.0
 7 H  s               0.0       1.4       1.6       4.8       1.5       2.7
 7 H  pz              0.0       0.1       0.1       0.3       0.1       0.1
 7 H  py              0.0       0.0       0.0       0.1       0.0       0.1
 8 H  s               0.0       1.3       1.5       5.6       1.3       1.1
 8 H  py              0.0       0.1       0.1       0.4       0.1       0.1
 9 H  s               0.0       3.2       0.4       0.0       0.5      10.4
 9 H  pz              0.0       0.2       0.0       0.0       0.1       0.4
 9 H  py              0.0       0.1       0.0       0.0       0.0       0.2
10 H  s               0.0       1.1       0.8       6.1       0.7       1.5
10 H  px              0.0       0.1       0.1       0.4       0.0       0.1
11 H  s               0.0       1.2       1.1       5.4       1.0       3.4
11 H  pz              0.0       0.1       0.1       0.3       0.1       0.1
11 H  py              0.0       0.0       0.0       0.1       0.0       0.0
12 H  s               0.0       1.1       1.2       5.6       1.4       1.5
12 H  pz              0.0       0.0       0.1       0.2       0.1       0.1
12 H  px              0.0       0.0       0.1       0.3       0.0       0.0
13 H  s               0.0       2.3       2.7       0.2       3.2       2.8
13 H  py              0.0       0.2       0.2       0.0       0.2       0.2
14 H  s               0.0       2.1       2.3       0.0       3.1       5.2
14 H  pz              0.0       0.1       0.1       0.0       0.1       0.1
14 H  py              0.0       0.1       0.1       0.0       0.2       0.2
15 H  s               0.7       0.4       3.2       0.0       5.2       0.1
15 H  pz              0.0       0.0       0.1       0.0       0.2       0.0
15 H  px              0.0       0.0       0.2       0.0       0.2       0.0
16 H  s               0.7       0.5       2.9       0.0       4.9       2.0
16 H  pz              0.0       0.0       0.2       0.0       0.3       0.1
16 H  py              0.0       0.0       0.1       0.0       0.1       0.0
17 H  s              10.7       0.4       1.8       0.0       2.5       0.1
17 H  pz              0.4       0.0       0.0       0.0       0.0       0.0
17 H  px              1.8       0.1       0.3       0.0       0.3       0.0

                     12        13        14        15        16        17   
                  -0.48644  -0.42778  -0.41987  -0.39117  -0.37633  -0.35347
                   2.00000   2.00000   2.00000   2.00000   2.00000   2.00000
                  --------  --------  --------  --------  --------  --------
 0 C  s               0.0       0.4       0.0       0.1       0.2       0.0
 0 C  pz              0.0       0.8       8.3       2.1       4.7       3.9
 0 C  px              0.0       1.6       0.6      16.7       0.0       1.5
 0 C  py              0.0       8.3       4.1       5.6       7.8       5.6
 1 C  s               0.1       1.8       0.1       0.0       0.2       0.1
 1 C  pz              0.1       1.1      12.9       2.8       0.3       0.6
 1 C  px              0.1       6.0       0.6       0.0       6.1       0.2
 1 C  py              0.3       1.8       4.5       6.9       0.6       0.2
 1 C  dx2y2           0.0       0.0       0.0       0.0       0.1       0.0
 2 C  s               0.4       0.3       0.1       0.5       0.0       0.0
 2 C  pz              0.2       3.9      10.0       0.4       0.0       3.5
 2 C  px              0.7       2.0       0.8       0.7      22.8       0.4
 2 C  py              0.1       4.3       0.2       5.7       0.4       0.4
 2 C  dx2y2           0.0       0.1       0.0       0.0       0.0       0.0
 3 C  s               0.1       0.2       0.1       0.2       0.3       0.6
 3 C  pz              0.2       4.7       1.5       1.3       1.8       7.8
 3 C  px              0.6       0.5       6.8       5.0       0.1       3.3
 3 C  py              6.7       3.1       1.4       9.1       5.8       8.0
 3 C  dyz             0.0       0.0       0.0       0.0       0.0       0.1
 3 C  dx2y2           0.0       0.0       0.0       0.0       0.1       0.2
 4 C  s               1.2       0.1       0.1       0.1       0.1       0.1
 4 C  pz              0.1      10.7      14.1       0.2       7.2       6.4
 4 C  px              4.6      11.7       0.2       6.5       2.4       2.3
 4 C  py             19.1       1.1       0.7       2.5       0.3       1.6
 4 C  dz2             0.2       0.0       0.0       0.0       0.0       0.0
 4 C  dx2y2           0.3       0.0       0.0       0.2       0.2       0.0
 5 O  s               1.2       0.4       0.5       0.1       0.2       3.2
 5 O  pz              6.9       5.5       4.2       1.7       1.8       3.4
 5 O  px             27.3       3.9       0.2       0.1       1.9       5.7
 5 O  py              6.4       1.0       1.8       6.9       1.8      15.0
 5 O  dz2             0.1       0.1       0.2       0.0       0.0       0.0
 5 O  dxz             0.1       0.0       0.0       0.2       0.0       0.1
 5 O  dyz             0.0       0.6       0.5       0.0       0.5       0.2
 5 O  dx2y2           0.2       0.0       0.1       0.1       0.3       0.1
 5 O  dxy             0.1       0.4       0.0       0.7       0.1       0.0
 6 H  s               0.0       0.4       2.1       7.8       0.7       2.5
 6 H  pz              0.0       0.0       0.0       0.1       0.0       0.0
 7 H  s               0.0       0.0       3.5       0.6       0.3       3.3
 8 H  s               0.0       4.0       0.5       4.1       5.2       1.1
 8 H  py              0.0       0.1       0.0       0.1       0.1       0.0
 9 H  s               0.0       0.2       4.3       0.0       0.3       0.0
10 H  s               0.0       4.3       0.1       0.4       6.1       0.2
11 H  s               0.2       0.0       1.7       1.2       0.3       1.8
11 H  px              0.0       0.0       0.0       0.0       0.1       0.0
12 H  s               0.6       0.3       3.3       0.9       5.4       0.5
12 H  pz              0.0       0.0       0.0       0.0       0.2       0.0
13 H  s               2.0       0.5       1.6       3.8       4.6       0.3
13 H  pz              0.0       0.1       0.0       0.0       0.0       0.1
13 H  py              0.1       0.0       0.0       0.0       0.1       0.0
14 H  s               0.4       1.8       0.0       1.0       0.0      11.6
14 H  pz              0.0       0.0       0.0       0.1       0.0       0.1
14 H  py              0.0       0.0       0.0       0.0       0.0       0.2
15 H  s               4.5       7.4       0.8       0.4       5.2       0.8
15 H  pz              0.1       0.1       0.0       0.0       0.0       0.0
15 H  py              0.0       0.1       0.0       0.0       0.0       0.0
16 H  s               3.7       2.9       5.8       0.3       1.5       0.9
16 H  pz              0.2       0.0       0.1       0.0       0.0       0.0
16 H  py              0.0       0.0       0.1       0.0       0.1       0.1
17 H  s              10.1       0.0       0.1       0.8       0.3       0.5
17 H  px              0.3       0.0       0.0       0.0       0.0       0.0
17 H  py              0.0       0.0       0.0       0.1       0.0       0.3

                     18        19        20        21        22        23   
                  -0.34580  -0.32548  -0.31767  -0.28973  -0.28666  -0.27494
                   2.00000   2.00000   2.00000   2.00000   2.00000   2.00000
                  --------  --------  --------  --------  --------  --------
 0 C  s               0.0       0.0       0.2       0.1       0.2       0.8
 0 C  pz             18.9       4.2       1.6       0.8       6.4       0.6
 0 C  px              0.3       7.7       8.1       0.0       0.2       9.4
 0 C  py              7.4       4.7       0.1       9.0       0.1       2.2
 0 C  dz2             0.1       0.0       0.0       0.0       0.2       0.0
 0 C  dxz             0.1       0.1       0.0       0.0       0.2       0.1
 0 C  dyz             0.2       0.0       0.0       0.2       0.0       0.0
 0 C  dx2y2           0.0       0.2       0.0       0.4       0.1       0.0
 1 C  s               0.0       0.0       0.0       0.1       0.4       0.0
 1 C  pz              1.0       0.0       0.5       1.4      21.2       0.2
 1 C  px              0.4       0.2      10.9       0.9       0.4      10.0
 1 C  py              0.9       0.1       0.1      21.7       1.9       0.9
 1 C  dz2             0.2       0.0       0.0       0.1       0.1       0.1
 1 C  dxz             0.0       0.0       0.1       0.0       0.3       0.3
 1 C  dyz             0.1       0.0       0.1       0.3       0.4       0.0
 1 C  dx2y2           0.0       0.0       0.0       0.4       0.3       0.0
 1 C  dxy             0.1       0.0       0.1       0.1       0.1       0.2
 2 C  s               0.0       0.0       0.0       1.1       0.1       0.0
 2 C  pz             23.2       1.0       1.6       4.2       8.2       0.2
 2 C  px              0.4      16.1       5.5       0.3       0.0       4.8
 2 C  py              5.7       1.1       0.6      23.0       0.5       0.9
 2 C  dxz             0.1       0.3       0.0       0.0       0.2       0.1
 2 C  dyz             0.1       0.0       0.1       0.0       0.3       0.0
 2 C  dx2y2           0.0       0.0       0.0       0.2       0.1       0.0
 2 C  dxy             0.0       0.0       0.2       0.1       0.0       0.2
 3 C  s               0.0       0.0       0.8       0.0       0.8       0.1
 3 C  pz              0.6       1.1       9.7       0.4      11.8       0.2
 3 C  px              0.2       1.4       0.1       1.8       3.2      13.6
 3 C  py              0.8      13.1       0.8       5.7       0.1       0.0
 3 C  dxz             0.0       0.1       0.0       0.0       0.0       0.2
 3 C  dyz             0.0       0.2       0.0       0.4       0.1       0.0
 3 C  dx2y2           0.0       0.1       0.0       0.0       0.3       0.1
 4 C  s               0.0       0.3       0.4       0.1       0.1       0.7
 4 C  pz              0.0       0.1       1.0       0.0       0.4       1.5
 4 C  px              0.4       3.7       1.2       0.3       0.1       8.9
 4 C  py              0.3       0.6       4.4       0.1       0.1       1.6
 4 C  dz2             0.0       0.0       0.2       0.0       0.1       0.0
 4 C  dxz             0.0       0.0       0.0       0.0       0.0       0.3
 4 C  dyz             0.0       0.1       0.0       0.1       0.0       0.2
 4 C  dxy             0.0       0.0       0.4       0.0       0.0       0.2
 5 O  s               0.0       0.0       2.2       0.0       0.0       2.2
 5 O  pz              0.0       0.1       2.0       0.4       1.3       7.1
 5 O  px              0.1       0.2      15.7       0.0       0.3       4.8
 5 O  py              1.0       2.4      10.7       0.9       0.2       8.4
 5 O  dxz             0.1       0.4       0.1       0.0       0.0       0.3
 5 O  dyz             0.0       0.0       0.1       0.0       0.1       0.3
 5 O  dx2y2           0.0       0.1       0.2       0.0       0.0       0.4
 5 O  dxy             0.0       0.6       0.2       0.0       0.0       0.5
 6 H  s               2.3       7.4       0.9       0.5       2.3       1.9
 6 H  px              0.1       0.1       0.0       0.0       0.0       0.0
 7 H  s              13.4       0.0       1.2       1.1       4.7       0.0
 7 H  pz              0.1       0.0       0.0       0.0       0.0       0.0
 8 H  s               1.5       5.7       0.0       7.2       0.0       0.2
 8 H  pz              0.2       0.0       0.0       0.0       0.1       0.0
 8 H  px              0.0       0.0       0.1       0.0       0.0       0.1
 8 H  py              0.0       0.1       0.0       0.0       0.0       0.0
 9 H  s               0.1       0.0       1.0       3.1      15.9       0.5
 9 H  pz              0.0       0.0       0.0       0.1       0.0       0.0
10 H  s               0.8       6.1       3.4       2.3       0.5       4.0
10 H  pz              0.1       0.1       0.0       0.0       0.0       0.0
10 H  px              0.0       0.0       0.0       0.1       0.0       0.1
10 H  py              0.1       0.0       0.0       0.1       0.0       0.0
11 H  s              13.1       0.0       3.0       0.4       6.3       0.2
11 H  pz              0.1       0.0       0.0       0.1       0.0       0.0
11 H  px              0.1       0.1       0.0       0.0       0.0       0.0
11 H  py              0.1       0.0       0.0       0.2       0.0       0.0
12 H  s               4.0       7.5       0.4       1.0       3.5       1.7
12 H  pz              0.0       0.1       0.0       0.0       0.0       0.0
12 H  px              0.2       0.0       0.0       0.0       0.1       0.0
12 H  py              0.0       0.0       0.0       0.2       0.0       0.0
13 H  s               0.7       8.7       0.0       5.3       0.5       0.1
13 H  px              0.0       0.0       0.0       0.0       0.0       0.1
14 H  s               0.0       1.8       2.7       2.3       4.0       0.6
14 H  px              0.0       0.0       0.0       0.0       0.0       0.2
15 H  s               0.0       0.3       0.8       0.3       0.2       1.8
16 H  s               0.1       0.3       3.8       0.2       0.3       2.6
17 H  s               0.0       0.3       1.0       0.0       0.0       1.8
17 H  pz              0.0       0.0       0.1       0.0       0.0       0.0
17 H  py              0.0       0.0       0.2       0.0       0.0       0.2

                     24        25        26        27        28        29   
                  -0.23333   0.05972   0.09934   0.11383   0.12533   0.13206
                   2.00000   0.00000   0.00000   0.00000   0.00000   0.00000
                  --------  --------  --------  --------  --------  --------
 0 C  s               0.1       0.2      11.3       8.0       0.6       4.9
 0 C  pz              0.1       0.0       0.9       0.9       1.3       1.7
 0 C  px              0.6       0.4       2.5       0.9       0.2       5.0
 0 C  py              0.1       0.3       0.7       0.3       0.4       3.3
 0 C  dz2             0.0       0.0       0.0       0.1       0.4       0.0
 0 C  dxz             0.0       0.0       0.5       0.0       0.5       0.2
 0 C  dx2y2           0.0       0.0       0.1       0.0       0.0       0.0
 0 C  dxy             0.0       0.0       0.2       0.0       0.1       0.1
 1 C  s               0.1       0.5       8.6       0.3       0.7       1.1
 1 C  pz              0.1       0.4       1.8       0.9       6.6       4.5
 1 C  px              2.0       0.5       0.1       5.3       2.6       3.5
 1 C  py              0.1       0.0       2.1       0.4       2.6       4.8
 1 C  dz2             0.0       0.0       0.0       0.2       0.4       0.0
 1 C  dxz             0.0       0.0       0.1       0.5       0.8       0.3
 1 C  dyz             0.0       0.0       0.1       0.0       0.2       0.5
 1 C  dx2y2           0.0       0.1       0.0       0.0       0.0       0.6
 1 C  dxy             0.0       0.0       0.0       0.0       0.0       0.5
 2 C  s               0.1       1.3       6.3       1.8       1.5       1.1
 2 C  pz              0.0       0.1       0.7       0.2      10.1       1.3
 2 C  px              1.5       0.3       1.9       0.3       0.6       0.5
 2 C  py              0.0       0.1       2.2       0.3       0.1       2.4
 2 C  dz2             0.0       0.0       0.1       0.0       0.0       0.1
 2 C  dxz             0.0       0.0       0.0       0.1       0.1       0.0
 2 C  dyz             0.0       0.0       0.0       0.1       0.1       0.2
 2 C  dx2y2           0.0       0.1       0.4       0.0       0.0       0.1
 2 C  dxy             0.0       0.0       0.1       0.1       0.1       0.5
 3 C  s               0.1       0.7       8.2       1.5       0.9       3.4
 3 C  pz              0.6       0.3       3.4       0.2       6.9      12.7
 3 C  px              0.6       0.3       2.0      10.5       0.5       0.3
 3 C  py              0.0       0.1       1.3       2.4       0.2       0.1
 3 C  dz2             0.0       0.0       0.0       0.0       0.0       0.8
 3 C  dxz             0.1       0.0       0.3       0.7       0.1       0.0
 3 C  dyz             0.0       0.4       0.0       0.1       0.4       0.1
 3 C  dx2y2           0.1       0.3       0.1       0.2       1.1       0.0
 3 C  dxy             0.0       0.2       0.0       0.1       0.1       0.0
 4 C  s               0.0       5.7       1.1      15.6       0.3       0.0
 4 C  pz              4.9       3.0       0.6       0.7       5.9      11.4
 4 C  px              1.7       9.9       2.7       2.6       7.4       1.4
 4 C  py              0.1      13.6       4.3      14.9       4.7       4.3
 4 C  dz2             0.0       0.1       0.1       0.0       1.1       0.1
 4 C  dxz             0.2       0.1       0.4       0.0       0.1       0.6
 4 C  dyz             1.2       0.4       0.0       0.0       0.3       0.0
 4 C  dx2y2           0.2       0.9       0.2       0.5       0.0       0.3
 4 C  dxy             0.3       0.4       0.0       0.0       0.0       0.0
 5 O  s               0.0       9.3       0.4       1.3       0.2       0.0
 5 O  pz             52.9       0.9       0.1       0.0       0.7       0.2
 5 O  px             11.3       4.7       1.7       0.0       1.1       1.2
 5 O  py              1.4       1.6       1.0       2.4       0.7       0.7
 5 O  dz2             0.2       0.1       0.1       1.1       2.6       0.1
 5 O  dxz             0.0       0.9       0.2       0.1       2.5       2.1
 5 O  dyz             0.7       0.1       0.0       0.7       0.1       0.4
 5 O  dx2y2           0.0       2.8       0.8       2.4       2.2       0.6
 5 O  dxy             0.2       0.1       0.1       0.0       0.8       0.8
 6 H  s               0.1       0.1       2.6       1.5       0.8       0.3
 6 H  pz              0.0       0.0       1.1       0.6       0.0       0.0
 6 H  px              0.0       0.0       0.3       0.2       0.2       0.3
 6 H  py              0.0       0.0       0.1       0.0       0.0       0.0
 7 H  s               0.0       0.0       2.1       1.4       2.6       0.3
 7 H  pz              0.0       0.0       0.5       0.8       0.5       0.0
 7 H  px              0.0       0.0       0.1       0.0       0.2       0.2
 7 H  py              0.0       0.0       0.8       0.1       0.1       0.0
 8 H  s               0.0       0.3       2.3       0.2       0.1       0.3
 8 H  px              0.0       0.1       0.7       0.0       0.0       0.0
 8 H  py              0.0       0.0       0.9       0.2       0.0       0.4
 9 H  s               0.0       0.1       1.6       0.1       5.0       2.6
 9 H  pz              0.0       0.0       0.7       0.0       1.2       0.3
 9 H  px              0.0       0.0       0.1       0.5       0.7       0.1
 9 H  py              0.0       0.0       0.5       0.0       0.0       1.7
10 H  s               0.5       0.4       0.4       0.4       0.5       0.7
10 H  pz              0.0       0.0       0.0       0.0       0.3       0.0
10 H  px              0.0       0.3       0.2       0.1       0.1       0.0
11 H  s               0.1       0.1       1.4       0.8       0.1       1.2
11 H  pz              0.0       0.0       0.7       0.3       0.0       0.1
11 H  px              0.0       0.0       0.0       0.0       0.1       0.1
11 H  py              0.0       0.0       0.0       0.1       0.0       0.6
12 H  s               0.5       0.1       2.0       0.3       0.3       0.0
12 H  pz              0.0       0.0       0.3       0.0       0.0       0.0
12 H  px              0.0       0.1       0.4       0.0       0.1       0.0
12 H  py              0.0       0.0       0.2       0.1       0.1       0.1
13 H  s               0.2       2.7       1.9       0.2       0.2       1.2
13 H  pz              0.0       0.1       0.0       0.0       0.5       0.7
13 H  px              0.0       0.0       0.0       0.7       0.0       0.0
13 H  py              0.0       0.2       1.4       0.4       0.3       0.3
14 H  s               0.3       0.4       2.3       0.7       4.5       0.2
14 H  pz              0.0       0.0       0.2       0.0       0.0       0.7
14 H  px              0.0       0.1       0.3       0.2       0.1       0.0
14 H  py              0.0       0.0       0.8       0.2       1.0       0.1
15 H  s               8.3       1.5       1.0       2.3       0.1       3.6
15 H  pz              0.0       0.1       0.2       0.9       0.4       0.6
15 H  px              0.0       0.8       0.0       0.4       0.4       0.3
15 H  py              0.0       0.2       0.2       0.5       0.3       0.0
16 H  s               6.9       0.9       0.3       3.8       5.0       0.9
16 H  pz              0.0       0.8       0.0       0.9       1.7       0.1
16 H  px              0.0       0.0       0.3       0.0       0.3       0.3
16 H  py              0.0       0.1       0.3       1.3       0.0       0.7
17 H  s               0.0      23.0       0.7       0.3       1.0       1.6
17 H  pz              1.0       0.9       0.1       0.0       0.0       0.1
17 H  px              0.2       4.7       0.2       0.0       0.2       0.3
17 H  py              0.0       0.2       0.0       0.2       0.0       0.0

                     30        31        32        33        34        35   
                   0.14552   0.14880   0.15379   0.16340   0.17486   0.18088
                   0.00000   0.00000   0.00000   0.00000   0.00000   0.00000
                  --------  --------  --------  --------  --------  --------
 0 C  s               9.2       2.1       0.1       0.1       2.5       0.2
 0 C  pz              6.3       1.7       0.3       1.1       0.7      15.2
 0 C  px             12.0       3.7       8.2       2.7       4.1       5.9
 0 C  py              4.9       5.4       9.5       7.5       1.5       0.0
 0 C  dz2             0.1       0.0       0.4       0.2       0.0       0.0
 0 C  dxz             0.1       0.3       0.4       0.0       0.0       0.0
 0 C  dyz             0.0       0.4       0.1       0.2       0.1       0.2
 0 C  dx2y2           0.5       0.2       0.0       1.4       0.1       0.0
 0 C  dxy             0.2       0.3       0.0       0.7       0.0       0.1
 1 C  s               5.8       7.2       1.3       1.5       0.8       0.3
 1 C  pz              2.4       0.4       1.0       1.2       1.7       0.3
 1 C  px              0.7       2.6       1.4       0.7       0.5       2.9
 1 C  py              2.2       4.3       2.5       1.9       0.5       0.8
 1 C  dz2             0.0       0.1       0.3       0.5       0.0       0.2
 1 C  dxz             0.0       0.0       0.0       0.0       0.2       0.4
 1 C  dyz             0.0       0.7       0.5       0.0       0.2       0.0
 1 C  dx2y2           0.3       0.6       0.0       0.2       0.2       0.6
 1 C  dxy             0.3       0.1       0.3       0.2       0.1       0.3
 2 C  s               8.4      10.4       7.0       0.8       0.5       0.0
 2 C  pz              2.0       2.3       0.2       3.9       1.0       5.0
 2 C  px              0.8       1.8       1.2       2.8       2.8      14.5
 2 C  py              0.6      23.6       7.8       0.7       4.0       0.3
 2 C  dz2             0.1       0.3       0.0       0.3       0.0       0.0
 2 C  dxz             0.0       0.0       0.3       0.3       1.2       1.4
 2 C  dyz             0.3       0.6       0.0       0.1       0.2       0.1
 2 C  dx2y2           0.0       0.8       0.1       0.3       0.0       0.5
 2 C  dxy             0.0       0.0       0.0       0.4       0.0       0.0
 3 C  s               3.7       0.8       0.1       0.6      10.9       0.2
 3 C  pz              7.6       0.2       0.5       5.8       1.0       0.9
 3 C  px              1.0       0.4       3.3       1.1       0.3       5.5
 3 C  py              1.4       4.6      11.4       5.3       0.2       1.3
 3 C  dz2             0.0       0.0       0.0       0.0       0.1       0.0
 3 C  dxz             0.1       0.1       0.5       0.0       0.1       1.0
 3 C  dyz             0.1       0.4       1.3       0.0       0.1       0.2
 3 C  dx2y2           0.5       0.0       0.0       1.2       0.0       0.1
 3 C  dxy             0.2       0.2       0.0       0.1       0.1       0.0
 4 C  s               0.2       0.4       1.4       0.3       3.2       0.2
 4 C  pz              3.3       0.2       0.9       0.7       1.6       5.0
 4 C  px              1.6       1.1       1.3       4.2      13.3       2.2
 4 C  py              1.5       2.9       0.6       6.1       0.9       2.7
 4 C  dz2             0.4       0.1       0.0       0.0       0.0       0.2
 4 C  dxz             0.1       0.1       0.1       0.0       0.0       0.5
 4 C  dyz             0.1       0.0       0.0       0.1       0.0       0.0
 4 C  dx2y2           0.1       0.0       0.1       0.9       0.5       0.2
 4 C  dxy             0.0       0.0       0.4       0.0       0.0       0.0
 5 O  s               0.1       0.3       0.1       0.3       0.9       0.0
 5 O  pz              0.1       0.1       0.1       0.5       0.0       1.0
 5 O  px              0.2       0.3       0.0       1.8       0.3       0.1
 5 O  py              0.0       0.1       1.1       1.9       1.3       0.7
 5 O  dz2             0.4       0.4       2.4       0.0       0.1       0.7
 5 O  dxz             0.1       0.1       0.2       0.9       3.8       0.1
 5 O  dyz             0.0       0.0       0.2       0.1       0.3       0.3
 5 O  dx2y2           0.2       0.0       0.0       0.8       0.1       0.0
 5 O  dxy             0.7       0.3       1.6       0.5       0.3       0.3
 6 H  s               1.5       0.8       1.0       2.7       0.5       1.9
 6 H  pz              0.0       0.0       0.2       0.2       0.2       0.5
[...]
 2 C  dx2y2           1.7       0.1       0.1       0.0       0.0       0.0
 2 C  dxy             0.5       1.2       0.6       0.0       0.0       0.0
 3 C  s               1.5       0.5       0.4       0.0       0.0       5.7
 3 C  pz              3.1       1.2       0.1       0.1       0.0       0.0
 3 C  px              4.2       0.4       0.1       0.0       0.1       0.0
 3 C  py              0.0       0.3       7.2       0.2       0.0       0.0
 3 C  dz2             0.6       0.0       0.6       0.0       0.0       0.0
 3 C  dxz             2.2       0.4       0.4       0.0       0.0       0.0
 3 C  dyz             0.4       0.0      13.8       0.0       0.0       0.0
 3 C  dx2y2           5.6       1.6       0.1       0.2       0.0       0.0
 3 C  dxy             0.5       0.2       0.0       0.0       0.0       0.0
 4 C  s               1.4       0.0       0.1       1.8       0.2      16.2
 4 C  pz              0.4       1.5       3.7       0.5       0.1       0.0
 4 C  px              6.3       0.7       0.8       0.0       0.0       0.0
 4 C  py              0.0       0.1       0.1       8.9       0.9       0.0
 4 C  dz2             0.4       0.3       0.6       2.8       0.1       0.0
 4 C  dxz             4.7       1.0       2.2       0.6       0.0       0.0
 4 C  dyz             0.2       2.1       5.6       2.6       0.2       0.0
 4 C  dx2y2           1.4       0.1       0.9       6.6       1.3       0.0
 4 C  dxy             0.9       0.0       0.3       1.0       0.0       0.0
 5 O  s               0.1       0.2       0.0      24.1       6.4       0.0
 5 O  pz              0.0       0.0       0.1       0.7       3.4       0.0
 5 O  px              0.4       0.5       0.0       0.1      14.4       0.0
 5 O  py              0.1       0.0       0.0      18.8       2.6       0.0
 5 O  dz2             0.0       0.2       0.4       8.1       0.9       0.0
 5 O  dxz             0.0       0.1       0.3       3.2      13.1       0.0
 5 O  dyz             0.1       0.1       0.0       5.4       0.0       0.0
 5 O  dx2y2           0.0       0.1       0.0       6.3      25.4       0.0
 5 O  dxy             0.0       0.1       0.2       1.6       0.5       0.0
 6 H  s               0.3       0.1       0.0       0.0       0.0       0.0
 6 H  pz              0.6       0.0       0.0       0.0       0.0       0.0
 6 H  px              0.3       0.2       0.0       0.0       0.0       0.0
 7 H  s               0.1       1.2       0.0       0.0       0.0       0.0
 7 H  pz              0.1       2.2       0.0       0.0       0.0       0.0
 7 H  px              0.4       0.3       0.0       0.0       0.0       0.0
 7 H  py              0.0       1.1       0.0       0.0       0.0       0.0
 8 H  s               0.5       0.0       0.0       0.0       0.0       0.0
 8 H  pz              0.1       0.0       0.0       0.0       0.0       0.0
 8 H  px              0.3       0.2       0.0       0.0       0.0       0.0
 8 H  py              1.3       0.0       0.0       0.0       0.0       0.0
 9 H  s               0.5       6.6       0.3       0.0       0.0       0.0
 9 H  pz              1.6      10.0       0.5       0.0       0.0       0.0
 9 H  px              0.2       0.9       0.1       0.0       0.0       0.0
 9 H  py              0.1       6.3       0.2       0.0       0.0       0.0
10 H  s               0.3       1.0       1.5       0.0       0.0       0.0
10 H  pz              0.2       0.4       1.3       0.0       0.0       0.0
10 H  px              1.0       1.4       1.8       0.0       0.0       0.0
10 H  py              0.0       0.5       0.8       0.0       0.0       0.0
11 H  s               1.2       0.9       0.2       0.0       0.0       0.0
11 H  pz              2.8       1.1       0.3       0.0       0.0       0.0
11 H  px              0.4       0.1       0.1       0.0       0.0       0.0
11 H  py              0.7       1.3       0.1       0.0       0.0       0.0
12 H  s               0.0       0.1       0.5       0.0       0.0       0.0
12 H  pz              0.0       0.1       0.7       0.0       0.0       0.0
12 H  px              0.0       0.1       0.3       0.0       0.0       0.0
12 H  py              0.3       0.0       0.0       0.0       0.0       0.0
13 H  s               0.3       0.5       4.2       0.0       0.0       0.0
13 H  pz              0.0       0.1       1.9       0.0       0.0       0.0
13 H  px              0.4       0.1       0.0       0.0       0.0       0.0
13 H  py              1.4       1.4       6.9       0.0       0.0       0.0
14 H  s               1.4       0.1       4.5       0.1       0.0       0.0
14 H  pz              1.4       0.1       7.9       0.1       0.0       0.0
14 H  py              2.6       0.4       2.9       0.0       0.0       0.0
15 H  s               1.1       1.1       2.5       0.6       0.0       0.0
15 H  pz              2.4       0.7       1.6       0.4       0.0       0.0
15 H  px              0.5       1.1       3.4       0.8       0.0       0.0
15 H  py              0.4       0.3       0.2       0.1       0.0       0.0
16 H  s               0.2       1.2       2.7       0.4       0.0       0.0
16 H  pz              0.5       1.4       3.4       1.1       0.0       0.0
16 H  px              0.6       0.2       0.2       0.0       0.0       0.0
16 H  py              0.3       1.3       2.6       0.0       0.0       0.0
17 H  s               0.1       0.0       0.0       0.6      14.2       0.0
17 H  pz              0.0       0.1       0.1       0.2       2.7       0.0
17 H  px              0.0       0.0       0.0       0.9      13.0       0.0
17 H  py              0.0       0.0       0.1       0.2       0.2       0.0

                    174       175       176       177       178   
                  21.98048  22.03012  22.06065  22.11445  43.60757
                   0.00000   0.00000   0.00000   0.00000   0.00000
                  --------  --------  --------  --------  --------
 0 C  s              41.5      19.0       0.5       1.2       0.0
 1 C  s               5.4       9.0       9.7      70.7       0.0
 2 C  s               2.5      39.6      18.5       3.5       0.0
 3 C  s               1.7      18.7      70.3       3.3       0.0
 4 C  s              48.6      13.2       0.7      21.0       0.1
 5 O  s               0.0       0.0       0.0       0.0      99.9


                      *****************************
                      * MAYER POPULATION ANALYSIS *
                      *****************************

  NA   - Mulliken gross atomic population
  ZA   - Total nuclear charge
  QA   - Mulliken gross atomic charge
  VA   - Mayer's total valence
  BVA  - Mayer's bonded valence
  FA   - Mayer's free valence

  ATOM       NA         ZA         QA         VA         BVA        FA
  0 C      6.4748     6.0000    -0.4748     3.7504     3.7504     0.0000
  1 C      6.0359     6.0000    -0.0359     3.5176     3.5176    -0.0000
  2 C      6.5160     6.0000    -0.5160     3.7922     3.7922    -0.0000
  3 C      6.2391     6.0000    -0.2391     3.6060     3.6060    -0.0000
  4 C      6.1644     6.0000    -0.1644     3.8872     3.8872     0.0000
  5 O      8.4268     8.0000    -0.4268     1.8121     1.8121    -0.0000
  6 H      0.8536     1.0000     0.1464     0.9647     0.9647     0.0000
  7 H      0.8543     1.0000     0.1457     0.9665     0.9665     0.0000
  8 H      0.8575     1.0000     0.1425     0.9656     0.9656     0.0000
  9 H      0.8632     1.0000     0.1368     0.9632     0.9632     0.0000
 10 H      0.8182     1.0000     0.1818     0.9563     0.9563    -0.0000
 11 H      0.8568     1.0000     0.1432     0.9677     0.9677     0.0000
 12 H      0.8604     1.0000     0.1396     0.9647     0.9647    -0.0000
 13 H      0.8607     1.0000     0.1393     0.9656     0.9656    -0.0000
 14 H      0.8498     1.0000     0.1502     0.9712     0.9712     0.0000
 15 H      0.8793     1.0000     0.1207     0.9517     0.9517    -0.0000
 16 H      0.8801     1.0000     0.1199     0.9554     0.9554     0.0000
 17 H      0.7090     1.0000     0.2910     0.9152     0.9152    -0.0000

  Mayer bond orders larger than 0.100000
B(  0-C ,  1-C ) :   0.9032 B(  0-C ,  6-H ) :   0.9783 B(  0-C ,  7-H ) :   0.9830 
B(  0-C ,  8-H ) :   0.9793 B(  1-C ,  2-C ) :   0.9149 B(  1-C ,  3-C ) :   0.9010 
B(  1-C ,  9-H ) :   0.9653 B(  2-C , 10-H ) :   0.9631 B(  2-C , 11-H ) :   0.9852 
B(  2-C , 12-H ) :   0.9759 B(  3-C ,  4-C ) :   0.9693 B(  3-C , 13-H ) :   0.9660 
B(  3-C , 14-H ) :   0.9603 B(  4-C ,  5-O ) :   0.9418 B(  4-C , 15-H ) :   0.9639 
B(  4-C , 16-H ) :   0.9805 B(  5-O , 17-H ) :   0.9020 

-------
TIMINGS
-------

Total SCF time: 0 days 0 hours 0 min 21 sec 

Total time                  ....      21.625 sec
Sum of individual times     ....      21.034 sec  ( 97.3%)

SCF preparation             ....       0.190 sec  (  0.9%)
Fock matrix formation       ....      19.447 sec  ( 89.9%)
  Startup                   ....       0.072 sec  (  0.4% of F)
  Split-RI-J                ....       3.298 sec  ( 17.0% of F)
  XC integration            ....      15.417 sec  ( 79.3% of F)
    XC Preparation          ....       0.000 sec  (  0.0% of XC)
    Basis function eval.    ....       2.900 sec  ( 18.8% of XC)
    Density eval.           ....       4.370 sec  ( 28.3% of XC)
    XC-Functional eval.     ....       2.160 sec  ( 14.0% of XC)
    XC-Potential eval.      ....       4.885 sec  ( 31.7% of XC)
Diagonalization             ....       0.000 sec  (  0.0%)
Density matrix formation    ....       0.297 sec  (  1.4%)
Total Energy calculation    ....       0.042 sec  (  0.2%)
Population analysis         ....       0.116 sec  (  0.5%)
Orbital Transformation      ....       0.056 sec  (  0.3%)
Orbital Orthonormalization  ....       0.000 sec  (  0.0%)
DIIS solution               ....       0.830 sec  (  3.8%)
  MO trafo                  ....       0.000 sec  (  0.0 % of DIIS)
  Orb grad                  ....       0.000 sec  (  0.0 % of DIIS)
  Energy W gradient         ....       0.000 sec  (  0.0 % of DIIS)
  DIIS error                ....       0.009 sec  (  1.1 % of DIIS)
  DIIS work                 ....       0.767 sec  ( 92.4 % of DIIS)
  Form Q                    ....       0.000 sec  (  0.0 % of DIIS)
  Form QpQm                 ....       0.000 sec  (  0.0 % of DIIS)
  Exp/Cayley                ....       0.000 sec  (  0.0 % of DIIS)
  Orb update                ....       0.000 sec  (  0.0 % of DIIS)
  Wake-sleep                ....       0.026 sec  (  3.1 % of DIIS)
SOSCF solution              ....       0.055 sec  (  0.3%)
  MO trafo                  ....       0.041 sec  ( 74.2 % of SOSCF)
  Orb grad                  ....       0.003 sec  (  6.3 % of SOSCF)
  Rot update                ....       0.000 sec  (  0.2 % of SOSCF)
  Step                      ....       0.010 sec  ( 19.1 % of SOSCF)
Finished LeanSCF after  21.7 sec

Maximum memory used throughout the entire LEANSCF-calculation: 19.4 MB


-------------------------------------------------------------------------------
                          DFT DISPERSION CORRECTION                            
                                                                               
                                DFTD4 V3.4.0                                   
-------------------------------------------------------------------------------
The R2SCAN3C composite method is recognized
Using three-body term ABC
Active option DFTDOPT                   ...         5   

-------------------------   ----------------
Dispersion correction           -0.004340954
-------------------------   ----------------

------------------   -----------------
gCP correction             0.009922812
------------------   -----------------

-------------------------   --------------------
FINAL SINGLE POINT ENERGY      -272.896429094463
-------------------------   --------------------


------------------------------------------------------------------------------
                              ORCA PROPERTY CALCULATIONS
------------------------------------------------------------------------------

GBWName                                 ... sp_gas.gbw
Number of atoms                         ...     18
Number of basis functions               ...    179
Max core memory                         ...   1024 MB

Electric properties:
Dipole moment                           ... YES
Quadrupole moment                       ...  NO
Static polarizability (Dipole/Dipole)   ...  NO
Static polarizability (Dipole/Quad.)    ...  NO
Static polarizability (Quad./Quad.)     ...  NO
Static polarizability (Velocity)        ...  NO

Atomic electric properties:
Dipole moment                           ...  NO
Quadrupole moment                       ...  NO
Static polarizability                   ...  NO

Choice of electric origin               ... Center of mass
Position of electric origin             ...     0.000025    -0.000014    -0.000003

General magnetic properties:
Magnetizability                         ...  NO

EPR properties:
g-Tensor (aka g-matrix)                 ...  NO
Zero-Field splitting spin-orbit         ...  NO
Zero-field splitting spin-spin          ...  NO
Hyperfine couplings                     ...  NO (   0 nuclei)
Quadrupole couplings                    ...  NO (   0 nuclei)
Contact density                         ...  NO (   0 nuclei)

NMR properties:
Chemical shifts                         ...  NO (   0 nuclei)
Spin-rotation constants                 ...  NO (   0 nuclei)
Spin-spin couplings                     ...  NO (   0 nuclei,    0 pairs)

Choice of magnetic origin               ... GIAO
Position of magnetic origin             ...     0.000000     0.000000     0.000000

Properties with geometric perturbations:
SCF Hessian                             ...  NO
IR spectrum                             ...  NO
VCD spectrum                            ...  NO
X-ray spectroscopy properties:
SCF XES/XAS/RIXS spectra                ...  NO


-------------
DIPOLE MOMENT
-------------

Method             : SCF
Type of density    : Electron Density
Multiplicity       :   1
Irrep              :   0
Energy             :  -272.9020109525243925 Eh
Relativity type    : 
Basis              : AO
                                X                 Y                 Z
Electronic contribution:     -4.285365386       1.594277149       0.482650076
Nuclear contribution   :      3.810824082      -1.979275275      -0.384844498
                        -----------------------------------------
Total Dipole Moment    :     -0.474541304      -0.384998126       0.097805579
                        -----------------------------------------
Magnitude (a.u.)       :      0.618852921
Magnitude (Debye)      :      1.572999116



--------------------
Rotational spectrum 
--------------------
 
Rotational constants in cm-1:             0.206565             0.070534             0.057200 
Rotational constants in MHz :          6192.672897          2114.545805          1714.806006 

Dipole components along the rotational axes: 
x,y,z [a.u.] :    -0.346108    -0.394418     0.328059 
x,y,z [Debye]:    -0.879736    -1.002531     0.833861 

 

Dipole moment calculation done in   0.0 sec 

Maximum memory used throughout the entire PROP-calculation: 10.6 MB

--------------------------------
SUGGESTED CITATIONS FOR THIS RUN
--------------------------------

Below you find a list of papers that are relevant to this ORCA run
We neither can nor want to force you to cite these papers, but we appreciate if you do
You receive ORCA, which is the product of decades of hard work by many enthusiastic individuals, for free
The only thing we kindly ask in return is that you cite our papers,
We deeply appreciate it, if you show your appreciation for ORCA by not just citing the generic ORCA reference.

Please note that relegating all ORCA citations to the supporting information does *not* help us.
SI sections are not indexed - citations you put there will not count into any citation statistics
But we need these citations in order to attract the funding resources that allow us to do what we are doing

Therefore, if you are a happy ORCA user, please consider citing a few of the papers listed below in the main body of your paper

In addition to the list printed below, the program has created the file sp_gas.bibtex that contains the list in bibtex format
You can import this file easily into all common literature databanks and citation aid programs


List of essential papers. We consider these as the minimum necessary citations

  1. Neese,F.
     Software update: the ORCA program system, version 5.0
     WIRES Comput. Molec. Sci., 2022 12(1)e1606
     doi.org/10.1002/wcms.1606
  2. Grimme,S.; Hansen,A.; Ehlert,S.; Mewes,J.
     r2SCAN-3c: A 'Swiss army knife' composite electronic-structure method
     J. Chem. Phys., 2021 154 064103
     doi.org/10.1063/5.0040021

List of papers to cite with high priority. The work reported in these papers was absolutely
necessary for this run to complete.
Our perspective: the developers of density functionals and basis sets usually get cited in chemistry papers
Good! But without the algorithms to do something with them, the functionals or basis sets would not do anything.
Hence, in our opinion, the algorithm design and method developments papers are equally worthy of getting cited

  1. Neese,F.
     An improvement of the resolution of the identity approximation for the formation of the Coulomb matrix
     J. Comp. Chem., 2003 24(14)1740-1747
     doi.org/10.1002/jcc.10318
  2. Neese,F.
     The SHARK Integral Generation and Digestion System
     J. Comp. Chem., 2022  1-16
     doi.org/10.1002/jcc.26942
  3. Lehtola,S.; Steigemann,C.; Oliveira,M.; Marques,M.
     Recent developments in Libxc - A comprehensive library of functionals for density functional theory
     Software X, 2018 7 
     doi.org/10.1016/j.softx.2017.11.002
  4. Caldeweyher,E.; Bannwarth,C.; Grimme,S.
     Extension of the D3 dispersion coefficient model
     J. Chem. Phys., 2017 147 034112-XXXX
     doi.org/10.1063/1.4993215
  5. Caldeweyher,E.; Ehlert,S.; Hansen,A.; Neugebauer,H.; Spicher,S.; Bannwarth,C.; Grimme,S.
     A generally applicable atomic-charge dependent London dispersion correction
     J. Chem. Phys., 2019 150 154122-XXXX
     doi.org/10.1063/1.5090222
  6. Caldeweyher,E.; Mewes,J.; Ehlert,S.; Grimme,S.
     Extension and evaluation of the D4 London-dispersion model for periodic systems
     Phys. Chem. Chem. Phys., 2020 22(16)8499-8512
     doi.org/10.1039/D0CP00502A

List of suggested additional citations. These are papers that are important in the 'surrounding' of 
of this run, or papers that preceded the highly important papers. If you like your results we are grateful for a citation.

  1. Neese,F.
     The ORCA program system
     WIRES Comput. Molec. Sci., 2012 2(1)73-78
     doi.org/10.1002/wcms.81
  2. Neese,F.
     Software update: the ORCA program system, version 4.0
     WIRES Comput. Molec. Sci., 2018 8(1)1-6
     doi.org/10.1002/wcms.1327
  3. Neese,F.; Wennmohs,F.; Becker,U.; Riplinger,C.
     The ORCA quantum chemistry program package
     J. Chem. Phys., 2020 152 Art. No. L224108
     doi.org/10.1063/5.0004608

List of optional additional citations

  1. Neese,F.
     Approximate second-order SCF convergence for spin unrestricted wavefunctions
     Chem. Phys. Lett., 2000 325(1-3)93-98
     doi.org/10.1016/s0009-2614(00)00662-x

Timings for individual modules:

Sum of individual times          ...       23.293 sec (=   0.388 min)
Startup calculation              ...        1.070 sec (=   0.018 min)   4.6 %
SCF iterations                   ...       22.098 sec (=   0.368 min)  94.9 %
Property calculations            ...        0.124 sec (=   0.002 min)   0.5 %
                             ****ORCA TERMINATED NORMALLY****
TOTAL RUN TIME: 0 days 0 hours 0 minutes 24 seconds 188 msec
