
                                 *****************
                                 * O   R   C   A *
                                 *****************

                                            #,                                       
                                            ###                                      
                                            ####                                     
                                            #####                                    
                                            ######                                   
                                           ########,                                 
                                     ,,################,,,,,                         
                               ,,#################################,,                 
                          ,,##########################################,,             
                       ,#########################################, ''#####,          
                    ,#############################################,,   '####,        
                  ,##################################################,,,,####,       
                ,###########''''           ''''###############################       
              ,#####''   ,,,,##########,,,,          '''####'''          '####       
            ,##' ,,,,###########################,,,                        '##       
           ' ,,###''''                  '''############,,,                           
         ,,##''                                '''############,,,,        ,,,,,,###''
      ,#''                                            '''#######################'''  
     '                                                          ''''####''''         
             ,#######,   #######,   ,#######,      ##                                
            ,#'     '#,  ##    ##  ,#'     '#,    #''#        ,####,   ,####,        
            ##       ##  ##   ,#'  ##            #'  '#       #'       #'  '#        
            ##       ##  #######   ##           ,######,      #####,   #    #        
            '#,     ,#'  ##    ##  '#,     ,#' ,#      #,     #,   #   #,  ,#        
             '#######'   ##     ##  '#######'  #'      '#     '####' # '####'        



                #########################################################
                #                        -***-                          #
                #          Department of theory and spectroscopy        #
                #                                                       #
                #                      Frank Neese                      #
                #                                                       #
                #     Directorship, Architecture, Infrastructure        #
                #                    SHARK, DRIVERS                     #
                #        Core code/Algorithms in most modules           #
                #                                                       #
                #        Max Planck Institute fuer Kohlenforschung      #
                #                Kaiser Wilhelm Platz 1                 #
                #                 D-45470 Muelheim/Ruhr                 #
                #                      Germany                          #
                #                                                       #
                #                  All rights reserved                  #
                #                        -***-                          #
                #########################################################


                         Program Version 6.0.0  -   RELEASE  -


 With contributions from (in alphabetic order):
   Daniel Aravena         : Magnetic Suceptibility
   Michael Atanasov       : Ab Initio Ligand Field Theory (pilot matlab implementation)
   Alexander A. Auer      : GIAO ZORA, VPT2 properties, NMR spectrum
   Ute Becker             : All parallelization in ORCA, NUMFREQ, NUMCALC
   Giovanni Bistoni       : ED, misc. LED, open-shell LED, HFLD
   Martin Brehm           : Molecular dynamics
   Dmytro Bykov           : pre 5.0 version of the SCF Hessian
   Marcos Casanova-Páez   : Triplet and SCS-CIS(D). UHF-(DLPNO)-IP/EA/STEOM-CCSD. UHF-CVS-IP/STEOM-CCSD
   Vijay G. Chilkuri      : MRCI spin determinant printing, contributions to CSF-ICE
   Pauline Colinet        : FMM embedding
   Dipayan Datta          : RHF DLPNO-CCSD density
   Achintya Kumar Dutta   : EOM-CC, STEOM-CC
   Nicolas Foglia         : Exact transition moments, OPA infrastructure, MCD improvements
   Dmitry Ganyushin       : Spin-Orbit,Spin-Spin,Magnetic field MRCI
   Miquel Garcia          : C-PCM and meta-GGA Hessian, CCSD/C-PCM, Gaussian charge scheme
   Tiago L. C. Gouveia    : GS-ROHF, GS-ROCIS
   Yang Guo               : DLPNO-NEVPT2, F12-NEVPT2, CIM, IAO-localization
   Andreas Hansen         : Spin unrestricted coupled pair/coupled cluster methods
   Ingolf Harden          : AUTO-CI MPn and infrastructure 
   Benjamin Helmich-Paris : MC-RPA, TRAH-(SCF,CASSCF), AVAS, COSX integrals, SCF dyn. polar.
   Lee Huntington         : MR-EOM, pCC
   Robert Izsak           : Overlap fitted RIJCOSX, COSX-SCS-MP3, EOM
   Riya Kayal             : Wick's Theorem for AUTO-CI, AUTO-CI UHF-CCSDT
   Emily Kempfer          : AUTO-CI, RHF CISDT and CCSDT
   Christian Kollmar      : KDIIS, OOCD, Brueckner-CCSD(T), CCSD density, CASPT2, CASPT2-K, improved NEVPT2
   Axel Koslowski         : Symmetry handling
   Simone Kossmann        : Meta GGA functionals, TD-DFT gradient, OOMP2, (MP2 Hessian; deprecated post 5.0)
   Lucas Lang             : DCDCAS
   Marvin Lechner         : AUTO-CI (C++ implementation), FIC-MRCC
   Spencer Leger          : CASSCF response
   Dagmar Lenk            : GEPOL surface, SMD, ORCA-2-JSON
   Dimitrios Liakos       : Extrapolation schemes; Compound Job, initial MDCI parallelization
   Dimitrios Manganas     : Further ROCIS development; embedding schemes. LFT, Crystal Embedding
   Dimitrios Pantazis     : SARC Basis sets
   Anastasios Papadopoulos: AUTO-CI, single reference methods and gradients
   Taras Petrenko         : pre 6.0 DFT Hessian and TD-DFT gradient, (ASA, deprecated), ECA, 1-Electron XAS/XES, NRVS
   Peter Pinski           : DLPNO-MP2, DLPNO-MP2 Gradient
   Christoph Reimann      : Effective Core Potentials
   Marius Retegan         : Local ZFS, SOC
   Christoph Riplinger    : Optimizer, TS searches, QM/MM, DLPNO-CCSD(T), (RO)-DLPNO pert. Triples
   Michael Roemelt        : Original ROCIS implementation
   Masaaki Saitow         : Open-shell DLPNO-CCSD energy and density
   Barbara Sandhoefer     : DKH picture change effects
   Kantharuban Sivalingam : CASSCF convergence/infrastructure, NEVPT2 and variants, FIC-MRCI
   Bernardo de Souza      : ESD, SOC TD-DFT
   Georgi Stoychev        : AutoAux, RI-MP2 NMR, DLPNO-MP2 response, X2C
   Van Anh Tran           : RI-MP2 g-tensors
   Willem Van den Heuvel  : Paramagnetic NMR
   Zikuan Wang            : NOTCH, Electric field optimization 
   Frank Wennmohs         : Technical directorship and infrastructure
   Hang Xu                : AUTO-CI-Response properties 


 We gratefully acknowledge several colleagues who have allowed us to
 interface, adapt or use parts of their codes:
   Stefan Grimme, W. Hujo, H. Kruse, P. Pracht,  : VdW corrections, initial TS optimization,
                  C. Bannwarth, S. Ehlert,         DFT functionals, gCP, sTDA/sTD-DF
                  L. Wittmann, M. Mueller
   Ed Valeev, F. Pavosevic, A. Kumar             : LibInt (2-el integral package), F12 methods
   Garnet Chan, S. Sharma, J. Yang, R. Olivares  : DMRG
   Ulf Ekstrom                                   : XCFun DFT Library
   Mihaly Kallay                                 : mrcc  (arbitrary order and MRCC methods)
   Frank Weinhold                                : gennbo (NPA and NBO analysis)
   Simon Mueller                                 : openCOSMO-RS
   Christopher J. Cramer and Donald G. Truhlar   : smd solvation model
   Lars Goerigk                                  : TD-DFT with DH, B97 family of functionals
   V. Asgeirsson, H. Jonsson                     : NEB implementation
   FAccTs GmbH                                   : IRC, NEB, NEB-TS, DLPNO-Multilevel, CI-OPT
                                                   MM, QMMM, 2- and 3-layer-ONIOM, Crystal-QMMM,
                                                   LR-CPCM, SF, NACMEs, symmetry and pop. for TD-DFT,
                                                   nearIR, NL-DFT gradient (VV10), updates on ESD,
                                                   ML-optimized integration grids, MBIS, APM,
                                                   GOAT, DOCKER, SOLVATOR, interface openCOSMO-RS
   S Lehtola, MJT Oliveira, MAL Marques          : LibXC Library
   Liviu Ungur et al                             : ANISO software


 Your calculation uses the libint2 library for the computation of 2-el integrals
 For citations please refer to: http://libint.valeyev.net

 Your ORCA version has been built with support for libXC version: 6.2.2
 For citations please refer to: https://libxc.gitlab.io

 This ORCA versions uses:
   CBLAS   interface :  Fast vector & matrix operations
   LAPACKE interface :  Fast linear algebra routines
   SCALAPACK package :  Parallel linear algebra routines
   Shared memory     :  Shared parallel matrices
   BLAS/LAPACK       :  OpenBLAS 0.3.27  USE64BITINT DYNAMIC_ARCH NO_AFFINITY SkylakeX SINGLE_THREADED
        Core in use  :  SkylakeX
   Copyright (c) 2011-2014, The OpenBLAS Project


Your calculation utilizes the geometrical counterpoise correction gCP
Please cite in your paper:
H.Kruse, S. Grimme J.Chem.Phys., 136, (2012), 154101 
   

Your calculation utilizes the atom-pairwise dispersion correction
based on EEQ partial charges (D4)


Your calculation utilizes the SMD solvation module
Please cite in your paper:
A.V. Marenich, C.J. Cramer, D.G. Truhlar J. Phys. Chem. B, 113, (2009), 6378 

================================================================================

----- Orbital basis set information -----
Your calculation utilizes the basis: def2-mTZVPP
   Stefan Grimme, Andreas Hansen, Sebastian Ehlert, and Jan-Michael Mewes 
   J. Chem. Phys. 154, 064103 (2021). DOI: 10.1063/5.0040021

----- AuxJ basis set information -----
Your calculation utilizes the auxiliary basis: def2/J
   F. Weigend, Phys. Chem. Chem. Phys. 8, 1057 (2006).

================================================================================
                                        WARNINGS
                       Please study these warnings very carefully!
================================================================================

Using LibXC functional ID 497 : Re-regularized SCAN exchange by Furness et al
[ 1]  J. W. Furness, A. D. Kaplan, J. Ning, J. P. Perdew, and J. Sun.,  J. Phys. Chem. Lett. 11, 8208-8215 (2020)
[ 2]  J. W. Furness, A. D. Kaplan, J. Ning, J. P. Perdew, and J. Sun.,  J. Phys. Chem. Lett. 11, 9248-9248 (2020)
Using LibXC functional ID 498 : Re-regularized SCAN correlation by Furness et al
[ 1]  J. W. Furness, A. D. Kaplan, J. Ning, J. P. Perdew, and J. Sun.,  J. Phys. Chem. Lett. 11, 8208-8215 (2020)
[ 2]  J. W. Furness, A. D. Kaplan, J. Ning, J. P. Perdew, and J. Sun.,  J. Phys. Chem. Lett. 11, 9248-9248 (2020)
Using LibXC functional ID 497 : Re-regularized SCAN exchange by Furness et al
[ 1]  J. W. Furness, A. D. Kaplan, J. Ning, J. P. Perdew, and J. Sun.,  J. Phys. Chem. Lett. 11, 8208-8215 (2020)
[ 2]  J. W. Furness, A. D. Kaplan, J. Ning, J. P. Perdew, and J. Sun.,  J. Phys. Chem. Lett. 11, 9248-9248 (2020)
Using LibXC functional ID 498 : Re-regularized SCAN correlation by Furness et al
[ 1]  J. W. Furness, A. D. Kaplan, J. Ning, J. P. Perdew, and J. Sun.,  J. Phys. Chem. Lett. 11, 8208-8215 (2020)
[ 2]  J. W. Furness, A. D. Kaplan, J. Ning, J. P. Perdew, and J. Sun.,  J. Phys. Chem. Lett. 11, 9248-9248 (2020)

================================================================================
                                       INPUT FILE
================================================================================
NAME = sp_solv.inp
|  1> ! r2scan-3c def2/J RI DEFGRID2 scfconv6 printgap
|  2> %output
|  3>     printlevel normal
|  4> end
|  5> %cpcm
|  6>     smd true
|  7>     smdsolvent "water"
|  8> end
|  9> * xyz 0 1
| 10> C 2.1360525829 -0.6145326663 -0.8749692174
| 11> C 1.2155665077 -0.1685792117 0.2609723172
| 12> H 0.9096178825 -1.0546913012 0.8397491542
| 13> C -0.0338336655 0.5601725476 -0.2631486329
| 14> C -1.3588416008 -0.0464122681 0.2090676046
| 15> C -2.5080598831 0.9139025976 -0.0919133373
| 16> C -1.6177354731 -1.3938163912 -0.4621564798
| 17> O 1.8817827028 0.7298274072 1.1394588443
| 18> H 1.5974158679 -1.2763067608 -1.5465678748
| 19> H 2.4805107427 0.2544194746 -1.4307271979
| 20> H 3.001568804 -1.1461000391 -0.4846288302
| 21> H 0.0356600683 1.5903316725 0.0921237252
| 22> H -0.0206636371 0.5824118344 -1.3535151058
| 23> H -1.3043818504 -0.1936148522 1.2935904726
| 24> H -2.3590423171 1.8627183745 0.4177459367
| 25> H -3.4536623979 0.4908782189 0.2383660367
| 26> H -2.570687269 1.1036423677 -1.1611441486
| 27> H -0.8109171939 -2.0940015964 -0.2613903912
| 28> H -2.5449281848 -1.8271844897 -0.0948448942
| 29> H -1.7016508122 -1.2654932526 -1.5391984388
| 30> H 2.691809741 0.3166018242 1.4668367718
| 31> *
| 32> 
| 33>                          ****END OF INPUT****
================================================================================

                       ****************************
                       * Single Point Calculation *
                       ****************************

---------------------------------
CARTESIAN COORDINATES (ANGSTROEM)
---------------------------------
  C      2.136053   -0.614533   -0.874969
  C      1.215567   -0.168579    0.260972
  H      0.909618   -1.054691    0.839749
  C     -0.033834    0.560173   -0.263149
  C     -1.358842   -0.046412    0.209068
  C     -2.508060    0.913903   -0.091913
  C     -1.617735   -1.393816   -0.462156
  O      1.881783    0.729827    1.139459
  H      1.597416   -1.276307   -1.546568
  H      2.480511    0.254419   -1.430727
  H      3.001569   -1.146100   -0.484629
  H      0.035660    1.590332    0.092124
  H     -0.020664    0.582412   -1.353515
  H     -1.304382   -0.193615    1.293590
  H     -2.359042    1.862718    0.417746
  H     -3.453662    0.490878    0.238366
  H     -2.570687    1.103642   -1.161144
  H     -0.810917   -2.094002   -0.261390
  H     -2.544928   -1.827184   -0.094845
  H     -1.701651   -1.265493   -1.539198
  H      2.691810    0.316602    1.466837

----------------------------
CARTESIAN COORDINATES (A.U.)
----------------------------
  NO LB      ZA    FRAG     MASS         X           Y           Z
   0 C     6.0000    0    12.011    4.036554   -1.161298   -1.653452
   1 C     6.0000    0    12.011    2.297088   -0.318569    0.493166
   2 H     1.0000    0     1.008    1.718929   -1.993078    1.586896
   3 C     6.0000    0    12.011   -0.063936    1.058573   -0.497279
   4 C     6.0000    0    12.011   -2.567838   -0.087706    0.395081
   5 C     6.0000    0    12.011   -4.739546    1.727026   -0.173691
   6 C     6.0000    0    12.011   -3.057077   -2.633931   -0.873349
   7 O     8.0000    0    15.999    3.556054    1.379174    2.153265
   8 H     1.0000    0     1.008    3.018679   -2.411870   -2.922590
   9 H     1.0000    0     1.008    4.687486    0.480783   -2.703683
  10 H     1.0000    0     1.008    5.672143   -2.165815   -0.915816
  11 H     1.0000    0     1.008    0.067388    3.005291    0.174089
  12 H     1.0000    0     1.008   -0.039049    1.100599   -2.557773
  13 H     1.0000    0     1.008   -2.464924   -0.365879    2.444532
  14 H     1.0000    0     1.008   -4.457944    3.520028    0.789425
  15 H     1.0000    0     1.008   -6.526476    0.927625    0.450447
  16 H     1.0000    0     1.008   -4.857895    2.085582   -2.194244
  17 H     1.0000    0     1.008   -1.532411   -3.957090   -0.493956
  18 H     1.0000    0     1.008   -4.809217   -3.452878   -0.179231
  19 H     1.0000    0     1.008   -3.215654   -2.391436   -2.908664
  20 H     1.0000    0     1.008    5.086783    0.598291    2.771920

--------------------------------
INTERNAL COORDINATES (ANGSTROEM)
--------------------------------
 C      0   0   0     0.000000000000     0.00000000     0.00000000
 C      1   0   0     1.528571970283     0.00000000     0.00000000
 H      2   1   0     1.101717669581   108.84314337     0.00000000
 C      2   1   3     1.538435143192   111.96704848   238.75503904
 C      4   2   1     1.531854869824   114.19648195   124.66247874
 C      5   4   2     1.527578747248   109.94127458   167.18571904
 C      5   4   2     1.527437618870   111.12791070   289.08796390
 O      2   1   3     1.422222573929   111.17606787   119.18471678
 H      1   2   3     1.085872561362   109.79856250    62.41040550
 H      1   2   3     1.087472381220   109.71898997   182.36895381
 H      1   2   3     1.088139613603   110.78882674   302.47771639
 H      4   2   1     1.091913755789   106.52131627   245.24280034
 H      4   2   1     1.090672765200   109.90375398     1.73273610
 H      5   4   2     1.095821297655   108.37840834    48.78094467
 H      6   5   4     1.087294895162   110.67839125   300.02200931
 H      6   5   4     1.087289384598   110.47763936   179.89909381
 H      6   5   4     1.087739811561   110.28269997    60.02688318
 H      7   5   4     1.086978417248   111.17745282    58.05276960
 H      7   5   4     1.087387711142   110.34365804   178.22197017
 H      7   5   4     1.087900727770   110.12566905   297.85384351
 H      8   2   1     0.966475810600   109.37506113   304.44558621

---------------------------
INTERNAL COORDINATES (A.U.)
---------------------------
 C      0   0   0     0.000000000000     0.00000000     0.00000000
 C      1   0   0     2.888582399824     0.00000000     0.00000000
 H      2   1   0     2.081944672411   108.84314337     0.00000000
 C      2   1   3     2.907221095433   111.96704848   238.75503904
 C      4   2   1     2.894786180882   114.19648195   124.66247874
 C      5   4   2     2.886705480297   109.94127458   167.18571904
 C      5   4   2     2.886438786314   111.12791070   289.08796390
 O      2   1   3     2.687611166206   111.17606787   119.18471678
 H      1   2   3     2.052001757314   109.79856250    62.41040550
 H      1   2   3     2.055024978710   109.71898997   182.36895381
 H      1   2   3     2.056285865181   110.78882674   302.47771639
 H      4   2   1     2.063417960303   106.52131627   245.24280034
 H      4   2   1     2.061072827955   109.90375398     1.73273610
 H      5   4   2     2.070802144286   108.37840834    48.78094467
 H      6   5   4     2.054689578667   110.67839125   300.02200931
 H      6   5   4     2.054679165211   110.47763936   179.89909381
 H      6   5   4     2.055530348814   110.28269997    60.02688318
 H      7   5   4     2.054091522083   111.17745282    58.05276960
 H      7   5   4     2.054864975450   110.34365804   178.22197017
 H      7   5   4     2.055834436379   110.12566905   297.85384351
 H      8   2   1     1.826374597094   109.37506113   304.44558621

---------------------
BASIS SET INFORMATION
---------------------
There are 3 groups of distinct atoms

 Group   1 Type C   : 11s6p1d contracted to 5s3p1d pattern {62111/411/1}
 Group   2 Type H   : 4s1p contracted to 2s1p pattern {31/1}
 Group   3 Type O   : 11s6p2d contracted to 5s3p2d pattern {62111/411/11}

Atom   0C    basis set group =>   1
Atom   1C    basis set group =>   1
Atom   2H    basis set group =>   2
Atom   3C    basis set group =>   1
Atom   4C    basis set group =>   1
Atom   5C    basis set group =>   1
Atom   6C    basis set group =>   1
Atom   7O    basis set group =>   3
Atom   8H    basis set group =>   2
Atom   9H    basis set group =>   2
Atom  10H    basis set group =>   2
Atom  11H    basis set group =>   2
Atom  12H    basis set group =>   2
Atom  13H    basis set group =>   2
Atom  14H    basis set group =>   2
Atom  15H    basis set group =>   2
Atom  16H    basis set group =>   2
Atom  17H    basis set group =>   2
Atom  18H    basis set group =>   2
Atom  19H    basis set group =>   2
Atom  20H    basis set group =>   2
---------------------------------
AUXILIARY/J BASIS SET INFORMATION
---------------------------------
There are 3 groups of distinct atoms

 Group   1 Type C   : 12s5p4d2f1g contracted to 6s4p3d1f1g pattern {711111/2111/211/2/1}
 Group   2 Type H   : 5s2p1d contracted to 3s1p1d pattern {311/2/1}
 Group   3 Type O   : 12s5p4d2f1g contracted to 6s4p3d1f1g pattern {711111/2111/211/2/1}

Atom   0C    basis set group =>   1
Atom   1C    basis set group =>   1
Atom   2H    basis set group =>   2
Atom   3C    basis set group =>   1
Atom   4C    basis set group =>   1
Atom   5C    basis set group =>   1
Atom   6C    basis set group =>   1
Atom   7O    basis set group =>   3
Atom   8H    basis set group =>   2
Atom   9H    basis set group =>   2
Atom  10H    basis set group =>   2
Atom  11H    basis set group =>   2
Atom  12H    basis set group =>   2
Atom  13H    basis set group =>   2
Atom  14H    basis set group =>   2
Atom  15H    basis set group =>   2
Atom  16H    basis set group =>   2
Atom  17H    basis set group =>   2
Atom  18H    basis set group =>   2
Atom  19H    basis set group =>   2
Atom  20H    basis set group =>   2

Checking for AutoStart:
The File: sp_solv.gbw exists
Trying to determine its content:
     ... Fine, the file contains calculation information
     ... Fine, the calculation information was read
     ... Fine, the file contains a basis set
     ... Fine, the basis set was read
     ... Fine, the file contains a geometry
     ... Fine, the geometry was read
     ... Fine, the file contains a set of orbitals
     ... Fine, the orbitals can be read
     => possible old guess file was deleted
     => GBW file was renamed to GES file
     => GES file is set as startup file
     => Guess is set to MORead
     ... now leaving AutoStart

------------------------------------------------------------------------------
                             ORCA STARTUP CALCULATIONS
                           -- RI-GTO INTEGRALS CHOSEN --
------------------------------------------------------------------------------
------------------------------------------------------------------------------
                   ___                                                        
                  /   \      - P O W E R E D   B Y -                         
                 /     \                                                     
                 |  |  |   _    _      __       _____    __    __             
                 |  |  |  | |  | |    /  \     |  _  \  |  |  /  |          
                  \  \/   | |  | |   /    \    | | | |  |  | /  /          
                 / \  \   | |__| |  /  /\  \   | |_| |  |  |/  /          
                |  |  |   |  __  | /  /__\  \  |    /   |      \           
                |  |  |   | |  | | |   __   |  |    \   |  |\   \          
                \     /   | |  | | |  |  |  |  | |\  \  |  | \   \       
                 \___/    |_|  |_| |__|  |__|  |_| \__\ |__|  \__/        
                                                                              
                      - O R C A' S   B I G   F R I E N D -                    
                                      &                                       
                       - I N T E G R A L  F E E D E R -                       
                                                                              
 v1 FN, 2020, v2 2021, v3 2022-2024                                           
------------------------------------------------------------------------------


----------------------
SHARK INTEGRAL PACKAGE
----------------------

Number of atoms                             ...     21
Number of basis functions                   ...    208
Number of shells                            ...    106
Maximum angular momentum                    ...      2
Integral batch strategy                     ... SHARK/LIBINT Hybrid
RI-J (if used) integral strategy            ... SPLIT-RIJ (Revised 2003 algorithm where possible)
Printlevel                                  ...      1
Contraction scheme used                     ... SEGMENTED contraction
Prescreening option                         ... SCHWARTZ
   Thresh                                   ... 1.000e-10
   Tcut                                     ... 1.000e-11
   Tpresel                                  ... 1.000e-11 
Coulomb Range Separation                    ... NOT USED
Exchange Range Separation                   ... NOT USED
Multipole approximations                    ... NOT USED
Finite Nucleus Model                        ... NOT USED
CABS basis                                  ... NOT available
Auxiliary Coulomb fitting basis             ... AVAILABLE
   # of basis functions in Aux-J            ...    497
   # of shells in Aux-J                     ...    175
   Maximum angular momentum in Aux-J        ...      4
Auxiliary J/K fitting basis                 ... NOT available
Auxiliary Correlation fitting basis         ... NOT available
Auxiliary 'external' fitting basis          ... NOT available

Checking pre-screening integrals            ... done (  0.0 sec) Dimension = 106
Check shell pair data                       ... done (  0.0 sec)
Shell pair information
Shell pair cut-off parameter TPreSel        ...   1.0e-11
Total number of shell pairs                 ...      5671
Shell pairs after pre-screening             ...      5118
Total number of primitive shell pairs       ...     19699
Primitive shell pairs kept                  ...     12863
          la=0 lb=0:   1813 shell pairs
          la=1 lb=0:   1987 shell pairs
          la=1 lb=1:    573 shell pairs
          la=2 lb=0:    457 shell pairs
          la=2 lb=1:    255 shell pairs
          la=2 lb=2:     33 shell pairs

Calculating one electron integrals          ... done (  0.0 sec)
Calculating RI/J V-Matrix + Cholesky decomp.... done (  0.1 sec)
Calculating Nuclear repulsion               ... done (  0.0 sec) ENN=    331.742656222617 Eh

Diagonalization of the overlap matrix:
Smallest eigenvalue                        ... 1.461e-04
Time for diagonalization                   ...    0.004 sec
Threshold for overlap eigenvalues          ... 1.000e-07
Number of eigenvalues below threshold      ... 0
Time for construction of square roots      ...    0.017 sec
Total time needed                          ...    0.031 sec

-------------------
DFT GRID GENERATION
-------------------

General Integration Accuracy     IntAcc      ... 4.388
Radial Grid Type                 RadialGrid  ... OptM3 with GC (2021)
Angular Grid (max. ang.)         AngularGrid ... 4 (Lebedev-302)
Angular grid pruning method      GridPruning ... 4 (adaptive)
Weight generation scheme         WeightScheme... mBecke (2022)
Basis function cutoff            BFCut       ... 1.0000e-10
Integration weight cutoff        WCut        ... 1.0000e-14
Partially contracted basis set               ... off
Rotationally invariant grid construction     ... off
Angular grids for H and He will be reduced by one unit
Diffuse basis detected: some atoms will have their outermost
                        angular grid increased by 1.

Total number of grid points                  ...    87097
Total number of batches                      ...     1372
Average number of points per batch           ...       63
Average number of grid points per atom       ...     4147
Initializing property integral containers    ... done (  0.0 sec)

SHARK setup successfully completed in   1.3 seconds

Maximum memory used throughout the entire STARTUP-calculation: 38.0 MB
-------------------------------------------------------------------------------
                                 ORCA GUESS
                   Start orbitals & Density for SCF / CASSCF
-------------------------------------------------------------------------------

------------
SCF SETTINGS
------------
Hamiltonian:
 Density Functional     Method          .... DFT(GTOs)
  Functional kind                       .... Exchange
  Functional name                       .... Re-regularized SCAN exchange by Furness et al
  Functional family                     .... MGGA
  Functional refs                              
    [ 0] J. W. Furness, A. D. Kaplan, J. Ning, J. P. Perdew, and J. Sun.,  J. Phys. Chem. Lett. 11, 8208-8215 (2020), doi: 10.1021/acs.jpclett.0c02405
    [ 1] J. W. Furness, A. D. Kaplan, J. Ning, J. P. Perdew, and J. Sun.,  J. Phys. Chem. Lett. 11, 9248-9248 (2020), doi: 10.1021/acs.jpclett.0c03077
  Functional external parameters        .... 6
    Parameter  0 _c1        =  6.670000e-01 : c1 parameter        
    Parameter  1 _c2        =  8.000000e-01 : c2 parameter        
    Parameter  2 _d         =  1.240000e+00 : d parameter         
    Parameter  3 _k1        =  6.500000e-02 : k1 parameter        
    Parameter  4 _eta       =  1.000000e-03 : eta parameter       
    Parameter  5 _dp2       =  3.610000e-01 : dp2 parameter       
  Functional kind                       .... Correlation
  Functional name                       .... Re-regularized SCAN correlation by Furness et al
  Functional family                     .... MGGA
  Functional refs                              
    [ 0] J. W. Furness, A. D. Kaplan, J. Ning, J. P. Perdew, and J. Sun.,  J. Phys. Chem. Lett. 11, 8208-8215 (2020), doi: 10.1021/acs.jpclett.0c02405
    [ 1] J. W. Furness, A. D. Kaplan, J. Ning, J. P. Perdew, and J. Sun.,  J. Phys. Chem. Lett. 11, 9248-9248 (2020), doi: 10.1021/acs.jpclett.0c03077
  Functional external parameters        .... 1
    Parameter  0 _eta       =  1.000000e-03 : Regularization parameter
 Gradients option       PostSCFGGA      .... off
 RI-approximation to the Coulomb term is turned on
   Number of AuxJ basis functions       .... 497


General Settings:
 Integral files         IntName         .... sp_solv
 Hartree-Fock type      HFTyp           .... RHF
 Total Charge           Charge          ....    0
 Multiplicity           Mult            ....    1
 Number of Electrons    NEL             ....   58
 Basis Dimension        Dim             ....  208
 Nuclear Repulsion      ENuc            ....    331.7426562226 Eh

Convergence Acceleration:
 AO-DIIS                CNVDIIS         .... on
   Start iteration      DIISMaxIt       ....    12
   Startup error        DIISStart       ....  0.200000
   # of expansion vecs  DIISMaxEq       ....     5
   Bias factor          DIISBfac        ....   1.050
   Max. coefficient     DIISMaxC        ....  10.000
 MO-DIIS                CNVKDIIS        .... off
 Trust-Rad. Augm. Hess. CNVTRAH         .... auto
   Auto Start mean grad. ratio tolernc. ....  1.125000
   Auto Start start iteration           ....     1
   Auto Start num. interpolation iter.  ....    10
   Max. Number of Micro iterations      ....    24
   Max. Number of Macro iterations      .... Maxiter - #DIIS iter
   Number of Davidson start vectors     ....     2
   Converg. threshold    (grad. norm)   ....   3.330e-04
   Grad. Scal. Fac. for Micro threshold ....   0.100
   Minimum threshold for Micro iter.    ....   1.000e-02
   NR start threshold (gradient norm)   ....   1.000e-04
   Initial trust radius                 ....   0.400
   Minimum AH scaling param. (alpha)    ....   1.000
   Maximum AH scaling param. (alpha)    .... 1000.000
   Quad. conv. algorithm                .... NR
   White noise on init. David. guess    .... on
   Maximum white noise                  ....   0.010
   Pseudo random numbers                .... off
   Inactive MOs                         .... canonical
   Orbital update algorithm             .... Taylor
   Preconditioner                       .... Diag
   Full preconditioner red. dimension   ....   250
   COSX micro iterations for RIJONX calc.... off
 SOSCF                  CNVSOSCF        .... on
   Start iteration      SOSCFMaxIt      ....   150
   Startup grad/error   SOSCFStart      ....  0.003300
   Hessian update       SOSCFHessUp     .... L-BFGS
 Level Shifting         CNVShift        .... on
   Level shift para.    LevelShift      ....    0.2500
   Turn off err/grad.   ShiftErr        ....    0.0010
 Zerner damping         CNVZerner       .... off
 Static damping         CNVDamp         .... on
   Fraction old density DampFac         ....    0.7000
   Max. Damping (<1)    DampMax         ....    0.9800
   Min. Damping (>=0)   DampMin         ....    0.0000
   Turn off err/grad.   DampErr         ....    0.1000

SCF Procedure:
 Maximum # iterations   MaxIter         ....   125
 SCF integral mode      SCFMode         .... Direct
   Integral package                     .... SHARK and LIBINT hybrid scheme
 Reset frequency        DirectResetFreq ....    20
 Integral Threshold     Thresh          ....  1.000e-10 Eh
 Primitive CutOff       TCut            ....  1.000e-11 Eh

Convergence Tolerance:
 Convergence Check Mode ConvCheckMode   .... Total+1el-Energy
 Convergence forced     ConvForced      .... 0
 Energy Change          TolE            ....  1.000e-06 Eh
 1-El. energy change                    ....  1.000e-03 Eh
 Orbital Gradient       TolG            ....  3.330e-04
 Orbital Rotation angle TolX            ....  3.330e-04
 DIIS Error             TolErr          ....  1.000e-06

---------------------
INITIAL GUESS: MOREAD
---------------------
Guess MOs are being read from file: sp_solv.ges
Input Geometry matches current geometry (good)
Atom 0: N(Shells)= 9 and 6 - projection required
Input basis set needs projection
NBasis(read)= 126
NBasis(calc)= 208
Basis set overlap was calculated
Using GuessMode=FMatrix for the initial guess
C*T matrix was formed
Effective Fockian was calculated
Effective Fockian was diagonalized
Initial density was built
                      ------------------
                      INITIAL GUESS DONE (   0.1 sec)
                      ------------------
             **** ENERGY FILE WAS UPDATED (sp_solv.en.tmp) ****
Finished Guess after   0.4 sec
Maximum memory used throughout the entire GUESS-calculation: 14.2 MB

-------------------------------------------------------------------------------------------
                                      ORCA LEAN-SCF
                              memory conserving SCF solver
-------------------------------------------------------------------------------------------

--------------------
CPCM SOLVATION MODEL
--------------------
CPCM parameters:
  Epsilon                                         ...      78.3550
  Refrac                                          ...       1.3328
  Rsolv                                           ...       1.3000
  Surface type                                    ... GAUSSIAN VDW
  Discretization scheme                           ... Constant charge density
    Threshold for H atoms                         ...       5.0000 (charges/Ang^2)
    Threshold for non-H atoms                     ...       5.0000 (charges/Ang^2)
  Epsilon function type                           ...         CPCM
Solvent:                                          ... WATER
SMD-CDS solvent descriptors:
  Soln                                            ...       1.3328
  Soln25                                          ...       1.3323
  Sola                                            ...       0.0000
  Solb                                            ...       0.0000
  Solg                                            ...       0.0000
  Solc                                            ...       0.0000
  Solh                                            ...       0.0000
Radii:
  Scheme                                          ... Element-dependent radii
  Radius for C  used is    3.4960 Bohr (=   1.8500 Ang.)
  Radius for H  used is    2.2677 Bohr (=   1.2000 Ang.)
  Radius for O  used is    2.8724 Bohr (=   1.5200 Ang.)
Calculating surface                               ...        done! (  0.0s)
Cavity surface points                             ...         1516
Cavity Volume                                     ...     856.8716
Cavity Surface-area                               ...     568.4566
Calculating surface distance matrix               ...        done! (  0.0s)
Performing Cholesky decomposition & store         ...        done! (  0.1s)
Overall time for CPCM initialization              ...                 0.2s

----------------------------------------D-I-I-S--------------------------------------------
Iteration    Energy (Eh)           Delta-E    RMSDP     MaxDP     DIISErr   Damp  Time(sec)
-------------------------------------------------------------------------------------------
               ***  Starting incremental Fock matrix formation  ***
    1    -312.0369859828758763     0.00e+00  3.36e-03  9.72e-02  6.28e-01  0.700   3.5
    2    -312.0901588490535232    -5.32e-02  2.78e-03  7.67e-02  4.42e-01  0.700   3.7
    3    -312.1279293983969865    -3.78e-02  2.06e-03  5.57e-02  3.10e-01  0.700   3.2
    4    -312.1545088168106759    -2.66e-02  1.49e-03  3.96e-02  2.17e-01  0.700   3.7
                               ***Turning on AO-DIIS***
    5    -312.1731846857239816    -1.87e-02  1.09e-03  2.83e-02  1.52e-01  0.700   3.1
    6    -312.1862931795994882    -1.31e-02  7.81e-04  2.00e-02  1.06e-01  0.700   3.2
    7    -312.1954934738660086    -9.20e-03  5.53e-04  1.41e-02  7.43e-02  0.700   3.0
    8    -312.2019449575686849    -6.45e-03  1.30e-03  3.29e-02  5.21e-02  0.000   3.1
                              *** Initializing SOSCF ***
---------------------------------------S-O-S-C-F--------------------------------------
Iteration    Energy (Eh)           Delta-E    RMSDP     MaxDP     MaxGrad    Time(sec)
--------------------------------------------------------------------------------------
    9    -312.2170382696513116    -1.51e-02  1.45e-05  4.90e-04  1.29e-04     3.1
               *** Restarting incremental Fock matrix formation ***
   10    -312.2170385020094727    -2.32e-07  7.24e-06  1.53e-04  2.23e-05     3.4
                  *** Gradient check signals convergence ***

               *****************************************************
               *                     SUCCESS                       *
               *           SCF CONVERGED AFTER  10 CYCLES          *
               *****************************************************


SMD CDS free energy correction energy :                 3.85165     Kcal/mol
Total Energy after SMD CDS correction =              -312.210900507 Eh
             **** ENERGY FILE WAS UPDATED (sp_solv.en.tmp) ****

----------------
TOTAL SCF ENERGY
----------------

Total Energy       :       -312.21090050719170 Eh           -8495.69052 eV

Components:
Nuclear Repulsion  :        331.74265622261703 Eh            9027.17661 eV
Electronic Energy  :       -643.94567398431241 Eh          -17522.65262 eV
One Electron Energy:      -1079.29849658126182 Eh          -29369.20519 eV
Two Electron Energy:        435.35282259694935 Eh           11846.55257 eV
CPCM Dielectric    :         -0.01402074031412 Eh              -0.38152 eV
SMD CDS (Gcds)     :          0.00613799481777 Eh               0.16702 eV

Virial components:
Potential Energy   :       -623.01612680464223 Eh          -16953.13069 eV
Kinetic Energy     :        310.80522629745059 Eh            8457.44018 eV
Virial Ratio       :          2.00452268524081

DFT components:
N(Alpha)           :       28.999932495033 electrons
N(Beta)            :       28.999932495033 electrons
N(Total)           :       57.999864990065 electrons
E(X)               :      -44.504936736026 Eh       
E(C)               :       -1.812578769344 Eh       
E(XC)              :      -46.317515505369 Eh       

CPCM Solvation Model Properties:
Surface-charge          :         -0.05030605324510
Corrected charge        :          0.00000000000000
Outlying charge corr.   :          0.00019688813111 Eh               0.00536 eV
Free-energy (cav+disp)  :          0.00613799481777 Eh               0.16702 eV

---------------
SCF CONVERGENCE
---------------

  Last Energy change         ...    2.3236e-07  Tolerance :   1.0000e-06
  Last MAX-Density change    ...    1.5332e-04  Tolerance :   1.0000e-05
  Last RMS-Density change    ...    7.2412e-06  Tolerance :   1.0000e-06
  Last DIIS Error            ...    1.2890e-04  Tolerance :   1.0000e-06
  Last Orbital Gradient      ...    2.2275e-05  Tolerance :   3.3300e-04
  Last Orbital Rotation      ...    4.2091e-05  Tolerance :   3.3300e-04


----------------
ORBITAL ENERGIES
----------------

  NO   OCC          E(Eh)            E(eV) 
   0   2.0000     -18.947012      -515.5744 
   1   2.0000     -10.074382      -274.1379 
   2   2.0000     -10.025681      -272.8127 
   3   2.0000     -10.012820      -272.4627 
   4   2.0000     -10.009312      -272.3672 
   5   2.0000     -10.006111      -272.2801 
   6   2.0000     -10.005937      -272.2754 
   7   2.0000      -0.983398       -26.7596 
   8   2.0000      -0.771220       -20.9859 
   9   2.0000      -0.712826       -19.3970 
  10   2.0000      -0.643915       -17.5218 
  11   2.0000      -0.640728       -17.4351 
  12   2.0000      -0.557080       -15.1589 
  13   2.0000      -0.520196       -14.1553 
  14   2.0000      -0.472987       -12.8706 
  15   2.0000      -0.421650       -11.4737 
  16   2.0000      -0.413402       -11.2492 
  17   2.0000      -0.398502       -10.8438 
  18   2.0000      -0.381241       -10.3741 
  19   2.0000      -0.360290        -9.8040 
  20   2.0000      -0.346973        -9.4416 
  21   2.0000      -0.343610        -9.3501 
  22   2.0000      -0.337097        -9.1729 
  23   2.0000      -0.318568        -8.6687 
  24   2.0000      -0.304305        -8.2806 
  25   2.0000      -0.286424        -7.7940 
  26   2.0000      -0.284088        -7.7304 
  27   2.0000      -0.270298        -7.3552 
  28   2.0000      -0.236298        -6.4300 
  29   0.0000       0.077849         2.1184 
  30   0.0000       0.096286         2.6201 
  31   0.0000       0.116626         3.1736 
  32   0.0000       0.120055         3.2669 
  33   0.0000       0.136046         3.7020 
  34   0.0000       0.144112         3.9215 
  35   0.0000       0.148977         4.0539 
  36   0.0000       0.150271         4.0891 
  37   0.0000       0.154373         4.2007 
  38   0.0000       0.162620         4.4251 
  39   0.0000       0.173899         4.7320 
*Only the first 10 virtual orbitals were printed.

                    ********************************
                    * MULLIKEN POPULATION ANALYSIS *
                    ********************************

-----------------------
MULLIKEN ATOMIC CHARGES
-----------------------
   0 C :   -0.542573
   1 C :    0.059680
   2 H :    0.145307
   3 C :   -0.304270
   4 C :   -0.025083
   5 C :   -0.525530
   6 C :   -0.546223
   7 O :   -0.519003
   8 H :    0.164695
   9 H :    0.164898
  10 H :    0.160121
  11 H :    0.159882
  12 H :    0.166714
  13 H :    0.151861
  14 H :    0.157435
  15 H :    0.158154
  16 H :    0.157076
  17 H :    0.157967
  18 H :    0.157480
  19 H :    0.163641
  20 H :    0.337771
Sum of atomic charges:    0.0000000

--------------------------------
MULLIKEN REDUCED ORBITAL CHARGES
--------------------------------
  0 C s       :     3.369640  s :     3.369640
      pz      :     1.004523  p :     3.147023
      px      :     1.052090
      py      :     1.090410
      dz2     :     0.002976  d :     0.025910
      dxz     :     0.006927
      dyz     :     0.006972
      dx2y2   :     0.002640
      dxy     :     0.006395

  1 C s       :     3.200637  s :     3.200637
      pz      :     0.862911  p :     2.673066
      px      :     0.907746
      py      :     0.902409
      dz2     :     0.011784  d :     0.066618
      dxz     :     0.014320
      dyz     :     0.016137
      dx2y2   :     0.010233
      dxy     :     0.014144

  2 H s       :     0.837673  s :     0.837673
      pz      :     0.004841  p :     0.017020
      px      :     0.003753
      py      :     0.008426

  3 C s       :     3.215678  s :     3.215678
      pz      :     1.067008  p :     3.054032
      px      :     0.944348
      py      :     1.042676
      dz2     :     0.009404  d :     0.034560
      dxz     :     0.005553
      dyz     :     0.003310
      dx2y2   :     0.008987
      dxy     :     0.007305

  4 C s       :     3.086118  s :     3.086118
      pz      :     1.056787  p :     2.892420
      px      :     0.928288
      py      :     0.907345
      dz2     :     0.011722  d :     0.046545
      dxz     :     0.005581
      dyz     :     0.006882
      dx2y2   :     0.010344
      dxy     :     0.012017

  5 C s       :     3.348853  s :     3.348853
      pz      :     1.084658  p :     3.149587
      px      :     1.017087
      py      :     1.047842
      dz2     :     0.007048  d :     0.027090
      dxz     :     0.002796
      dyz     :     0.004471
      dx2y2   :     0.006811
      dxy     :     0.005964

  6 C s       :     3.353000  s :     3.353000
      pz      :     1.053776  p :     3.166161
      px      :     1.112011
      py      :     1.000373
      dz2     :     0.008561  d :     0.027063
      dxz     :     0.001893
      dyz     :     0.004072
      dx2y2   :     0.004240
      dxy     :     0.008296

  7 O s       :     3.765804  s :     3.765804
      pz      :     1.656555  p :     4.732681
      px      :     1.450233
      py      :     1.625893
      dz2     :     0.002184  d :     0.020518
      dxz     :     0.003856
      dyz     :     0.003375
      dx2y2   :     0.003724
      dxy     :     0.007378

  8 H s       :     0.816914  s :     0.816914
      pz      :     0.006631  p :     0.018391
      px      :     0.005331
      py      :     0.006429

  9 H s       :     0.816895  s :     0.816895
      pz      :     0.005603  p :     0.018206
      px      :     0.004357
      py      :     0.008247

 10 H s       :     0.821599  s :     0.821599
      pz      :     0.004402  p :     0.018280
      px      :     0.008438
      py      :     0.005440

 11 H s       :     0.822000  s :     0.822000
      pz      :     0.004309  p :     0.018117
      px      :     0.003403
      py      :     0.010405

 12 H s       :     0.815278  s :     0.815278
      pz      :     0.011129  p :     0.018008
      px      :     0.003344
      py      :     0.003535

 13 H s       :     0.830611  s :     0.830611
      pz      :     0.010862  p :     0.017528
      px      :     0.003239
      py      :     0.003427

 14 H s       :     0.824270  s :     0.824270
      pz      :     0.005255  p :     0.018294
      px      :     0.003685
      py      :     0.009354

 15 H s       :     0.823536  s :     0.823536
      pz      :     0.004343  p :     0.018310
      px      :     0.009310
      py      :     0.004657

 16 H s       :     0.824669  s :     0.824669
      pz      :     0.010755  p :     0.018255
      px      :     0.003639
      py      :     0.003861

 17 H s       :     0.823573  s :     0.823573
      pz      :     0.003950  p :     0.018460
      px      :     0.007784
      py      :     0.006726

 18 H s       :     0.824225  s :     0.824225
      pz      :     0.004443  p :     0.018295
      px      :     0.009032
      py      :     0.004820

 19 H s       :     0.818146  s :     0.818146
      pz      :     0.010883  p :     0.018213
      px      :     0.003723
      py      :     0.003608

 20 H s       :     0.619183  s :     0.619183
      pz      :     0.012023  p :     0.043047
      px      :     0.019616
      py      :     0.011408


------------------------
MULLIKEN OVERLAP CHARGES
------------------------
B(  0-C ,  1-C ) :   0.5500 B(  0-C ,  2-H ) :  -0.0706 B(  0-C ,  3-C ) :  -0.0966 
B(  0-C ,  7-O ) :  -0.1170 B(  0-C ,  8-H ) :   0.8157 B(  0-C ,  9-H ) :   0.8532 
B(  0-C , 10-H ) :   0.8205 B(  1-C ,  2-H ) :   0.8831 B(  1-C ,  3-C ) :   0.2444 
B(  1-C ,  4-C ) :   0.0646 B(  1-C ,  7-O ) :   0.4013 B(  1-C ,  8-H ) :  -0.0796 
B(  1-C ,  9-H ) :  -0.0814 B(  1-C , 10-H ) :  -0.0841 B(  1-C , 12-H ) :  -0.1027 
B(  1-C , 20-H ) :  -0.0985 B(  2-H ,  3-C ) :  -0.1799 B(  2-H ,  4-C ) :   0.0542 
B(  2-H ,  7-O ) :  -0.1160 B(  3-C ,  4-C ) :   0.3144 B(  3-C ,  5-C ) :  -0.2333 
B(  3-C ,  6-C ) :  -0.2171 B(  3-C ,  7-O ) :  -0.1005 B(  3-C , 11-H ) :   0.8069 
B(  3-C , 12-H ) :   0.8416 B(  3-C , 13-H ) :  -0.1247 B(  4-C ,  5-C ) :   0.5375 
B(  4-C ,  6-C ) :   0.4482 B(  4-C , 11-H ) :  -0.0630 B(  4-C , 12-H ) :  -0.0839 
B(  4-C , 13-H ) :   0.8708 B(  4-C , 14-H ) :  -0.0860 B(  4-C , 15-H ) :  -0.0933 
B(  4-C , 16-H ) :  -0.0880 B(  4-C , 17-H ) :  -0.0583 B(  4-C , 18-H ) :  -0.0802 
B(  4-C , 19-H ) :  -0.1074 B(  5-C ,  6-C ) :  -0.2406 B(  5-C , 13-H ) :  -0.0743 
B(  5-C , 14-H ) :   0.8217 B(  5-C , 15-H ) :   0.8163 B(  5-C , 16-H ) :   0.8496 
B(  6-C , 17-H ) :   0.7937 B(  6-C , 18-H ) :   0.7962 B(  6-C , 19-H ) :   0.8763 
B(  7-O , 20-H ) :   0.6330 


                     *******************************
                     * LOEWDIN POPULATION ANALYSIS *
                     *******************************

----------------------
LOEWDIN ATOMIC CHARGES
----------------------
   0 C :   -0.406124
   1 C :    0.051766
   2 H :    0.168716
   3 C :   -0.270650
   4 C :   -0.240722
   5 C :   -0.425524
   6 C :   -0.425512
   7 O :   -0.660103
   8 H :    0.163679
   9 H :    0.161484
  10 H :    0.157358
  11 H :    0.180094
  12 H :    0.167847
  13 H :    0.157843
  14 H :    0.155255
  15 H :    0.155218
  16 H :    0.156447
  17 H :    0.155649
  18 H :    0.155624
  19 H :    0.156391
  20 H :    0.285263

-------------------------------
LOEWDIN REDUCED ORBITAL CHARGES
-------------------------------
  0 C s       :     2.979640  s :     2.979640
      pz      :     1.098006  p :     3.365395
      px      :     1.125530
      py      :     1.141859
      dz2     :     0.006010  d :     0.061089
      dxz     :     0.016642
      dyz     :     0.016791
      dx2y2   :     0.006207
      dxy     :     0.015440

  1 C s       :     2.842455  s :     2.842455
      pz      :     0.984891  p :     2.963292
      px      :     0.988766
      py      :     0.989635
      dz2     :     0.022509  d :     0.142487
      dxz     :     0.031258
      dyz     :     0.037022
      dx2y2   :     0.021081
      dxy     :     0.030617

  2 H s       :     0.790630  s :     0.790630
      pz      :     0.012493  p :     0.040654
      px      :     0.008781
      py      :     0.019380

  3 C s       :     2.932301  s :     2.932301
      pz      :     1.123318  p :     3.263956
      px      :     1.030884
      py      :     1.109755
      dz2     :     0.021989  d :     0.074393
      dxz     :     0.010384
      dyz     :     0.006948
      dx2y2   :     0.019535
      dxy     :     0.015538

  4 C s       :     2.908161  s :     2.908161
      pz      :     1.116640  p :     3.236612
      px      :     1.052725
      py      :     1.067247
      dz2     :     0.026128  d :     0.095949
      dxz     :     0.010387
      dyz     :     0.013916
      dx2y2   :     0.020432
      dxy     :     0.025086

  5 C s       :     2.972456  s :     2.972456
      pz      :     1.155181  p :     3.389742
      px      :     1.109150
      py      :     1.125411
      dz2     :     0.017418  d :     0.063325
      dxz     :     0.006035
      dyz     :     0.010521
      dx2y2   :     0.015138
      dxy     :     0.014214

  6 C s       :     2.971069  s :     2.971069
      pz      :     1.143898  p :     3.391181
      px      :     1.151978
      py      :     1.095305
      dz2     :     0.020466  d :     0.063263
      dxz     :     0.004514
      dyz     :     0.009190
      dx2y2   :     0.009873
      dxy     :     0.019219

  7 O s       :     3.515589  s :     3.515589
      pz      :     1.680798  p :     4.854274
      px      :     1.503168
      py      :     1.670308
      dz2     :     0.050389  d :     0.290240
      dxz     :     0.063250
      dyz     :     0.058039
      dx2y2   :     0.057494
      dxy     :     0.061069

  8 H s       :     0.791682  s :     0.791682
      pz      :     0.016205  p :     0.044639
      px      :     0.012834
      py      :     0.015600

  9 H s       :     0.794683  s :     0.794683
      pz      :     0.013098  p :     0.043833
      px      :     0.010063
      py      :     0.020671

 10 H s       :     0.798881  s :     0.798881
      pz      :     0.010410  p :     0.043761
      px      :     0.020692
      py      :     0.012658

 11 H s       :     0.776122  s :     0.776122
      pz      :     0.010314  p :     0.043784
      px      :     0.007649
      py      :     0.025821

 12 H s       :     0.787632  s :     0.787632
      pz      :     0.028158  p :     0.044521
      px      :     0.008018
      py      :     0.008345

 13 H s       :     0.799045  s :     0.799045
      pz      :     0.026693  p :     0.043112
      px      :     0.007896
      py      :     0.008524

 14 H s       :     0.800883  s :     0.800883
      pz      :     0.012350  p :     0.043862
      px      :     0.008427
      py      :     0.023085

 15 H s       :     0.800813  s :     0.800813
      pz      :     0.009957  p :     0.043969
      px      :     0.023012
      py      :     0.011001

 16 H s       :     0.799572  s :     0.799572
      pz      :     0.026996  p :     0.043981
      px      :     0.008242
      py      :     0.008744

 17 H s       :     0.799820  s :     0.799820
      pz      :     0.008937  p :     0.044531
      px      :     0.019158
      py      :     0.016437

 18 H s       :     0.800372  s :     0.800372
      pz      :     0.010306  p :     0.044004
      px      :     0.022304
      py      :     0.011394

 19 H s       :     0.799712  s :     0.799712
      pz      :     0.027362  p :     0.043896
      px      :     0.008266
      py      :     0.008268

 20 H s       :     0.590963  s :     0.590963
      pz      :     0.032639  p :     0.123774
      px      :     0.057670
      py      :     0.033466


---------------------------------
LOEWDIN BOND ORDERS (THRESH 0.050000)
---------------------------------
B(  0-C ,  1-C ) :   1.0566 B(  0-C ,  3-C ) :   0.0765 B(  0-C ,  7-O ) :   0.1690 
B(  0-C ,  8-H ) :   0.9141 B(  0-C ,  9-H ) :   0.9182 B(  0-C , 10-H ) :   0.9201 
B(  1-C ,  2-H ) :   0.7985 B(  1-C ,  3-C ) :   0.9908 B(  1-C ,  4-C ) :   0.0731 
B(  1-C ,  7-O ) :   1.3964 B(  2-H ,  7-O ) :   0.0989 B(  3-C ,  4-C ) :   1.0698 
B(  3-C ,  5-C ) :   0.0774 B(  3-C ,  6-C ) :   0.0652 B(  3-C ,  7-O ) :   0.1857 
B(  3-C , 11-H ) :   0.8590 B(  3-C , 12-H ) :   0.8751 B(  4-C ,  5-C ) :   1.1110 
B(  4-C ,  6-C ) :   1.1089 B(  4-C , 13-H ) :   0.8600 B(  5-C ,  6-C ) :   0.0717 
B(  5-C , 14-H ) :   0.9250 B(  5-C , 15-H ) :   0.9230 B(  5-C , 16-H ) :   0.9217 
B(  6-C , 17-H ) :   0.9193 B(  6-C , 18-H ) :   0.9238 B(  6-C , 19-H ) :   0.9224 
B(  7-O , 20-H ) :   0.9587 

------------------------------------------
LOEWDIN REDUCED ORBITAL POPULATIONS PER MO
-------------------------------------------
THRESHOLD FOR PRINTING IS 0.1%%
                      0         1         2         3         4         5   
                 -18.94701 -10.07438 -10.02568 -10.01282 -10.00931 -10.00611
                   2.00000   2.00000   2.00000   2.00000   2.00000   2.00000
                  --------  --------  --------  --------  --------  --------
 0 C  s               0.0       0.0       0.0       0.0      99.7       0.0
 1 C  s               0.0      99.4       0.0       0.0       0.0       0.0
 3 C  s               0.0       0.0       0.0      99.7       0.0       0.0
 4 C  s               0.0       0.0      99.6       0.0       0.0       0.0
 6 C  s               0.0       0.0       0.0       0.0       0.0      99.7
 7 O  s              99.9       0.0       0.0       0.0       0.0       0.0
 7 O  dyz             0.0       0.1       0.0       0.0       0.0       0.0

                      6         7         8         9        10        11   
                 -10.00594  -0.98340  -0.77122  -0.71283  -0.64392  -0.64073
                   2.00000   2.00000   2.00000   2.00000   2.00000   2.00000
                  --------  --------  --------  --------  --------  --------
 0 C  s               0.0       0.8       1.7      20.0      11.7       6.8
 0 C  pz              0.0       1.1       0.1       0.4       0.1       0.0
 0 C  px              0.0       0.2       0.5       0.7       0.3       0.2
 0 C  py              0.0       0.3       0.1       0.1       0.2       0.0
 1 C  s               0.0       9.4       4.3      13.5       0.1       0.0
 1 C  pz              0.0       3.0       1.2       4.6       0.6       0.4
 1 C  px              0.0       2.2       2.3       0.1       5.6       3.2
 1 C  py              0.0       3.2       0.0       0.7       2.7       0.7
 1 C  dxz             0.0       0.2       0.0       0.1       0.1       0.1
 1 C  dyz             0.0       0.3       0.0       0.0       0.0       0.0
 1 C  dxy             0.0       0.2       0.1       0.1       0.0       0.0
 2 H  s               0.0       0.6       0.6       2.1       0.0       0.0
 2 H  py              0.0       0.0       0.0       0.1       0.0       0.0
 3 C  s               0.0       0.8      15.8       2.9      12.2       3.4
 3 C  pz              0.0       0.4       0.2       0.0       0.1       0.0
 3 C  px              0.0       1.1       1.3       5.5       0.0       0.1
 3 C  py              0.0       0.1       0.9       0.2       1.0       0.2
 4 C  s               0.0       0.1      24.4       4.3       0.0       0.0
 4 C  pz              0.0       0.0       0.8       0.1       0.2       0.2
 4 C  px              0.0       0.1       0.1       3.2       2.7       6.3
 4 C  py              0.0       0.0       0.0       0.1       8.3       6.7
 4 C  dyz             0.0       0.0       0.0       0.0       0.1       0.1
 4 C  dx2y2           0.0       0.0       0.0       0.0       0.1       0.0
 4 C  dxy             0.0       0.0       0.0       0.0       0.0       0.2
 5 C  s              99.7       0.0       9.5       5.9       0.3      25.8
 5 C  px              0.0       0.0       1.9       0.1       0.2       0.4
 5 C  py              0.0       0.0       1.1       0.4       0.5       0.5
 6 C  s               0.0       0.0       9.7       4.2      19.1       9.2
 6 C  pz              0.0       0.0       0.4       0.1       0.0       0.0
 6 C  px              0.0       0.0       0.1       0.1       0.1       0.3
 6 C  py              0.0       0.0       2.5       0.4       0.5       0.5
 7 O  s               0.0      60.5       1.3       3.4       0.0       0.0
 7 O  pz              0.0       0.3       0.5       2.4       0.1       0.0
 7 O  px              0.0       0.1       0.7       1.9       1.2       0.4
 7 O  py              0.0       1.9       0.1       0.7       0.1       0.0
 7 O  dz2             0.0       0.0       0.0       0.1       0.0       0.0
 7 O  dxz             0.0       0.1       0.2       0.2       0.3       0.1
 7 O  dyz             0.0       0.1       0.1       0.9       0.1       0.0
 7 O  dx2y2           0.0       0.0       0.0       0.0       0.2       0.1
 7 O  dxy             0.0       0.0       0.1       0.2       0.0       0.0
 8 H  s               0.0       0.0       0.3       3.6       2.8       1.5
 8 H  pz              0.0       0.0       0.0       0.1       0.1       0.0
 8 H  py              0.0       0.0       0.0       0.1       0.1       0.0
 9 H  s               0.0       0.0       0.2       3.3       2.6       1.6
 9 H  py              0.0       0.0       0.0       0.2       0.2       0.1
10 H  s               0.0       0.0       0.2       3.2       3.1       1.8
10 H  px              0.0       0.0       0.0       0.2       0.2       0.1
11 H  s               0.0       0.1       2.0       0.4       3.6       0.6
11 H  py              0.0       0.0       0.2       0.0       0.3       0.1
12 H  s               0.0       0.0       2.1       0.6       2.2       0.7
12 H  pz              0.0       0.0       0.2       0.1       0.2       0.1
13 H  s               0.0       0.0       3.0       0.6       0.0       0.0
13 H  pz              0.0       0.0       0.3       0.1       0.0       0.0
14 H  s               0.0       0.0       1.2       0.9       0.2       6.4
14 H  pz              0.0       0.0       0.0       0.0       0.0       0.1
14 H  py              0.0       0.0       0.1       0.1       0.0       0.4
15 H  s               0.0       0.0       1.2       1.0       0.0       6.2
15 H  px              0.0       0.0       0.1       0.1       0.0       0.4
16 H  s               0.0       0.0       1.2       0.9       0.1       5.9
16 H  pz              0.0       0.0       0.1       0.1       0.0       0.5
17 H  s               0.0       0.0       1.2       0.6       4.5       2.6
17 H  px              0.0       0.0       0.1       0.0       0.2       0.1
17 H  py              0.0       0.0       0.0       0.0       0.1       0.1
18 H  s               0.0       0.0       1.2       0.8       4.8       1.9
18 H  px              0.0       0.0       0.1       0.0       0.3       0.1
19 H  s               0.0       0.0       1.2       0.7       4.3       2.0
19 H  pz              0.0       0.0       0.1       0.1       0.4       0.2
20 H  s               0.0      10.2       0.5       1.5       0.3       0.1
20 H  pz              0.0       0.3       0.0       0.0       0.0       0.0
20 H  px              0.0       1.7       0.1       0.2       0.0       0.0
20 H  py              0.0       0.3       0.0       0.1       0.0       0.0

                     12        13        14        15        16        17   
                  -0.55708  -0.52020  -0.47299  -0.42165  -0.41340  -0.39850
                   2.00000   2.00000   2.00000   2.00000   2.00000   2.00000
                  --------  --------  --------  --------  --------  --------
 0 C  s               4.8       0.0       0.8       0.1       0.3       0.2
 0 C  pz              3.1       0.9       2.7       2.7       0.1      13.3
 0 C  px              1.5       0.0       3.5       0.2       8.1       1.8
 0 C  py              0.2       0.4       1.4       1.1       8.6       2.8
 0 C  dxz             0.1       0.0       0.0       0.0       0.1       0.1
 1 C  s              10.1       1.0       1.7       0.3       0.4       0.2
 1 C  pz              3.1       2.7       0.4       0.1      12.7       0.4
 1 C  px              0.2       0.1       1.8       6.2       0.1       8.2
 1 C  py              0.2       3.6      19.2       0.1       1.6       0.2
 1 C  dyz             0.0       0.0       0.3       0.0       0.0       0.1
 2 H  s               4.3       2.7       7.5       0.2       1.6       0.0
 2 H  pz              0.1       0.0       0.2       0.0       0.0       0.0
 2 H  py              0.3       0.1       0.1       0.0       0.1       0.0
 3 C  s               3.2       4.3       0.2       0.2       0.0       0.4
 3 C  pz              1.1       5.9       1.7       5.5       3.4       0.1
 3 C  px              5.3       1.9       0.1       2.6       7.7       0.1
 3 C  py              0.5       3.8       4.3       0.4       2.2       9.2
 3 C  dxz             0.1       0.0       0.0       0.0       0.0       0.0
 3 C  dxy             0.1       0.0       0.0       0.0       0.1       0.0
 4 C  s               3.2      10.9       0.7       1.1       0.2       0.1
 4 C  pz              0.0       8.4       1.6      15.9       1.2       2.5
 4 C  px              2.5       0.1       1.1       0.9       4.1       0.6
 4 C  py              0.6       0.4       0.0       0.1       4.0       2.0
 5 C  s               3.3       1.9       0.3       0.3       0.0       0.1
 5 C  pz              0.1       2.1       0.7       7.3       1.1       3.7
 5 C  px              2.5       2.0       0.4       3.1       3.3       1.4
 5 C  py              0.3       2.2       0.7       4.4       5.3       0.3
 5 C  dxy             0.0       0.1       0.0       0.1       0.0       0.0
 6 C  s               1.4       3.1       0.0       0.3       0.2       0.2
 6 C  pz              0.1       4.4       0.4       3.4       3.5       0.4
 6 C  px              0.3       0.3       1.0       0.1       1.5       3.6
 6 C  py              1.1       3.2       0.0      12.0       1.6       3.7
 6 C  dyz             0.0       0.1       0.0       0.0       0.1       0.0
 6 C  dx2y2           0.0       0.1       0.0       0.1       0.0       0.0
 7 O  s               0.8       0.3       0.9       0.3       0.0       3.3
 7 O  pz              6.0       0.0      10.1       4.7       0.3       2.8
 7 O  px             12.8       0.2      16.9       0.3       4.5       8.3
 7 O  py              2.0       1.6       2.9       2.9       1.5       8.0
 7 O  dz2             0.0       0.1       0.4       0.1       0.5       0.0
 7 O  dxz             0.1       0.1       0.1       0.2       0.1       0.0
 7 O  dyz             0.3       0.1       0.1       0.1       0.0       0.1
 7 O  dx2y2           0.2       0.2       0.1       0.3       0.1       0.0
 7 O  dxy             0.9       0.2       0.1       0.0       0.0       0.4
 8 H  s               2.3       0.1       0.0       1.7       0.3       7.4
 9 H  s               2.4       0.2       3.0       0.0       0.3       0.1
 9 H  py              0.1       0.0       0.1       0.0       0.0       0.0
10 H  s               2.1       0.0       0.4       0.0       6.4       0.6
10 H  px              0.1       0.0       0.0       0.0       0.1       0.0
11 H  s               0.9       3.0       1.1       1.7       1.6       3.8
11 H  py              0.1       0.1       0.0       0.1       0.0       0.1
12 H  s               2.0       5.1       0.7       1.0       1.0       0.2
12 H  pz              0.1       0.3       0.0       0.0       0.0       0.0
13 H  s               0.8       9.3       1.1       2.9       0.9       0.4
13 H  pz              0.1       0.6       0.1       0.1       0.0       0.0
14 H  s               1.1       1.0       0.2       4.0       1.2       0.7
14 H  py              0.0       0.0       0.0       0.1       0.0       0.0
15 H  s               1.9       0.9       0.1       1.5       2.7       0.2
16 H  s               1.3       2.4       0.6       0.9       0.6       1.7
16 H  pz              0.1       0.1       0.0       0.0       0.0       0.0
17 H  s               0.6       1.3       0.2       4.1       1.2       0.0
17 H  px              0.0       0.1       0.0       0.1       0.0       0.0
18 H  s               0.9       1.6       0.3       1.8       0.2       3.3
19 H  s               0.5       3.3       0.0       1.0       1.5       0.0
19 H  pz              0.0       0.2       0.0       0.0       0.0       0.0
20 H  s               4.3       0.0       6.9       0.3       0.5       1.2
20 H  pz              0.0       0.0       0.0       0.0       0.0       0.1
20 H  px              0.2       0.0       0.2       0.0       0.0       0.0
20 H  py              0.3       0.0       0.1       0.1       0.1       0.0

                     18        19        20        21        22        23   
                  -0.38124  -0.36029  -0.34697  -0.34361  -0.33710  -0.31857
                   2.00000   2.00000   2.00000   2.00000   2.00000   2.00000
                  --------  --------  --------  --------  --------  --------
 0 C  pz              0.1       1.2       2.5       0.0      17.4       1.9
 0 C  px              0.0      19.5       2.6       2.4       0.2       7.2
 0 C  py             10.9       0.1      18.1       0.1       3.6       0.1
 0 C  dyz             0.0       0.1       0.2       0.0       0.0       0.1
 0 C  dx2y2           0.0       0.0       0.0       0.0       0.1       0.0
 0 C  dxy             0.0       0.1       0.0       0.0       0.2       0.1
 1 C  s               0.1       0.3       0.3       0.0       0.1       0.0
 1 C  pz              1.8       1.9       0.3       0.3       9.6       0.0
 1 C  px              1.3       0.3       5.0       0.2       0.2       2.1
 1 C  py              1.4       0.2       0.2       0.1       0.2       0.2
 1 C  dz2             0.0       0.1       0.0       0.0       0.3       0.0
 1 C  dxz             0.0       0.0       0.1       0.0       0.2       0.0
 1 C  dyz             0.0       0.1       0.3       0.0       0.0       0.0
 1 C  dxy             0.1       0.0       0.0       0.0       0.2       0.0
 2 H  s               1.4       0.0       0.9       0.0       1.0       0.3
 3 C  s               0.5       1.0       0.0       0.1       0.0       0.0
 3 C  pz              0.1       0.1      13.5       0.0       8.5       4.7
 3 C  px              0.7       0.1       0.4       0.0       0.8       0.1
 3 C  py              4.9       0.0       0.4       0.7       0.0       8.0
 3 C  dz2             0.0       0.0       0.1       0.0       0.2       0.1
 4 C  s               0.1       0.1       0.0       0.0       0.0       0.0
 4 C  pz              0.0       0.1       0.0       0.0       0.0       0.7
 4 C  px              5.9       1.7       0.5       0.0       0.2       0.0
 4 C  py              0.1       7.4       0.7       0.2       0.0       0.4
 4 C  dyz             0.0       0.0       0.0       0.1       0.0       0.0
 4 C  dx2y2           0.0       0.0       0.1       0.1       0.0       0.0
 5 C  s               0.1       0.1       0.0       0.0       0.0       0.0
 5 C  pz              0.0       3.5       4.3      23.3       1.6       3.1
 5 C  px              0.4      17.2       0.2       5.7       0.1       1.9
 5 C  py             11.9       1.6       0.0       1.7       0.1       8.3
 5 C  dz2             0.0       0.0       0.0       0.3       0.0       0.0
 5 C  dyz             0.0       0.0       0.0       0.0       0.0       0.1
 5 C  dx2y2           0.0       0.0       0.0       0.0       0.0       0.2
 6 C  pz              0.0       7.9       3.7      20.9       2.1       1.4
 6 C  px             21.9       2.1       5.5       1.4       0.3       8.1
 6 C  py              0.8       0.1       0.1       2.2       0.6       0.7
 6 C  dz2             0.0       0.1       0.1       0.3       0.0       0.0
 6 C  dxy             0.1       0.0       0.0       0.0       0.0       0.2
 7 O  s               0.0       0.3       0.6       0.0       0.7       1.1
 7 O  pz              4.3       0.0       3.1       0.1       1.3       1.9
 7 O  px              0.9       0.0       1.7       0.0       2.2       2.2
 7 O  py              0.0       1.2       0.1       0.4      24.8       7.3
 7 O  dz2             0.3       0.0       0.0       0.0       0.1       0.0
 7 O  dxz             0.1       0.0       0.1       0.0       0.1       0.1
 7 O  dyz             0.1       0.0       0.0       0.0       0.2       0.1
 7 O  dx2y2           0.0       0.0       0.3       0.0       0.1       0.1
 7 O  dxy             0.0       0.0       0.1       0.0       0.1       0.2
 8 H  s               2.2       4.4       3.0       0.5       1.2       4.0
 8 H  pz              0.1       0.1       0.1       0.0       0.1       0.0
 8 H  py              0.0       0.1       0.0       0.0       0.1       0.0
 9 H  s               2.3       0.6      12.2       0.2       6.5       0.1
 9 H  py              0.0       0.0       0.1       0.0       0.1       0.0
10 H  s               1.2       7.1       0.9       0.7       3.8       4.0
10 H  px              0.1       0.0       0.1       0.0       0.1       0.0
10 H  py              0.0       0.1       0.1       0.0       0.0       0.1
11 H  s               3.2       0.1       0.1       0.1       0.6       5.5
11 H  py              0.1       0.0       0.0       0.0       0.0       0.1
12 H  s               0.1       0.5       6.5       0.1       5.6       2.7
12 H  pz              0.0       0.0       0.1       0.0       0.1       0.1
13 H  s               0.2       0.0       0.0       0.0       0.0       0.3
14 H  s               4.7       2.9       0.4       0.4       0.3       7.3
14 H  pz              0.1       0.0       0.0       0.1       0.0       0.0
15 H  s               1.2       6.5       0.5       8.0       0.0       2.0
15 H  pz              0.0       0.1       0.0       0.0       0.0       0.1
15 H  px              0.0       0.0       0.0       0.2       0.0       0.0
16 H  s               0.3       1.8       1.9      11.8       0.8       1.1
16 H  pz              0.0       0.0       0.0       0.2       0.0       0.0
16 H  px              0.0       0.1       0.0       0.1       0.0       0.0
17 H  s               6.7       0.7       2.5       0.5       0.0       3.7
17 H  pz              0.0       0.0       0.0       0.1       0.0       0.0
17 H  py              0.2       0.0       0.0       0.0       0.0       0.0
18 H  s               5.5       0.1       0.6       4.7       0.9       4.2
18 H  px              0.0       0.0       0.0       0.2       0.0       0.0
18 H  py              0.1       0.0       0.0       0.0       0.0       0.1
19 H  s               0.0       4.1       2.4      10.5       1.2       0.4
19 H  pz              0.0       0.1       0.0       0.2       0.0       0.0
19 H  px              0.1       0.0       0.0       0.0       0.0       0.1
20 H  s               0.0       0.1       1.0       0.0       0.1       0.5
20 H  px              0.0       0.0       0.0       0.0       0.1       0.0
20 H  py              0.0       0.0       0.0       0.0       0.3       0.0

                     24        25        26        27        28        29   
                  -0.30431  -0.28642  -0.28409  -0.27030  -0.23630   0.07785
                   2.00000   2.00000   2.00000   2.00000   2.00000   0.00000
                  --------  --------  --------  --------  --------  --------
 0 C  s               0.0       0.0       0.0       0.3       1.3       6.3
 0 C  pz              0.7       0.1       0.3       0.3       6.0       1.8
 0 C  px              0.3       0.0       0.2       4.4       2.3       1.3
 0 C  py              5.8       0.0       0.1       2.8       0.6       0.9
 0 C  dz2             0.0       0.0       0.0       0.1       0.0       0.0
 0 C  dxz             0.1       0.0       0.0       0.1       0.0       0.8
 0 C  dyz             0.2       0.0       0.0       0.0       0.0       0.1
 0 C  dx2y2           0.0       0.0       0.0       0.0       0.0       0.1
 0 C  dxy             0.0       0.0       0.0       0.1       0.1       0.0
 1 C  s               0.3       0.0       0.1       0.3       0.1       3.9
 1 C  pz              0.2       0.1       0.2       0.2       5.2      10.2
 1 C  px              0.0       0.0       0.3       7.8       2.1       4.3
 1 C  py              5.3       0.1       0.4       7.7       1.4       5.9
 1 C  dz2             0.0       0.0       0.1       0.0       0.6       0.0
 1 C  dxz             0.3       0.0       0.0       0.4       0.0       0.6
 1 C  dyz             0.1       0.1       0.0       0.0       0.5       0.6
 1 C  dx2y2           0.2       0.0       0.1       0.1       0.2       0.0
 1 C  dxy             0.0       0.0       0.0       0.1       0.6       0.2
 2 H  s               4.6       0.4       0.3       1.7       9.1       1.6
 2 H  pz              0.1       0.0       0.0       0.0       0.0       1.3
 2 H  px              0.0       0.0       0.0       0.1       0.0       0.0
 2 H  py              0.0       0.0       0.0       0.0       0.0       0.2
 3 C  s               0.5       0.3       0.7       0.1       0.1       1.6
 3 C  pz              1.0       0.4       8.5       0.1       0.9       0.6
 3 C  px              0.1       5.5       2.1      15.9       0.1       2.3
 3 C  py              3.4      10.6       1.4       2.8       0.2       0.1
 3 C  dz2             0.0       0.1       0.4       0.0       0.0       0.2
 3 C  dxz             0.0       0.1       0.0       0.1       0.0       0.0
 3 C  dx2y2           0.0       0.3       0.0       0.1       0.0       0.3
 3 C  dxy             0.0       0.0       0.0       0.2       0.0       0.3
 4 C  s               0.0       0.0       0.4       0.0       0.1       0.2
 4 C  pz              1.1       1.3      21.5       0.1       0.1       1.5
 4 C  px              7.1       4.1       0.5      10.0       0.7       1.2
 4 C  py              2.9      17.0       0.9       1.3       0.1       0.3
 4 C  dz2             0.1       0.0       1.1       0.0       0.0       0.0
 4 C  dyz             0.0       0.3       0.0       0.0       0.0       0.0
 4 C  dx2y2           0.0       0.5       0.0       0.0       0.0       0.0
 4 C  dxy             0.2       0.0       0.0       0.5       0.0       0.0
 5 C  s               0.3       0.0       0.2       0.8       0.0       0.0
 5 C  pz              0.6       0.4       5.8       0.0       0.0       0.0
 5 C  px              3.5       0.5       0.1      10.2       0.2       0.0
 5 C  py              8.3       6.1       0.7       2.1       0.0       0.2
 5 C  dz2             0.0       0.0       0.3       0.0       0.0       0.0
 5 C  dx2y2           0.0       0.4       0.0       0.0       0.0       0.0
 5 C  dxy             0.1       0.0       0.0       0.1       0.0       0.0
 6 C  s               0.0       1.0       0.3       0.0       0.1       1.0
 6 C  pz              0.4       1.2       6.6       0.0       0.0       0.1
 6 C  px              6.4       2.3       0.1       1.9       0.1       0.4
 6 C  py              2.3      20.9       0.2       1.3       0.0       0.2
 6 C  dz2             0.1       0.0       0.5       0.0       0.0       0.0
 6 C  dyz             0.0       0.1       0.0       0.0       0.0       0.1
 6 C  dx2y2           0.0       0.1       0.0       0.0       0.0       0.0
 6 C  dxy             0.3       0.0       0.0       0.2       0.0       0.0
 7 O  s               1.0       0.3       0.1       0.9       0.0       8.1
 7 O  pz              5.5       1.5       1.9       0.1      37.3       1.2
 7 O  px              2.4       0.1       1.6       0.9      15.8       1.7
 7 O  py             11.9       0.5       0.1       6.7       8.7       2.3
 7 O  dz2             0.0       0.0       0.0       0.0       0.8       0.1
 7 O  dxz             0.1       0.2       0.1       0.8       0.0       0.2
 7 O  dyz             0.0       0.1       0.0       0.1       0.2       1.3
 7 O  dx2y2           0.4       0.0       0.1       0.8       0.0       0.5
 7 O  dxy             0.1       0.1       0.0       0.0       0.4       1.1
 8 H  s               3.4       0.0       0.4       0.0       0.6       3.5
 8 H  pz              0.0       0.0       0.0       0.0       0.1       0.3
 8 H  px              0.0       0.0       0.0       0.0       0.0       0.4
 8 H  py              0.0       0.0       0.0       0.0       0.0       0.1
 9 H  s               2.7       0.1       0.0       0.7       0.6       0.5
 9 H  py              0.0       0.0       0.0       0.0       0.0       0.4
10 H  s               0.1       0.1       0.2       3.9       0.0       1.3
10 H  pz              0.0       0.0       0.0       0.0       0.1       0.8
10 H  px              0.0       0.0       0.0       0.0       0.0       0.1
11 H  s               0.8       7.8       0.0       1.8       0.0       0.6
11 H  px              0.0       0.0       0.0       0.1       0.0       0.1
12 H  s               0.1       0.7       6.7       0.0       0.6       2.1
12 H  pz              0.0       0.0       0.0       0.0       0.0       0.4
12 H  px              0.0       0.1       0.0       0.2       0.0       0.0
[...]
 1 C  dz2             0.4       0.0       0.0       0.0       0.0       0.0
 1 C  dxz             0.0       3.8       0.2       0.0       0.0       0.0
 1 C  dyz             2.5       7.4       0.7       0.0       0.0       0.0
 1 C  dx2y2           1.5       0.0       0.1       0.0       0.0       0.0
 1 C  dxy             2.0       2.0       0.6       0.0       0.0       0.0
 2 H  s               2.4       0.9       0.0       0.0       0.0       0.0
 2 H  pz              1.2       1.2       0.0       0.0       0.0       0.0
 2 H  px              0.4       0.0       0.0       0.0       0.0       0.0
 2 H  py              4.3       0.4       0.0       0.0       0.0       0.0
 3 C  s               0.4       0.0       0.0       9.8       0.2       0.4
 3 C  pz              6.5       0.1       0.0       0.0       0.0       0.0
 3 C  px              2.3       0.0       0.0       0.0       0.0       0.0
 3 C  py              0.4       0.6       0.1       0.0       0.0       0.0
 3 C  dz2            12.1       0.0       0.0       0.0       0.0       0.0
 3 C  dxz             0.3       0.1       0.0       0.0       0.0       0.0
 3 C  dyz             0.2       0.3       0.0       0.0       0.0       0.0
 3 C  dx2y2           0.3       0.2       0.0       0.0       0.0       0.0
 3 C  dxy             1.2       0.2       0.0       0.0       0.0       0.0
 4 C  s               0.7       0.0       0.0       2.3       1.3       0.5
 4 C  pz              1.8       0.0       0.0       0.0       0.0       0.0
 4 C  px              0.4       0.0       0.0       0.0       0.0       0.0
 4 C  py              1.2       0.0       0.0       0.0       0.0       0.0
 4 C  dz2             6.6       0.1       0.0       0.0       0.0       0.0
 4 C  dxz             0.5       0.0       0.0       0.0       0.0       0.0
 4 C  dx2y2           0.5       0.0       0.0       0.0       0.0       0.0
 4 C  dxy             0.1       0.0       0.0       0.0       0.0       0.0
 5 C  s               0.0       0.0       0.0      17.1      44.1      34.8
 5 C  pz              0.2       0.0       0.0       0.0       0.0       0.0
 5 C  py              0.4       0.0       0.0       0.0       0.0       0.0
 5 C  dz2             0.7       0.0       0.0       0.0       0.0       0.0
 5 C  dx2y2           0.4       0.0       0.0       0.0       0.0       0.0
 6 C  s               0.0       0.0       0.0      42.3       2.3      46.2
 6 C  px              0.2       0.0       0.0       0.0       0.0       0.0
 6 C  dz2             0.2       0.0       0.0       0.0       0.0       0.0
 6 C  dxy             0.1       0.0       0.0       0.0       0.0       0.0
 7 O  s               0.8      26.6       6.6       0.0       0.0       0.0
 7 O  pz              0.0       6.8       3.9       0.0       0.0       0.0
 7 O  px              0.1       1.8      15.2       0.0       0.0       0.0
 7 O  py              0.0       9.9       0.9       0.0       0.0       0.0
 7 O  dz2             0.0       0.1       4.0       0.0       0.0       0.0
 7 O  dxz             0.1      11.6       4.6       0.0       0.0       0.0
 7 O  dyz             0.2       9.2       5.1       0.0       0.0       0.0
 7 O  dx2y2           0.1       0.0       7.0       0.0       0.0       0.0
 7 O  dxy             0.0       1.1      18.9       0.0       0.0       0.0
 8 H  s               0.0       0.1       0.0       0.0       0.0       0.0
 8 H  py              0.0       0.1       0.0       0.0       0.0       0.0
 9 H  s               0.7       0.0       0.0       0.0       0.0       0.0
 9 H  pz              0.7       0.0       0.0       0.0       0.0       0.0
 9 H  px              0.4       0.0       0.0       0.0       0.0       0.0
 9 H  py              0.9       0.0       0.0       0.0       0.0       0.0
11 H  s               1.6       0.3       0.0       0.0       0.0       0.0
11 H  px              0.5       0.0       0.0       0.0       0.0       0.0
11 H  py              2.7       0.4       0.0       0.0       0.0       0.0
12 H  s               5.5       0.0       0.0       0.0       0.0       0.0
12 H  pz             13.1       0.0       0.0       0.0       0.0       0.0
13 H  s               2.1       0.0       0.0       0.0       0.0       0.0
13 H  pz              5.2       0.1       0.0       0.0       0.0       0.0
14 H  py              0.1       0.0       0.0       0.0       0.0       0.0
15 H  s               0.2       0.0       0.0       0.0       0.0       0.0
15 H  px              0.4       0.0       0.0       0.0       0.0       0.0
16 H  s               0.2       0.0       0.0       0.0       0.0       0.0
16 H  pz              0.6       0.0       0.0       0.0       0.0       0.0
17 H  s               0.2       0.0       0.0       0.0       0.0       0.0
17 H  py              0.5       0.0       0.0       0.0       0.0       0.0
20 H  s               0.0       0.6      14.0       0.0       0.0       0.0
20 H  pz              0.0       0.2       1.9       0.0       0.0       0.0
20 H  px              0.0       0.7      11.5       0.0       0.0       0.0
20 H  py              0.1       0.1       3.1       0.0       0.0       0.0

                    204       205       206       207   
                  22.05365  22.08141  22.16408  43.68921
                   0.00000   0.00000   0.00000   0.00000
                  --------  --------  --------  --------
 0 C  s               1.9       4.2       0.0       0.0
 1 C  s              49.3       0.3      45.8       0.1
 3 C  s              11.4      65.7      12.2       0.0
 4 C  s              28.2      28.7      38.8       0.0
 5 C  s               0.5       0.5       2.5       0.0
 6 C  s               8.3       0.3       0.3       0.0
 7 O  s               0.0       0.0       0.0      99.8


                      *****************************
                      * MAYER POPULATION ANALYSIS *
                      *****************************

  NA   - Mulliken gross atomic population
  ZA   - Total nuclear charge
  QA   - Mulliken gross atomic charge
  VA   - Mayer's total valence
  BVA  - Mayer's bonded valence
  FA   - Mayer's free valence

  ATOM       NA         ZA         QA         VA         BVA        FA
  0 C      6.5426     6.0000    -0.5426     3.8535     3.8535    -0.0000
  1 C      5.9403     6.0000     0.0597     3.6418     3.6418    -0.0000
  2 H      0.8547     1.0000     0.1453     0.9489     0.9489    -0.0000
  3 C      6.3043     6.0000    -0.3043     3.5352     3.5352    -0.0000
  4 C      6.0251     6.0000    -0.0251     3.5649     3.5649    -0.0000
  5 C      6.5255     6.0000    -0.5255     3.7285     3.7285     0.0000
  6 C      6.5462     6.0000    -0.5462     3.7657     3.7657    -0.0000
  7 O      8.5190     8.0000    -0.5190     1.7659     1.7659     0.0000
  8 H      0.8353     1.0000     0.1647     0.9584     0.9584    -0.0000
  9 H      0.8351     1.0000     0.1649     0.9587     0.9587    -0.0000
 10 H      0.8399     1.0000     0.1601     0.9575     0.9575    -0.0000
 11 H      0.8401     1.0000     0.1599     0.9641     0.9641    -0.0000
 12 H      0.8333     1.0000     0.1667     0.9615     0.9615     0.0000
 13 H      0.8481     1.0000     0.1519     0.9570     0.9570    -0.0000
 14 H      0.8426     1.0000     0.1574     0.9615     0.9615     0.0000
 15 H      0.8418     1.0000     0.1582     0.9600     0.9600    -0.0000
 16 H      0.8429     1.0000     0.1571     0.9635     0.9635     0.0000
 17 H      0.8420     1.0000     0.1580     0.9612     0.9612     0.0000
 18 H      0.8425     1.0000     0.1575     0.9604     0.9604     0.0000
 19 H      0.8364     1.0000     0.1636     0.9620     0.9620    -0.0000
 20 H      0.6622     1.0000     0.3378     0.8902     0.8902     0.0000

  Mayer bond orders larger than 0.100000
B(  0-C ,  1-C ) :   0.9145 B(  0-C ,  8-H ) :   0.9654 B(  0-C ,  9-H ) :   0.9787 
B(  0-C , 10-H ) :   0.9689 B(  1-C ,  2-H ) :   0.9702 B(  1-C ,  3-C ) :   0.8704 
B(  1-C ,  7-O ) :   0.8930 B(  3-C ,  4-C ) :   0.8959 B(  3-C , 11-H ) :   0.9642 
B(  3-C , 12-H ) :   0.9788 B(  4-C ,  5-C ) :   0.8918 B(  4-C ,  6-C ) :   0.8979 
B(  4-C , 13-H ) :   0.9585 B(  5-C , 14-H ) :   0.9770 B(  5-C , 15-H ) :   0.9743 
B(  5-C , 16-H ) :   0.9809 B(  6-C , 17-H ) :   0.9664 B(  6-C , 18-H ) :   0.9697 
B(  6-C , 19-H ) :   0.9866 B(  7-O , 20-H ) :   0.8781 

-------
TIMINGS
-------

Total SCF time: 0 days 0 hours 0 min 33 sec 

Total time                  ....      33.755 sec
Sum of individual times     ....      33.073 sec  ( 98.0%)

SCF preparation             ....       0.468 sec  (  1.4%)
Fock matrix formation       ....      31.311 sec  ( 92.8%)
  Startup                   ....       0.084 sec  (  0.3% of F)
  Split-RI-J                ....       4.756 sec  ( 15.2% of F)
  XC integration            ....      19.978 sec  ( 63.8% of F)
    XC Preparation          ....       0.000 sec  (  0.0% of XC)
    Basis function eval.    ....       3.869 sec  ( 19.4% of XC)
    Density eval.           ....       5.991 sec  ( 30.0% of XC)
    XC-Functional eval.     ....       2.568 sec  ( 12.9% of XC)
    XC-Potential eval.      ....       6.340 sec  ( 31.7% of XC)
  CPCM terms                ....       5.792 sec  ( 18.5% of F)
Diagonalization             ....       0.000 sec  (  0.0%)
Density matrix formation    ....       0.301 sec  (  0.9%)
Total Energy calculation    ....       0.055 sec  (  0.2%)
Population analysis         ....       0.138 sec  (  0.4%)
Orbital Transformation      ....       0.057 sec  (  0.2%)
Orbital Orthonormalization  ....       0.000 sec  (  0.0%)
DIIS solution               ....       0.688 sec  (  2.0%)
  MO trafo                  ....       0.000 sec  (  0.0 % of DIIS)
  Orb grad                  ....       0.000 sec  (  0.0 % of DIIS)
  Energy W gradient         ....       0.000 sec  (  0.0 % of DIIS)
  DIIS error                ....       0.023 sec  (  3.3 % of DIIS)
  DIIS work                 ....       0.607 sec  ( 88.3 % of DIIS)
  Form Q                    ....       0.000 sec  (  0.0 % of DIIS)
  Form QpQm                 ....       0.000 sec  (  0.0 % of DIIS)
  Exp/Cayley                ....       0.000 sec  (  0.0 % of DIIS)
  Orb update                ....       0.000 sec  (  0.0 % of DIIS)
  Wake-sleep                ....       0.028 sec  (  4.1 % of DIIS)
SOSCF solution              ....       0.055 sec  (  0.2%)
  MO trafo                  ....       0.043 sec  ( 77.7 % of SOSCF)
  Orb grad                  ....       0.001 sec  (  1.0 % of SOSCF)
  Rot update                ....       0.000 sec  (  0.1 % of SOSCF)
  Step                      ....       0.012 sec  ( 20.9 % of SOSCF)
Finished LeanSCF after  33.9 sec

Maximum memory used throughout the entire LEANSCF-calculation: 30.0 MB


-------------------------------------------------------------------------------
                          DFT DISPERSION CORRECTION                            
                                                                               
                                DFTD4 V3.4.0                                   
-------------------------------------------------------------------------------
The R2SCAN3C composite method is recognized
Using three-body term ABC
Active option DFTDOPT                   ...         5   

-------------------------   ----------------
Dispersion correction           -0.005494843
-------------------------   ----------------

------------------   -----------------
gCP correction             0.011097984
------------------   -----------------

-------------------------   --------------------
FINAL SINGLE POINT ENERGY      -312.205297365946
-------------------------   --------------------


------------------------------------------------------------------------------
                              ORCA PROPERTY CALCULATIONS
------------------------------------------------------------------------------

GBWName                                 ... sp_solv.gbw
Number of atoms                         ...     21
Number of basis functions               ...    208
Max core memory                         ...   1024 MB

Electric properties:
Dipole moment                           ... YES
Quadrupole moment                       ...  NO
Static polarizability (Dipole/Dipole)   ...  NO
Static polarizability (Dipole/Quad.)    ...  NO
Static polarizability (Quad./Quad.)     ...  NO
Static polarizability (Velocity)        ...  NO

Atomic electric properties:
Dipole moment                           ...  NO
Quadrupole moment                       ...  NO
Static polarizability                   ...  NO

Choice of electric origin               ... Center of mass
Position of electric origin             ...    -0.000021    -0.000010    -0.000015

General magnetic properties:
Magnetizability                         ...  NO

EPR properties:
g-Tensor (aka g-matrix)                 ...  NO
Zero-Field splitting spin-orbit         ...  NO
Zero-field splitting spin-spin          ...  NO
Hyperfine couplings                     ...  NO (   0 nuclei)
Quadrupole couplings                    ...  NO (   0 nuclei)
Contact density                         ...  NO (   0 nuclei)

NMR properties:
Chemical shifts                         ...  NO (   0 nuclei)
Spin-rotation constants                 ...  NO (   0 nuclei)
Spin-spin couplings                     ...  NO (   0 nuclei,    0 pairs)

Choice of magnetic origin               ... GIAO
Position of magnetic origin             ...     0.000000     0.000000     0.000000

Properties with geometric perturbations:
SCF Hessian                             ...  NO
IR spectrum                             ...  NO
VCD spectrum                            ...  NO
X-ray spectroscopy properties:
SCF XES/XAS/RIXS spectra                ...  NO


-------------
DIPOLE MOMENT
-------------

Method             : SCF
Type of density    : Electron Density
Multiplicity       :   1
Irrep              :   0
Energy             :  -312.2109005071916954 Eh
Relativity type    : 
Basis              : AO
                                X                 Y                 Z
Electronic contribution:      4.015307075       1.699209393       3.093048460
Nuclear contribution   :     -3.771025969      -2.481295678      -3.288807112
                        -----------------------------------------
Total Dipole Moment    :      0.244281106      -0.782086285      -0.195758652
                        -----------------------------------------
Magnitude (a.u.)       :      0.842409441
Magnitude (Debye)      :      2.141234631



--------------------
Rotational spectrum 
--------------------
 
Rotational constants in cm-1:             0.140476             0.047783             0.040875 
Rotational constants in MHz :          4211.377999          1432.500459          1225.406126 

Dipole components along the rotational axes: 
x,y,z [a.u.] :     0.222679    -0.774546     0.245248 
x,y,z [Debye]:     0.566005    -1.968739     0.623370 

 

Dipole moment calculation done in   0.0 sec 

Maximum memory used throughout the entire PROP-calculation: 12.9 MB

--------------------------------
SUGGESTED CITATIONS FOR THIS RUN
--------------------------------

Below you find a list of papers that are relevant to this ORCA run
We neither can nor want to force you to cite these papers, but we appreciate if you do
You receive ORCA, which is the product of decades of hard work by many enthusiastic individuals, for free
The only thing we kindly ask in return is that you cite our papers,
We deeply appreciate it, if you show your appreciation for ORCA by not just citing the generic ORCA reference.

Please note that relegating all ORCA citations to the supporting information does *not* help us.
SI sections are not indexed - citations you put there will not count into any citation statistics
But we need these citations in order to attract the funding resources that allow us to do what we are doing

Therefore, if you are a happy ORCA user, please consider citing a few of the papers listed below in the main body of your paper

In addition to the list printed below, the program has created the file sp_solv.bibtex that contains the list in bibtex format
You can import this file easily into all common literature databanks and citation aid programs


List of essential papers. We consider these as the minimum necessary citations

  1. Neese,F.
     Software update: the ORCA program system, version 5.0
     WIRES Comput. Molec. Sci., 2022 12(1)e1606
     doi.org/10.1002/wcms.1606
  2. Grimme,S.; Hansen,A.; Ehlert,S.; Mewes,J.
     r2SCAN-3c: A 'Swiss army knife' composite electronic-structure method
     J. Chem. Phys., 2021 154 064103
     doi.org/10.1063/5.0040021

List of papers to cite with high priority. The work reported in these papers was absolutely
necessary for this run to complete.
Our perspective: the developers of density functionals and basis sets usually get cited in chemistry papers
Good! But without the algorithms to do something with them, the functionals or basis sets would not do anything.
Hence, in our opinion, the algorithm design and method developments papers are equally worthy of getting cited

  1. Neese,F.
     An improvement of the resolution of the identity approximation for the formation of the Coulomb matrix
     J. Comp. Chem., 2003 24(14)1740-1747
     doi.org/10.1002/jcc.10318
  2. Garcia-Rates,M.; Neese,F.
     Effect of the Solute Cavity on the Solvation Energy and its Derivatives within the Framework of the Gaussian Charge Scheme
     J. Comput. Chem., 2020 41 922-939
     doi.org/10.1002/jcc.26139
  3. Neese,F.
     The SHARK Integral Generation and Digestion System
     J. Comp. Chem., 2022  1-16
     doi.org/10.1002/jcc.26942
  4. Lehtola,S.; Steigemann,C.; Oliveira,M.; Marques,M.
     Recent developments in Libxc - A comprehensive library of functionals for density functional theory
     Software X, 2018 7 
     doi.org/10.1016/j.softx.2017.11.002
  5. Caldeweyher,E.; Bannwarth,C.; Grimme,S.
     Extension of the D3 dispersion coefficient model
     J. Chem. Phys., 2017 147 034112-XXXX
     doi.org/10.1063/1.4993215
  6. Caldeweyher,E.; Ehlert,S.; Hansen,A.; Neugebauer,H.; Spicher,S.; Bannwarth,C.; Grimme,S.
     A generally applicable atomic-charge dependent London dispersion correction
     J. Chem. Phys., 2019 150 154122-XXXX
     doi.org/10.1063/1.5090222
  7. Caldeweyher,E.; Mewes,J.; Ehlert,S.; Grimme,S.
     Extension and evaluation of the D4 London-dispersion model for periodic systems
     Phys. Chem. Chem. Phys., 2020 22(16)8499-8512
     doi.org/10.1039/D0CP00502A

List of suggested additional citations. These are papers that are important in the 'surrounding' of 
of this run, or papers that preceded the highly important papers. If you like your results we are grateful for a citation.

  1. Neese,F.
     The ORCA program system
     WIRES Comput. Molec. Sci., 2012 2(1)73-78
     doi.org/10.1002/wcms.81
  2. Neese,F.
     Software update: the ORCA program system, version 4.0
     WIRES Comput. Molec. Sci., 2018 8(1)1-6
     doi.org/10.1002/wcms.1327
  3. Neese,F.; Wennmohs,F.; Becker,U.; Riplinger,C.
     The ORCA quantum chemistry program package
     J. Chem. Phys., 2020 152 Art. No. L224108
     doi.org/10.1063/5.0004608

List of optional additional citations

  1. Neese,F.
     Approximate second-order SCF convergence for spin unrestricted wavefunctions
     Chem. Phys. Lett., 2000 325(1-3)93-98
     doi.org/10.1016/s0009-2614(00)00662-x

Timings for individual modules:

Sum of individual times          ...       35.799 sec (=   0.597 min)
Startup calculation              ...        1.369 sec (=   0.023 min)   3.8 %
SCF iterations                   ...       34.303 sec (=   0.572 min)  95.8 %
Property calculations            ...        0.127 sec (=   0.002 min)   0.4 %
                             ****ORCA TERMINATED NORMALLY****
TOTAL RUN TIME: 0 days 0 hours 0 minutes 36 seconds 785 msec
