35
 energy: -799.318244903759 gnorm: 0.002797646122 xtb: 6.7.1 (edcfbbe)
C           -0.40780833650228       -2.59499334564119       -0.29381517999118
C            0.44709083665009       -1.38586420646662       -0.07327411808152
C            1.82931186787596       -1.38141561640906       -0.33187746254484
N            2.59912336693041       -0.30752028493081       -0.12547280188777
C            2.00059713120069        0.79999527149107        0.35828647429989
N            0.67498525067707        0.92148358292184        0.58581016635919
C           -0.04130996315446       -0.16351248196764        0.36581243528932
O           -1.39427217699335       -0.02491841327062        0.68619699422225
C           -2.28155645218889       -0.06613572337405       -0.37790252274971
O           -1.89947744397955        0.00243516611282       -1.54191031563539
N           -3.55481768875706       -0.18512508142348        0.04320776149036
C           -4.62553261599488        0.06989034954330       -0.92160725077601
C           -3.91687707289966       -0.05942730153970        1.45741451218506
N            2.79665986148567        1.87465525001384        0.66780319409762
C            2.15710772784607        3.17815540098661        0.84816296605363
C            4.14029274167515        1.92820089133336        0.08933473850500
C            2.49625322593463       -2.61242932601696       -0.85611207401619
H           -0.61623015577482       -2.74846630296910       -1.35945010687160
H            0.09125421353124       -3.49614261193014        0.07335947929840
H           -1.36444827502524       -2.51052801248603        0.22583366026394
H           -4.92347292722034        1.12536326680981       -0.90596864199828
H           -5.48977303125679       -0.54482434753816       -0.66085720736448
H           -4.29368198724283       -0.19390904427927       -1.92513902139346
H           -3.24621158011916       -0.64839675975032        2.08194455933838
H           -4.93012686382464       -0.44436474175851        1.58204693964507
H           -3.89406428013631        0.98579602228388        1.78570534476599
H            2.90716184978569        3.88072037339324        1.21466983351928
H            1.35453399924037        3.11765126982992        1.58328607785505
H            1.74349231994668        3.56480596596849       -0.09399283056997
H            4.11165608479053        2.07257861694082       -0.99976723454287
H            4.69314243270187        1.01454717942306        0.30547258008967
H            4.67352338735841        2.76694283814951        0.53924119455437
H            3.53772385760848       -2.41024842125645       -1.10750063125937
H            2.46316916244246       -3.40983809758165       -0.10407602729838
H            1.97519807455823       -2.99221220520703       -1.74104752898743
35
 energy: -799.318254776691 gnorm: 0.001307486774 xtb: 6.7.1 (edcfbbe)
C           -0.40749493573022       -2.59617627806217       -0.29367881501617
C            0.44757097410784       -1.38704831792749       -0.07341494262898
C            1.82982752497682       -1.38224195690662       -0.33147779219826
N            2.59924254731312       -0.30816197730982       -0.12433390965522
C            2.00040638311143        0.79938171017440        0.35994389756955
N            0.67439801432696        0.92001878641363        0.58792872192804
C           -0.04121919055443       -0.16503186596307        0.36641114055072
O           -1.39411909653648       -0.02756217055845        0.68619887215900
C           -2.28128770841522       -0.06633936886533       -0.37806433765836
O           -1.89895648171160        0.00309315282798       -1.54211065554544
N           -3.55448713276062       -0.18433283962637        0.04268457115819
C           -4.62552125270277        0.07076913770344       -0.92167827242612
C           -3.91638967591345       -0.05814597451691        1.45731922132099
N            2.79560944059236        1.87425992736299        0.66763890694114
C            2.15597853698984        3.17845596912594        0.84767618848809
C            4.13969500633892        1.92808427184525        0.08916029441981
C            2.49741199111464       -2.61253128649145       -0.85658345870808
H           -0.61668187108064       -2.75039457853487       -1.35912192676970
H            0.09144947726620       -3.49743035401844        0.07376842066310
H           -1.36389818607741       -2.51119214608678        0.22643833622990
H           -4.92341560409838        1.12664916717602       -0.90658498033054
H           -5.49013120837048       -0.54357602072335       -0.66009252008455
H           -4.29480451570181       -0.19373982813655       -1.92543092707212
H           -3.24578963390443       -0.64801623006204        2.08192174151215
H           -4.93054070434295       -0.44248259310414        1.58140492054538
H           -3.89317654550252        0.98758777887813        1.78648651640274
H            2.90638996206171        3.88065041051976        1.21504362854416
H            1.35293276965825        3.11853316353696        1.58226655734561
H            1.74266209719220        3.56708319691664       -0.09405948845181
H            4.11138842909697        2.07312825430679       -1.00018825784148
H            4.69240292080059        1.01403346406333        0.30464266266303
H            4.67323488875251        2.76721112386312        0.53917970064381
H            3.53882183465772       -2.40949870774213       -1.10774107018586
H            2.46466297979629       -3.41088726656946       -0.10567982917461
H            1.97644500800995       -2.99120017724665       -1.74205660808230
35
 energy: -799.318259951398 gnorm: 0.001306971892 xtb: 6.7.1 (edcfbbe)
C           -0.40635626975694       -2.59931328472128       -0.29319016823008
C            0.44878717801188       -1.39004705895178       -0.07323015385398
C            1.83102367136563       -1.38404641488114       -0.33048297767791
N            2.59928827895422       -0.30921922633246       -0.12265225370932
C            1.99945062811422        0.79865230651564        0.36124072522782
N            0.67287158911624        0.91693654485631        0.59124868702922
C           -0.04106347706233       -0.16876849234262        0.36801846882383
O           -1.39389273835965       -0.03348284524970        0.68675402506826
C           -2.28076269025484       -0.06688973479950       -0.37776502056807
O           -1.89779081804533        0.00377828303718       -1.54184600960866
N           -3.55401308432281       -0.18208764163920        0.04216107281951
C           -4.62516282623042        0.07333116391928       -0.92168975534361
C           -3.91586517364064       -0.05516795081393        1.45736352590496
N            2.79277616762028        1.87410475539567        0.66624636396781
C            2.15338393835805        3.17904325141942        0.84766924039550
C            4.13789560093268        1.92851172835616        0.08878352538223
C            2.50018606493405       -2.61262498460608       -0.85773824790466
H           -0.61688866333162       -2.75473742716447       -1.35827474725859
H            0.09256992922288       -3.50065053781630        0.07455915228939
H           -1.36234835411825       -2.51367364699899        0.22774478676800
H           -4.92215560936404        1.12991671970167       -0.90799076998915
H           -5.49069877504532       -0.53952443367287       -0.65835520198763
H           -4.29641219413589       -0.19306393749063       -1.92566259500941
H           -3.24626084007283       -0.64678814396367        2.08216358151635
H           -4.93167041309868       -0.43691753498506        1.58082165820606
H           -3.89028061753702        0.99130715179246        1.78675647696602
H            2.90401984387722        3.88043841226398        1.21715281842909
H            1.34824477357554        3.11918466312659        1.57992164842403
H            1.74323182915622        3.56794991849095       -0.09579365900371
H            4.10965121058289        2.07566143727312       -1.00066388756978
H            4.68983239917798        1.01350053287711        0.30257785494024
H            4.67158849818440        2.76751357221174        0.54011361019647
H            3.54140267648430       -2.40762388197546       -1.10836445732804
H            2.46831158753639       -3.41315388565006       -0.10931029027908
H            1.97972506379349       -2.98909876993390       -1.74447442045954
35
 energy: -799.318264314763 gnorm: 0.001173938939 xtb: 6.7.1 (edcfbbe)
C           -0.40525644075617       -2.60137676269907       -0.29295019943098
C            0.44951871237769       -1.39180427963307       -0.07302282862622
C            1.83168580833597       -1.38472880593389       -0.33062774000694
N            2.59928851381583       -0.30957551319984       -0.12260241679095
C            1.99897505170323        0.79779492541770        0.36163823269976
N            0.67224594992667        0.91530205594386        0.59179051957703
C           -0.04106674464357       -0.17084732718020        0.36847225245931
O           -1.39387805168192       -0.03656698320315        0.68763218870903
C           -2.28055185912303       -0.06747121837565       -0.37693595373298
O           -1.89727770272024        0.00365285638986       -1.54092578172702
N           -3.55401803871924       -0.18075791390528        0.04264685535559
C           -4.62456023154536        0.07532017227793       -0.92151839743511
C           -3.91605779099160       -0.05329014155187        1.45768845610794
N            2.79133985847037        1.87407902890882        0.66530916070020
C            2.15144807246314        3.17871396140165        0.84650409469006
C            4.13661012843147        1.92902319497080        0.08857026055356
C            2.50168850620200       -2.61268128902800       -0.85838525492983
H           -0.61587646525343       -2.75671252204125       -1.35800669297158
H            0.09398218654846       -3.50256632185629        0.07466143563119
H           -1.36124078228521       -2.51595587869538        0.22807848135865
H           -4.92011042868222        1.13215574858491       -0.90877579191797
H           -5.49083442181176       -0.53606329085172       -0.65770848218844
H           -4.29600706590601       -0.19237144888389       -1.92522201314899
H           -3.24788168604027       -0.64589553577477        2.08261571137660
H           -4.93235059314193       -0.43288366138107        1.58115010221259
H           -3.88830282412438        0.99291997206130        1.78654326477303
H            2.90148084381515        3.87943441715864        1.21804678675538
H            1.34562215204769        3.11757051970879        1.57785924612158
H            1.74212680884347        3.56970444011168       -0.09619890688814
H            4.10920770494298        2.07694467581669       -1.00061708647688
H            4.68830230549510        1.01396118068559        0.30207711975276
H            4.66976471746265        2.76742424985580        0.54105296887260
H            3.54285732597024       -2.40692273537740       -1.10844270836883
H            2.46988740546586       -3.41404384082526       -0.11081608123865
H            1.98185840947812       -2.98853433790337       -1.74577044351954
35
 energy: -799.318269238926 gnorm: 0.000617874112 xtb: 6.7.1 (edcfbbe)
C           -0.40321391985856       -2.60479836776057       -0.29263503106031
C            0.45052384934377       -1.39459738812059       -0.07225035172254
C            1.83256097387181       -1.38592937841125       -0.33086912235743
N            2.59906397716454       -0.30978162442637       -0.12377138548964
C            1.99776687169849        0.79693860714608        0.36015387082101
N            0.67128684365171        0.91307172250072        0.59110965931231
C           -0.04090245170608       -0.17400177928329        0.36928076765845
O           -1.39384822378899       -0.04110267715519        0.68950525621758
C           -2.28001941331851       -0.06840804269865       -0.37546919113225
O           -1.89633057859362        0.00247349558267       -1.53914797719164
N           -3.55405177477223       -0.17914199016142        0.04395567949402
C           -4.62329960773349        0.07868568356240       -0.92120717651322
C           -3.91638539225074       -0.04993237128674        1.45856771159265
N            2.78910054522117        1.87436985931043        0.66335317477093
C            2.14806984618367        3.17773494414160        0.84540552899568
C            4.13461061858207        1.93034969549615        0.08838802877761
C            2.50364739409004       -2.61302610369879       -0.85940450903363
H           -0.61314631980749       -2.75959171296954       -1.35785726404777
H            0.09672780508998       -3.50568360952587        0.07463139234233
H           -1.35952128004207       -2.52021106973626        0.22801066875818
H           -4.91554820490051        1.13621178095834       -0.91013866330499
H           -5.49124307859470       -0.52980946336933       -0.65705233803255
H           -4.29448271804671       -0.19134117282141       -1.92417202097054
H           -3.25093560257479       -0.64467923390600        2.08382538581437
H           -4.93361901006270       -0.42593714993099        1.58167268779909
H           -3.88499515401327        0.99574880293191        1.78691992539596
H            2.89640636061771        3.87811828003513        1.22030566287540
H            1.34058714576910        3.11423795096162        1.57464811353566
H            1.74071378368737        3.57027734541224       -0.09719315072991
H            4.10857064427477        2.07974700585326       -1.00036339190915
H            4.68611497412705        1.01516907389672        0.30129647364036
H            4.66691588079922        2.76764387417740        0.54302446810905
H            3.54489720430182       -2.40628967804609       -1.10837663651240
H            2.47167592847851       -3.41520576555884       -0.11262971351533
H            1.98492302893341       -2.98835633423128       -1.74770973976112
35
 energy: -799.318269238926 gnorm: 0.000617874112 xtb: 6.7.1 (edcfbbe)
C           -0.40321391985856       -2.60479836776057       -0.29263503106031
C            0.45052384934377       -1.39459738812059       -0.07225035172254
C            1.83256097387181       -1.38592937841125       -0.33086912235743
N            2.59906397716454       -0.30978162442637       -0.12377138548964
C            1.99776687169849        0.79693860714608        0.36015387082101
N            0.67128684365171        0.91307172250072        0.59110965931231
C           -0.04090245170608       -0.17400177928329        0.36928076765845
O           -1.39384822378899       -0.04110267715519        0.68950525621758
C           -2.28001941331851       -0.06840804269865       -0.37546919113225
O           -1.89633057859362        0.00247349558267       -1.53914797719164
N           -3.55405177477223       -0.17914199016142        0.04395567949402
C           -4.62329960773349        0.07868568356240       -0.92120717651322
C           -3.91638539225074       -0.04993237128674        1.45856771159265
N            2.78910054522117        1.87436985931043        0.66335317477093
C            2.14806984618367        3.17773494414160        0.84540552899568
C            4.13461061858207        1.93034969549615        0.08838802877761
C            2.50364739409004       -2.61302610369879       -0.85940450903363
H           -0.61314631980749       -2.75959171296954       -1.35785726404777
H            0.09672780508998       -3.50568360952587        0.07463139234233
H           -1.35952128004207       -2.52021106973626        0.22801066875818
H           -4.91554820490051        1.13621178095834       -0.91013866330499
H           -5.49124307859470       -0.52980946336933       -0.65705233803255
H           -4.29448271804671       -0.19134117282141       -1.92417202097054
H           -3.25093560257479       -0.64467923390600        2.08382538581437
H           -4.93361901006270       -0.42593714993099        1.58167268779909
H           -3.88499515401327        0.99574880293191        1.78691992539596
H            2.89640636061771        3.87811828003513        1.22030566287540
H            1.34058714576910        3.11423795096162        1.57464811353566
H            1.74071378368737        3.57027734541224       -0.09719315072991
H            4.10857064427477        2.07974700585326       -1.00036339190915
H            4.68611497412705        1.01516907389672        0.30129647364036
H            4.66691588079922        2.76764387417740        0.54302446810905
H            3.54489720430182       -2.40628967804609       -1.10837663651240
H            2.47167592847851       -3.41520576555884       -0.11262971351533
H            1.98492302893341       -2.98835633423128       -1.74770973976112
